Title
81347
    1CHL1    C3    1   0.228   4.129  10.228  0.2957  0.0626  0.2724
    1CHL1    H3    2   0.184   4.028  10.233  1.5323 -0.4325  2.7252
    1CHL1    O3    3   0.234   4.186  10.361 -0.5228  0.7844 -0.2330
    1CHL1   H3'    4   0.257   4.273  10.328 -3.9971  1.6954 -0.5614
    1CHL1    C4    5   0.364   4.121  10.164 -0.0652  0.4514 -0.9963
    1CHL1   H4A    6   0.408   4.222  10.175  0.0780  0.4072 -1.1546
    1CHL1   H4B    7   0.405   4.038  10.226 -1.5121  0.9857  0.7769
    1CHL1    C5    8   0.360   4.104  10.016  0.8986  0.5214 -0.9205
    1CHL1    C6    9   0.427   4.001   9.957 -0.6542  0.2970 -0.7169
    1CHL1    H6   10   0.506   3.948  10.013  0.0564  0.8816 -1.1398
    1CHL1    C7   11   0.449   3.976   9.810 -0.6468 -0.4144  0.1022
    1CHL1   H7A   12   0.557   3.964   9.788 -1.1290 -0.5630 -2.4708
    1CHL1   H7B   13   0.403   3.881   9.776 -0.4443 -0.9223  1.1928
    1CHL1    C8   14   0.392   4.094   9.723 -0.1086 -0.2188  0.1097
    1CHL1    H8   15   0.460   4.182   9.735 -0.1825 -0.4122  2.3969
    1CHL1   C14   16   0.383   4.068   9.570  0.7173  0.2133  0.2985
    1CHL1   H14   17   0.298   3.998   9.558  0.7056  0.6158 -2.5338
    1CHL1   C15   18   0.503   3.996   9.499  0.3212  0.2792  0.4861
    1CHL1  H15A   19   0.594   4.060   9.500  1.7479 -1.6586  2.1405
    1CHL1  H15B   20   0.529   3.894   9.536  2.1838  0.5228 -0.0280
    1CHL1   C16   21   0.449   3.985   9.354  0.2205  0.6187  0.0596
    1CHL1  H16A   22   0.532   4.010   9.285 -2.5081  1.3830 -3.1765
    1CHL1  H16B   23   0.417   3.884   9.323  2.3769 -0.0184 -0.2718
    1CHL1   C17   24   0.328   4.081   9.337  1.0311 -0.1197 -0.3622
    1CHL1   H17   25   0.235   4.023   9.353 -1.4943  3.5211 -0.6914
    1CHL1   C13   26   0.335   4.175   9.468  0.2735  0.5467  0.5558
    1CHL1   C18   27   0.445   4.286   9.450 -0.4185  0.5084  0.3434
    1CHL1  H18A   28   0.531   4.249   9.391  0.1213  0.7068  0.9939
    1CHL1  H18B   29   0.398   4.373   9.399  2.4325  1.4458 -0.9153
    1CHL1  H18C   30   0.490   4.317   9.547  0.2703  0.2035  0.1284
    1CHL1   C12   31   0.198   4.227   9.520  0.3470 -0.3062 -0.5742
    1CHL1  H12A   32   0.166   4.320   9.467  1.3088 -0.1336 -0.8639
    1CHL1  H12B   33   0.115   4.153   9.513  0.1025  0.0161 -1.1561
    1CHL1   C11   34   0.211   4.257   9.678  0.8671 -0.1807  0.7913
    1CHL1  H11A   35   0.265   4.354   9.682 -1.8675  1.4022  3.6045
    1CHL1  H11B   36   0.110   4.286   9.713 -0.1630 -0.5000 -1.7041
    1CHL1    C9   37   0.262   4.149   9.774 -0.0615 -0.6870 -0.2903
    1CHL1    H9   38   0.195   4.061   9.772  0.4935 -1.1056 -0.8133
    1CHL1   C10   39   0.272   4.193   9.925 -0.0412  0.2036  1.1991
    1CHL1   C19   40   0.336   4.341   9.917  0.6047  0.5299 -0.4518
    1CHL1  H19A   41   0.261   4.414   9.879 -1.3230 -1.9713 -1.7650
    1CHL1  H19B   42   0.364   4.377  10.019  1.3154  1.7369 -1.0476
    1CHL1  H19C   43   0.430   4.339   9.858 -0.8774 -0.3018 -2.9200
    1CHL1    C1   44   0.132   4.185   9.989  0.5892  0.0120 -0.0578
    1CHL1   H1A   45   0.068   4.261   9.939  1.0496  0.6221  0.2771
    1CHL1   H1B   46   0.082   4.088   9.965  0.1579 -0.0005  0.8358
    1CHL1    C2   47   0.133   4.219  10.143 -0.6568  0.2453  0.0119
    1CHL1   H2A   48   0.028   4.213  10.178 -0.8135  2.0939 -0.0675
    1CHL1   H2B   49   0.165   4.323  10.163 -0.0296  0.1526 -0.4737
    1CHL1   C20   50   0.316   4.148   9.193  0.4260  0.1126 -0.3696
    1CHL1   H20   51   0.391   4.230   9.185  1.8634 -1.1056  0.3002
    1CHL1   C21   52   0.178   4.204   9.186  0.0800  0.0846 -0.1611
    1CHL1  H21A   53   0.104   4.121   9.175  2.0824 -2.0272  1.3632
    1CHL1  H21B   54   0.167   4.270   9.097 -0.0252  0.1625 -0.0900
    1CHL1  H21C   55   0.149   4.258   9.278 -1.4417 -1.7278  0.4860
    1CHL1   C22   56   0.340   4.056   9.075  0.0161  0.2987  0.0005
    1CHL1  H22A   57   0.433   3.997   9.089 -0.9990 -0.7773  3.0994
    1CHL1  H22B   58   0.254   3.986   9.066  1.1542 -0.8898 -3.0575
    1CHL1   C23   59   0.337   4.132   8.932 -1.3122  0.6715 -0.9576
    1CHL1  H23A   60   0.239   4.184   8.919 -1.2290  1.1027  0.0724
    1CHL1  H23B   61   0.411   4.215   8.931 -1.5421  0.9027  0.0009
    1CHL1   C24   62   0.357   4.031   8.822  0.3410 -0.0310 -0.1601
    1CHL1  H24A   63   0.461   3.995   8.832  0.1894 -0.4280  0.0288
    1CHL1  H24B   64   0.280   3.951   8.830  0.2561 -0.0216 -0.8142
    1CHL1   C25   65   0.344   4.097   8.683 -0.0704  0.0344  0.0869
    1CHL1   H25   66   0.391   4.198   8.679 -0.0032 -0.0243 -3.2793
    1CHL1   C26   67   0.402   4.017   8.573  0.1831  0.4797 -0.7364
    1CHL1  H26A   68   0.512   4.022   8.555  0.2223 -0.7684 -0.9688
    1CHL1  H26B   69   0.381   3.908   8.583  0.6528  0.4668  0.2431
    1CHL1  H26C   70   0.358   4.043   8.474 -2.1720  1.2535  0.4467
    1CHL1   C27   71   0.190   4.122   8.652  0.1636 -0.2156  0.5826
    1CHL1  H27A   72   0.129   4.145   8.742 -0.5248 -0.7882  0.2740
    1CHL1  H27B   73   0.189   4.214   8.589  1.6986  0.7378  1.8872
    1CHL1  H27C   74   0.148   4.036   8.595 -0.4083 -1.6309  3.0348
    2CHL1    C3   75   1.646   3.927  10.115  0.3577 -0.4678 -0.4976
    2CHL1    H3   76   1.549   3.890  10.075 -0.2654  0.5874  0.0057
    2CHL1    O3   77   1.657   3.917  10.256  0.2808  0.1986  0.2032
    2CHL1   H3'   78   1.728   3.981  10.266  0.4221  0.3489 -1.5176
    2CHL1    C4   79   1.762   3.849  10.046 -0.1084 -0.7523  0.6358
    2CHL1   H4A   80   1.852   3.898  10.090 -1.0437  0.9944  0.6819
    2CHL1   H4B   81   1.755   3.747  10.089  0.4131 -0.5706  1.1653
    2CHL1    C5   82   1.773   3.867   9.892  0.3291  0.1154  0.0133
    2CHL1    C6   83   1.773   3.758   9.808  0.4459  0.0574  0.4811
    2CHL1    H6   84   1.766   3.654   9.843 -0.5544  0.7013  2.3439
    2CHL1    C7   85   1.777   3.776   9.657 -1.0952  0.0302  0.2025
    2CHL1   H7A   86   1.833   3.688   9.619 -1.5949 -0.0823 -0.2902
    2CHL1   H7B   87   1.673   3.756   9.622 -1.0976  0.7684 -0.2160
    2CHL1    C8   88   1.819   3.916   9.615  0.2496  0.7286 -0.2574
    2CHL1    H8   89   1.929   3.921   9.634  0.3028  0.6516 -0.5471
    2CHL1   C14   90   1.808   3.928   9.468  0.5130  0.7128  0.3498
    2CHL1   H14   91   1.700   3.921   9.444  0.9910  0.1355 -1.8133
    2CHL1   C15   92   1.866   3.814   9.376  0.7518  0.1880  0.5547
    2CHL1  H15A   93   1.970   3.785   9.403 -0.1936 -2.9657  1.2576
    2CHL1  H15B   94   1.803   3.722   9.376 -2.6154  2.3297  0.3950
    2CHL1   C16   95   1.882   3.877   9.230 -0.1327  0.1495 -0.9803
    2CHL1  H16A   96   1.990   3.877   9.204  0.5692 -0.1580  1.6108
    2CHL1  H16B   97   1.828   3.820   9.152 -0.7220  0.5978 -0.9049
    2CHL1   C17   98   1.839   4.028   9.253 -0.4608 -0.0503 -0.1357
    2CHL1   H17   99   1.728   4.033   9.242 -0.4226  1.7326  0.0773
    2CHL1   C13  100   1.852   4.058   9.403 -1.1331  0.0126  0.4459
    2CHL1   C18  101   2.014   4.079   9.439 -0.4481  0.3349  0.7644
    2CHL1  H18A  102   2.042   4.181   9.405  3.5097 -1.5886 -2.7881
    2CHL1  H18B  103   2.024   4.061   9.548 -0.4031  0.6727  0.8167
    2CHL1  H18C  104   2.072   4.004   9.381 -2.1523  0.6100 -1.4297
    2CHL1   C12  105   1.771   4.164   9.467 -0.4892  0.3656 -0.7056
    2CHL1  H12A  106   1.802   4.263   9.425  0.3631  1.3058  1.9320
    2CHL1  H12B  107   1.667   4.131   9.446 -0.3296 -1.5201  1.1379
    2CHL1   C11  108   1.783   4.169   9.626  0.4232 -0.2969  0.6603
    2CHL1  H11A  109   1.880   4.218   9.650 -0.0439  1.2246 -0.4182
    2CHL1  H11B  110   1.709   4.246   9.656  0.7096  1.0621 -1.8239
    2CHL1    C9  111   1.756   4.028   9.691 -0.2117  0.2710 -0.8916
    2CHL1    H9  112   1.647   4.021   9.668 -0.1222 -1.1437 -0.9636
    2CHL1   C10  113   1.772   4.014   9.844  0.9782 -0.0333 -0.4000
    2CHL1   C19  114   1.902   4.097   9.885 -0.8098  0.5540  0.1771
    2CHL1  H19A  115   1.987   4.052   9.829 -0.8933 -2.1056  1.9987
    2CHL1  H19B  116   1.891   4.204   9.857 -0.6336 -0.0999 -2.6812
    2CHL1  H19C  117   1.920   4.083   9.994 -0.4509 -1.2962 -0.0886
    2CHL1    C1  118   1.674   4.091   9.926  0.5739 -0.8357 -0.0173
    2CHL1   H1A  119   1.675   4.197   9.890 -2.0476 -0.5097  0.6299
    2CHL1   H1B  120   1.569   4.079   9.889  0.8471 -0.4495 -0.9422
    2CHL1    C2  121   1.667   4.076  10.081  1.0947 -0.1192 -0.6611
    2CHL1   H2A  122   1.581   4.131  10.126  1.1243 -0.4860 -0.1450
    2CHL1   H2B  123   1.758   4.125  10.122  1.0312  0.0132 -0.6742
    2CHL1   C20  124   1.904   4.127   9.153  0.0340  1.1420  0.8256
    2CHL1   H20  125   2.015   4.126   9.158  0.2524  1.7157 -2.2813
    2CHL1   C21  126   1.869   4.279   9.176 -0.2720  0.6048  0.0757
    2CHL1  H21A  127   1.915   4.312   9.272  0.6244 -2.0201  0.6214
    2CHL1  H21B  128   1.760   4.301   9.168 -0.9390 -2.5805 -1.0440
    2CHL1  H21C  129   1.921   4.341   9.100 -0.0145  0.6582  0.2936
    2CHL1   C22  130   1.860   4.099   9.006 -0.5004  0.0592  0.0937
    2CHL1  H22A  131   1.773   4.031   9.007  0.9327 -1.8739  0.3312
    2CHL1  H22B  132   1.830   4.199   8.968 -1.6363 -0.8057 -1.3782
    2CHL1   C23  133   1.970   4.043   8.910 -0.0536 -0.3128 -0.5304
    2CHL1  H23A  134   2.065   4.097   8.930 -0.1713 -0.2761 -0.0620
    2CHL1  H23B  135   1.979   3.942   8.957 -0.6838 -0.2695 -0.2971
    2CHL1   C24  136   1.939   4.027   8.758  0.0386  0.5161 -0.0571
    2CHL1  H24A  137   2.022   3.980   8.700  0.9243  0.2832  1.3579
    2CHL1  H24B  138   1.856   3.953   8.760  0.6949 -0.2292  1.1620
    2CHL1   C25  139   1.883   4.156   8.696  0.0045  0.1405 -0.4120
    2CHL1   H25  140   1.796   4.187   8.759  1.3778  1.7020  0.8008
    2CHL1   C26  141   1.994   4.264   8.713 -0.0528  0.3164 -0.1256
    2CHL1  H26A  142   2.044   4.265   8.812  1.1857 -0.4224 -0.7105
    2CHL1  H26B  143   2.074   4.235   8.641  0.1224 -0.8289  0.5054
    2CHL1  H26C  144   1.946   4.356   8.673 -0.8069  1.1148  2.4572
    2CHL1   C27  145   1.838   4.138   8.549 -0.1304  0.1897 -0.6792
    2CHL1  H27A  146   1.920   4.100   8.484 -0.1336  1.1388 -1.2545
    2CHL1  H27B  147   1.754   4.066   8.538 -0.2575  0.6829 -3.6990
    2CHL1  H27C  148   1.801   4.230   8.499 -0.0301  0.4110 -0.3529
    3CHL1    C3  149   3.957   2.245  10.148  0.1476  0.2423  0.6549
    3CHL1    H3  150   3.991   2.142  10.122  1.6168  0.3029  2.1743
    3CHL1    O3  151   3.958   2.248  10.288  0.6056 -0.3899 -0.0739
    3CHL1   H3'  152   4.050   2.261  10.312  0.1782 -0.2496  1.6930
    3CHL1    C4  153   4.052   2.357  10.096  0.1195  0.4914  0.1055
    3CHL1   H4A  154   4.018   2.449  10.148  0.5110  0.4469  0.4415
    3CHL1   H4B  155   4.155   2.344  10.135  0.1073  1.2037  0.4025
    3CHL1    C5  156   4.046   2.361   9.942 -0.4353 -0.2585 -0.4255
    3CHL1    C6  157   4.159   2.352   9.874 -0.1860  0.2156 -0.4535
    3CHL1    H6  158   4.252   2.343   9.932 -1.0416 -1.7145  0.7159
    3CHL1    C7  159   4.181   2.343   9.728  0.2432  0.7675  0.3936
    3CHL1   H7A  160   4.265   2.408   9.698 -0.8604  1.9826 -0.1896
    3CHL1   H7B  161   4.216   2.239   9.708  1.9915  1.6638 -1.4705
    3CHL1    C8  162   4.052   2.373   9.652  0.3409  0.1734  0.4466
    3CHL1    H8  163   4.044   2.484   9.643 -1.3705 -0.0271 -1.0075
    3CHL1   C14  164   4.053   2.321   9.516  0.4116  0.1739  0.2804
    3CHL1   H14  165   4.049   2.211   9.528 -0.4040  0.0399 -1.0111
    3CHL1   C15  166   4.181   2.349   9.436  0.1917 -0.1379  0.3065
    3CHL1  H15A  167   4.221   2.452   9.446 -1.7625  0.8528 -1.2260
    3CHL1  H15B  168   4.252   2.265   9.455 -0.3858 -0.2425  2.1115
    3CHL1   C16  169   4.138   2.339   9.286  0.2951  0.4915 -0.6743
    3CHL1  H16A  170   4.159   2.438   9.240  0.8722 -0.3306 -2.2502
    3CHL1  H16B  171   4.194   2.253   9.245  1.0981  0.7647 -0.1701
    3CHL1   C17  172   3.990   2.294   9.288 -0.2369 -0.0300 -0.6514
    3CHL1   H17  173   3.989   2.184   9.306 -1.0387  0.4236  2.8564
    3CHL1   C13  174   3.944   2.359   9.421  0.1692 -0.4645  0.3360
    3CHL1   C18  175   3.938   2.508   9.409  0.6944 -0.9807 -0.4032
    3CHL1  H18A  176   4.038   2.557   9.402  1.4000 -2.1025  1.1405
    3CHL1  H18B  177   3.860   2.541   9.338 -0.4881  1.4411  1.8572
    3CHL1  H18C  178   3.905   2.562   9.500 -1.2832 -0.8340 -1.1687
    3CHL1   C12  179   3.813   2.298   9.480 -0.6239 -0.2030  0.4726
    3CHL1  H12A  180   3.717   2.324   9.431 -2.1257  0.2045  3.3907
    3CHL1  H12B  181   3.822   2.187   9.479 -1.2626 -0.2547  0.1599
    3CHL1   C11  182   3.797   2.332   9.630  0.1083 -0.7707 -0.1588
    3CHL1  H11A  183   3.776   2.440   9.617 -2.5573 -1.1990  0.0187
    3CHL1  H11B  184   3.711   2.288   9.684 -0.5614  0.4583 -0.2022
    3CHL1    C9  185   3.924   2.312   9.723  0.1514  0.2204  0.7201
    3CHL1    H9  186   3.942   2.202   9.723 -0.9730 -0.0349 -1.4476
    3CHL1   C10  187   3.908   2.353   9.873  0.0353 -0.5408 -0.2010
    3CHL1   C19  188   3.859   2.502   9.874 -0.3138 -0.2207  0.3373
    3CHL1  H19A  189   3.893   2.563   9.960 -1.3466  0.7819  0.0712
    3CHL1  H19B  190   3.895   2.548   9.779  0.8523 -0.9176  0.4285
    3CHL1  H19C  191   3.748   2.508   9.868 -0.3980 -1.8886 -0.4208
    3CHL1    C1  192   3.800   2.263   9.944 -0.0721  1.1978 -0.3450
    3CHL1   H1A  193   3.696   2.291   9.919  0.0235  1.4795 -0.4268
    3CHL1   H1B  194   3.813   2.155   9.921 -1.5677  0.7788  0.6641
    3CHL1    C2  195   3.815   2.270  10.098 -0.0942 -0.1322 -0.3242
    3CHL1   H2A  196   3.751   2.194  10.148  0.8357  0.1016  1.3133
    3CHL1   H2B  197   3.769   2.364  10.134  0.6802  0.8251 -1.7202
    3CHL1   C20  198   3.906   2.314   9.161  0.5876 -0.5591 -0.5343
    3CHL1   H20  199   3.849   2.409   9.159  0.4462 -0.6304  0.0190
    3CHL1   C21  200   3.812   2.197   9.158  0.1114  0.4756 -0.5024
    3CHL1  H21A  201   3.866   2.104   9.131  2.5692  1.6935 -0.0840
    3CHL1  H21B  202   3.735   2.214   9.080  1.2581  0.6245 -1.6362
    3CHL1  H21C  203   3.765   2.179   9.258  1.4084 -2.6485 -0.3309
    3CHL1   C22  204   4.002   2.324   9.035  0.4343  0.4359 -0.5920
    3CHL1  H22A  205   4.067   2.414   9.035 -0.4037  1.0693 -1.8208
    3CHL1  H22B  206   4.067   2.234   9.034 -1.6352 -1.1455 -0.4793
    3CHL1   C23  207   3.929   2.334   8.906  0.2432  0.5163 -0.0634
    3CHL1  H23A  208   3.862   2.246   8.895 -2.5716  2.0938  2.7993
    3CHL1  H23B  209   3.864   2.424   8.901  0.8415  0.8860 -2.4903
    3CHL1   C24  210   4.029   2.318   8.787  0.3320  0.8055 -0.4278
    3CHL1  H24A  211   4.129   2.363   8.807  0.4233 -0.3336  1.9673
    3CHL1  H24B  212   4.050   2.209   8.794  1.6181  1.0627  0.1680
    3CHL1   C25  213   3.965   2.363   8.657  0.1390 -0.5395  0.5070
    3CHL1   H25  214   3.868   2.309   8.648  0.3603 -0.5863 -2.8420
    3CHL1   C26  215   3.934   2.511   8.641 -0.3877 -0.6916 -0.7583
    3CHL1  H26A  216   3.862   2.544   8.718  1.2518 -2.3830  1.6686
    3CHL1  H26B  217   4.023   2.575   8.661  0.2372 -1.9101  0.5706
    3CHL1  H26C  218   3.908   2.530   8.535 -1.6989  0.8042 -0.2008
    3CHL1   C27  219   4.062   2.316   8.539 -0.0895 -0.0379 -0.6584
    3CHL1  H27A  220   4.081   2.207   8.545  0.2861 -0.1613 -3.0276
    3CHL1  H27B  221   4.009   2.328   8.442 -1.3904 -2.5376 -0.3403
    3CHL1  H27C  222   4.154   2.379   8.547 -2.4066  3.6026 -0.3118
    4CHL1    C3  223   1.553   5.008  10.650 -0.5256 -0.1328  0.0946
    4CHL1    H3  224   1.645   5.061  10.615 -0.8992  0.4412 -0.0297
    4CHL1    O3  225   1.561   5.005  10.791 -0.7310  0.3128 -0.4341
    4CHL1   H3'  226   1.473   4.975  10.816 -0.3469 -0.7910 -0.3556
    4CHL1    C4  227   1.427   5.085  10.610 -0.7440 -0.5821  0.2432
    4CHL1   H4A  228   1.343   5.019  10.644 -0.5778 -1.0255 -0.1984
    4CHL1   H4B  229   1.421   5.183  10.662 -0.9641 -1.1399  1.3099
    4CHL1    C5  230   1.413   5.096  10.463 -0.1679 -0.1341 -0.0531
    4CHL1    C6  231   1.408   5.213  10.400 -0.1936  0.2449 -0.1674
    4CHL1    H6  232   1.406   5.307  10.457  0.3239  1.3282 -1.8643
    4CHL1    C7  233   1.376   5.233  10.259 -0.5539  0.7120  0.4586
    4CHL1   H7A  234   1.276   5.280  10.247 -0.9475 -0.6173 -2.2123
    4CHL1   H7B  235   1.450   5.303  10.213 -1.7614  0.5019 -1.9970
    4CHL1    C8  236   1.344   5.099  10.186 -0.8914 -0.4759 -0.3628
    4CHL1    H8  237   1.236   5.073  10.190 -1.0059 -1.1717 -4.2523
    4CHL1   C14  238   1.386   5.118  10.036  0.2777  0.2835 -0.4239
    4CHL1   H14  239   1.497   5.117  10.040  0.2660 -1.6917  2.1934
    4CHL1   C15  240   1.344   5.245   9.962  0.2667 -0.3769  0.5062
    4CHL1  H15A  241   1.242   5.281   9.987  0.4475  0.3387  0.2298
    4CHL1  H15B  242   1.426   5.318   9.976  0.2643 -0.6719  2.2546
    4CHL1   C16  243   1.328   5.194   9.811  0.2688  0.0182  0.0715
    4CHL1  H16A  244   1.220   5.192   9.784  0.3979  0.8912 -0.5579
    4CHL1  H16B  245   1.384   5.246   9.731  0.3505 -1.4873 -0.8966
    4CHL1   C17  246   1.382   5.043   9.809 -0.8326  1.0007 -1.0359
    4CHL1   H17  247   1.492   5.054   9.801 -0.7542  1.8777  0.6948
    4CHL1   C13  248   1.347   4.995   9.951 -0.8613 -0.3305 -0.5012
    4CHL1   C18  249   1.200   4.965   9.961  0.3820  0.2038  0.6968
    4CHL1  H18A  250   1.134   5.051   9.937 -0.0353 -0.6071 -1.2896
    4CHL1  H18B  251   1.188   4.896   9.874  0.8705  0.7867  0.1581
    4CHL1  H18C  252   1.169   4.908  10.051  1.5103  0.8052  1.4932
    4CHL1   C12  253   1.429   4.874  10.010  0.4545  0.9795 -0.5156
    4CHL1  H12A  254   1.411   4.774   9.965  4.9244 -0.2848  0.0186
    4CHL1  H12B  255   1.537   4.895  10.000  0.2941  0.9875 -2.7982
    4CHL1   C11  256   1.399   4.854  10.160  0.1069  0.1905 -0.0407
    4CHL1  H11A  257   1.294   4.817  10.170  0.1477 -0.6620 -2.2068
    4CHL1  H11B  258   1.459   4.769  10.197  0.0970  0.5114  0.7213
    4CHL1    C9  259   1.431   4.983  10.234 -0.2277 -0.3604  0.3701
    4CHL1    H9  260   1.536   5.008  10.209 -0.6756 -1.5007 -3.0981
    4CHL1   C10  261   1.415   4.961  10.387  0.7157 -0.4748 -0.5290
    4CHL1   C19  262   1.278   4.888  10.420 -0.2491  0.2032  0.1722
    4CHL1  H19A  263   1.188   4.932  10.373 -0.6539 -1.2477 -0.4661
    4CHL1  H19B  264   1.293   4.781  10.393  0.6003 -0.1027  1.7313
    4CHL1  H19C  265   1.262   4.896  10.530  2.1221  0.2104  0.5630
    4CHL1    C1  266   1.525   4.874  10.441 -0.1279 -0.1707  0.0290
    4CHL1   H1A  267   1.499   4.774  10.399  0.4103 -1.2730  2.1763
    4CHL1   H1B  268   1.618   4.914  10.395 -0.4076 -0.6864 -1.0276
    4CHL1    C2  269   1.545   4.866  10.595  0.6562  0.0251  0.0697
    4CHL1   H2A  270   1.625   4.794  10.623  1.6002 -0.4348 -3.3329
    4CHL1   H2B  271   1.449   4.816  10.621  1.4295 -2.2485 -1.1394
    4CHL1   C20  272   1.330   4.973   9.683 -0.6900  0.3105 -0.3356
    4CHL1   H20  273   1.220   4.982   9.694 -0.6154  0.8355  0.0263
    4CHL1   C21  274   1.378   4.828   9.687  0.7381  0.2097 -0.2724
    4CHL1  H21A  275   1.489   4.825   9.691  0.7835  1.8335  0.1848
    4CHL1  H21B  276   1.351   4.755   9.608 -0.9813 -1.4798  1.7311
    4CHL1  H21C  277   1.333   4.779   9.777  2.6655  2.4122  2.0533
    4CHL1   C22  278   1.364   5.044   9.553 -0.3672  0.0060  0.4349
    4CHL1  H22A  279   1.325   5.148   9.551  2.8984  1.3732 -2.2161
    4CHL1  H22B  280   1.473   5.063   9.542 -0.4104  0.9197  1.3797
    4CHL1   C23  281   1.307   4.970   9.427 -0.9878  0.0382  0.0975
    4CHL1  H23A  282   1.346   4.867   9.421 -2.3993 -0.5893  1.1412
    4CHL1  H23B  283   1.196   4.962   9.438 -1.2258  1.3149 -1.0867
    4CHL1   C24  284   1.353   5.046   9.304  1.5542  0.2815 -0.0592
    4CHL1  H24A  285   1.313   5.149   9.316 -0.9030 -0.6465  0.2940
    4CHL1  H24B  286   1.461   5.068   9.318  1.0666  1.4901  2.2404
    4CHL1   C25  287   1.319   4.980   9.168  0.2472 -0.4100 -0.8668
    4CHL1   H25  288   1.220   4.931   9.176 -1.3307  2.7735  2.6476
    4CHL1   C26  289   1.315   5.083   9.060  0.7129 -0.1115 -0.3022
    4CHL1  H26A  290   1.283   5.037   8.964  0.9251  1.8973 -1.3751
    4CHL1  H26B  291   1.247   5.167   9.085 -2.6368 -1.6885 -3.2072
    4CHL1  H26C  292   1.416   5.128   9.045 -0.0890  1.8245 -0.1669
    4CHL1   C27  293   1.417   4.867   9.141  0.2734 -0.3716 -0.0657
    4CHL1  H27A  294   1.385   4.812   9.050 -0.1171  2.9509 -2.1332
    4CHL1  H27B  295   1.520   4.906   9.125 -0.0651 -0.2218 -2.1413
    4CHL1  H27C  296   1.427   4.793   9.223  0.6499 -1.0621 -0.7176
    5CHL1    C3  297   3.627   4.477  10.216  0.0914 -0.5449  0.2703
    5CHL1    H3  298   3.733   4.472  10.183 -0.1944  2.9457 -1.6788
    5CHL1    O3  299   3.610   4.449  10.352 -0.3453  0.1159  0.2236
    5CHL1   H3'  300   3.516   4.449  10.372 -0.2760  1.9255  0.7305
    5CHL1    C4  301   3.573   4.614  10.182 -0.1900  0.1643  0.4245
    5CHL1   H4A  302   3.465   4.609  10.208 -1.3479 -0.6945 -3.7557
    5CHL1   H4B  303   3.617   4.694  10.245  0.1743  1.0987 -0.9685
    5CHL1    C5  304   3.583   4.657  10.035 -0.1150 -0.3032  0.6635
    5CHL1    C6  305   3.647   4.768   9.998 -0.7953 -0.1614  0.9744
    5CHL1    H6  306   3.693   4.839  10.069 -1.0156  0.6908  0.2808
    5CHL1    C7  307   3.674   4.809   9.859 -0.1300  0.1258 -0.3962
    5CHL1   H7A  308   3.647   4.916   9.844  1.9130  1.0465  1.9375
    5CHL1   H7B  309   3.783   4.800   9.843  0.1503 -1.6605  1.9585
    5CHL1    C8  310   3.592   4.726   9.754 -0.7378  0.5700 -0.0226
    5CHL1    H8  311   3.491   4.772   9.749 -1.1441 -0.3774 -0.6635
    5CHL1   C14  312   3.656   4.737   9.614  0.5865 -0.0382 -0.5334
    5CHL1   H14  313   3.750   4.678   9.618 -0.7151 -2.1450  1.5540
    5CHL1   C15  314   3.695   4.883   9.555 -0.4540  0.5094  0.1087
    5CHL1  H15A  315   3.629   4.960   9.600  0.2545  1.0246  0.2844
    5CHL1  H15B  316   3.800   4.903   9.584 -0.0824  0.2342 -1.0010
    5CHL1   C16  317   3.687   4.860   9.398  0.3670 -0.5008  0.5895
    5CHL1  H16A  318   3.607   4.931   9.367  0.6220 -0.6787 -0.5516
    5CHL1  H16B  319   3.780   4.898   9.350  0.4804 -1.7185 -0.2243
    5CHL1   C17  320   3.652   4.710   9.374 -0.0007 -0.7825 -0.7719
    5CHL1   H17  321   3.752   4.662   9.376  1.0796  1.3126 -1.3231
    5CHL1   C13  322   3.575   4.670   9.505 -0.6313 -0.9427 -0.3198
    5CHL1   C18  323   3.434   4.733   9.499  0.3778 -0.5747  1.0853
    5CHL1  H18A  324   3.442   4.842   9.476 -0.3871 -0.5967  0.6828
    5CHL1  H18B  325   3.374   4.688   9.418  1.6629  0.2164 -0.3593
    5CHL1  H18C  326   3.383   4.716   9.596 -5.7729 -0.4677 -1.6925
    5CHL1   C12  327   3.565   4.523   9.537 -0.7440  0.2054 -0.1203
    5CHL1  H12A  328   3.507   4.462   9.464  0.6024  2.0496 -2.9008
    5CHL1  H12B  329   3.663   4.471   9.526 -1.5280 -1.1918 -0.7520
    5CHL1   C11  330   3.512   4.493   9.683  0.3326 -0.4947 -0.1825
    5CHL1  H11A  331   3.404   4.518   9.673  0.4214 -0.6343 -1.7411
    5CHL1  H11B  332   3.509   4.382   9.688 -0.4625 -0.5200 -0.9913
    5CHL1    C9  333   3.583   4.576   9.796  0.9135  0.1275  0.7322
    5CHL1    H9  334   3.690   4.551   9.782  0.7696  0.6740 -1.8210
    5CHL1   C10  335   3.524   4.555   9.935  0.3728  0.1400 -0.2991
    5CHL1   C19  336   3.371   4.567   9.938 -0.7635 -0.5827  0.6974
    5CHL1  H19A  337   3.322   4.492   9.873  2.2748  0.6286 -3.3846
    5CHL1  H19B  338   3.326   4.564  10.040 -4.2103 -1.6254 -0.7097
    5CHL1  H19C  339   3.347   4.668   9.896  1.6931  0.8848  2.5579
    5CHL1    C1  340   3.561   4.409   9.985 -0.3643  0.2544  0.9448
    5CHL1   H1A  341   3.502   4.329   9.935 -0.9096  0.5868  1.0565
    5CHL1   H1B  342   3.663   4.394   9.945 -1.0766  0.8229 -1.1909
    5CHL1    C2  343   3.547   4.376  10.132 -0.0674 -0.2775 -0.8103
    5CHL1   H2A  344   3.580   4.273  10.160 -0.6511 -0.7293 -1.7506
    5CHL1   H2B  345   3.443   4.391  10.167  0.2888 -0.3337  0.3222
    5CHL1   C20  346   3.592   4.672   9.236  0.1958 -0.2845  0.1362
    5CHL1   H20  347   3.490   4.716   9.238  0.0265 -0.4904 -1.8137
    5CHL1   C21  348   3.578   4.517   9.201  0.1985 -0.2548  0.2030
    5CHL1  H21A  349   3.684   4.485   9.192  0.1867  0.0510 -1.1707
    5CHL1  H21B  350   3.536   4.514   9.098  1.1711 -0.8051 -0.1879
    5CHL1  H21C  351   3.525   4.452   9.274 -0.2969  0.6398  0.6638
    5CHL1   C22  352   3.662   4.744   9.112 -0.0250  0.3731 -0.3409
    5CHL1  H22A  353   3.767   4.709   9.107  0.0110  0.5501 -0.8612
    5CHL1  H22B  354   3.623   4.704   9.016  0.2423  0.3743 -0.4513
    5CHL1   C23  355   3.644   4.899   9.088  0.0479  0.0322  0.1436
    5CHL1  H23A  356   3.535   4.920   9.081 -0.1381  0.5255  3.0886
    5CHL1  H23B  357   3.669   4.966   9.173 -0.9539  0.6300 -0.0018
    5CHL1   C24  358   3.716   4.957   8.956  0.5282  0.0671  0.8144
    5CHL1  H24A  359   3.661   4.937   8.862 -1.3401  1.1294  1.6294
    5CHL1  H24B  360   3.709   5.067   8.970 -1.8969 -0.1586  1.8630
    5CHL1   C25  361   3.862   4.923   8.948 -1.0368 -0.4476  0.0472
    5CHL1   H25  362   3.875   4.813   8.957  2.7760 -0.2587 -1.5405
    5CHL1   C26  363   3.916   4.943   8.806  0.2671 -0.4067 -0.2875
    5CHL1  H26A  364   3.952   5.047   8.800 -0.4043  0.2318  3.9122
    5CHL1  H26B  365   3.990   4.861   8.791  1.7993  0.7068  0.8572
    5CHL1  H26C  366   3.832   4.932   8.734  0.3237 -0.2191 -0.3830
    5CHL1   C27  367   3.951   4.979   9.056 -0.2448 -0.8760 -0.3097
    5CHL1  H27A  368   4.055   4.969   9.018 -1.0005 -0.9823 -2.4934
    5CHL1  H27B  369   3.923   5.086   9.059  0.7470 -0.6250  2.3312
    5CHL1  H27C  370   3.931   4.925   9.151 -0.3676  0.7710  0.6252
    6CHL1    C3  371   2.045   5.026  10.384 -0.5640  0.0283  0.9397
    6CHL1    H3  372   1.953   5.088  10.385  0.4483  1.8485 -2.4140
    6CHL1    O3  373   2.071   4.984  10.520  0.5015 -0.0407 -0.7248
    6CHL1   H3'  374   2.145   4.924  10.519  0.3228 -0.4458  2.0709
    6CHL1    C4  375   2.004   4.906  10.302  0.5997 -0.2619 -0.1168
    6CHL1   H4A  376   2.080   4.826  10.313  1.2070  0.5504  1.9591
    6CHL1   H4B  377   1.910   4.858  10.336 -0.6478  2.0259 -0.1755
    6CHL1    C5  378   1.996   4.939  10.153 -0.1742  0.8368 -0.1349
    6CHL1    C6  379   1.881   4.927  10.084 -0.0664  0.2086 -0.1614
    6CHL1    H6  380   1.790   4.890  10.133 -0.4054  1.1000 -0.0993
    6CHL1    C7  381   1.861   4.955   9.935  0.2842  0.8886 -0.5114
    6CHL1   H7A  382   1.796   4.882   9.881  0.9019  1.6979 -2.4585
    6CHL1   H7B  383   1.813   5.054   9.925 -0.3537  0.5248 -1.2032
    6CHL1    C8  384   1.995   4.968   9.862 -0.5211  0.5472 -0.5339
    6CHL1    H8  385   2.028   4.863   9.845 -0.5153  0.5327 -0.4338
    6CHL1   C14  386   1.977   5.016   9.717  0.3725  0.0624  0.9281
    6CHL1   H14  387   1.944   5.121   9.732  0.3140  0.0918  0.5939
    6CHL1   C15  388   1.880   4.940   9.627 -0.5682 -0.3488 -0.6787
    6CHL1  H15A  389   1.904   4.834   9.648  2.0509 -0.1575 -2.2394
    6CHL1  H15B  390   1.771   4.954   9.646 -0.7725 -0.3463 -1.7706
    6CHL1   C16  391   1.935   4.969   9.484  1.1512 -0.4137 -0.9814
    6CHL1  H16A  392   1.947   4.875   9.426  0.8296 -2.7906  2.4967
    6CHL1  H16B  393   1.852   5.024   9.435  1.0832  0.3235 -0.0891
    6CHL1   C17  394   2.064   5.055   9.500 -0.5021  0.6539 -0.2215
    6CHL1   H17  395   2.030   5.159   9.521  1.0848  1.1732 -0.0803
    6CHL1   C13  396   2.112   5.016   9.642 -0.2212 -0.2662 -0.8218
    6CHL1   C18  397   2.183   4.883   9.632 -0.1899  0.4619 -0.0201
    6CHL1  H18A  398   2.192   4.826   9.727  0.4227 -2.9234 -1.9488
    6CHL1  H18B  399   2.118   4.809   9.579  0.5898  0.9856 -1.7584
    6CHL1  H18C  400   2.283   4.892   9.586  0.2743  3.0033  1.3235
    6CHL1   C12  401   2.202   5.112   9.711 -0.2177  0.3989 -0.2082
    6CHL1  H12A  402   2.297   5.112   9.653  0.4217  2.3616  0.7285
    6CHL1  H12B  403   2.152   5.211   9.706 -0.2308  0.6141  2.7037
    6CHL1   C11  404   2.231   5.078   9.857  0.2287 -0.0372  0.5659
    6CHL1  H11A  405   2.301   4.992   9.850 -2.5048 -2.4011  0.5252
    6CHL1  H11B  406   2.278   5.160   9.915 -0.2052  0.0220  0.8384
    6CHL1    C9  407   2.100   5.048   9.946  0.3587  0.5811  1.1421
    6CHL1    H9  408   2.049   5.147   9.945  1.3387  1.0992  1.3597
    6CHL1   C10  409   2.120   4.992  10.086  0.5627 -0.2538  0.3892
    6CHL1   C19  410   2.235   4.892  10.082  0.5388 -0.0243  0.0674
    6CHL1  H19A  411   2.251   4.847  10.182  0.1314 -1.3055 -0.4250
    6CHL1  H19B  412   2.210   4.811  10.010 -0.4750 -0.0182  0.4024
    6CHL1  H19C  413   2.330   4.943  10.056  0.6562 -0.3249 -0.1007
    6CHL1    C1  414   2.155   5.113  10.179 -1.0938 -0.1321 -0.3770
    6CHL1   H1A  415   2.248   5.155  10.136 -1.8578  0.3571 -1.6408
    6CHL1   H1B  416   2.074   5.187  10.159 -2.2352 -1.1153  0.4638
    6CHL1    C2  417   2.175   5.083  10.330  0.3349  1.0953  0.9598
    6CHL1   H2A  418   2.182   5.176  10.390 -2.6307 -0.2065  3.6248
    6CHL1   H2B  419   2.269   5.026  10.347 -0.1884  0.3887  1.5659
    6CHL1   C20  420   2.157   5.045   9.383  0.0275  0.3989  0.4769
    6CHL1   H20  421   2.195   4.941   9.378 -2.4970 -0.5600 -0.8607
    6CHL1   C21  422   2.284   5.138   9.395  0.2270  0.1066  0.4581
    6CHL1  H21A  423   2.311   5.148   9.288  1.0501 -1.3370  0.5057
    6CHL1  H21B  424   2.370   5.104   9.457 -1.3059 -0.0280  2.6496
    6CHL1  H21C  425   2.259   5.240   9.430  2.8785  0.3404  1.8868
    6CHL1   C22  426   2.076   5.067   9.247 -0.0775 -0.0582 -1.0969
    6CHL1  H22A  427   2.152   5.048   9.168  1.0403  0.1401 -0.1018
    6CHL1  H22B  428   1.991   4.999   9.227 -0.7321  0.0841  0.9768
    6CHL1   C23  429   2.021   5.210   9.229  0.0696 -0.4918  0.2200
    6CHL1  H23A  430   1.918   5.213   9.271  0.4704 -1.7706  1.3473
    6CHL1  H23B  431   2.090   5.276   9.284 -0.1362  0.8625 -1.0791
    6CHL1   C24  432   2.021   5.256   9.075  0.4456  0.0998  0.2401
    6CHL1  H24A  433   1.996   5.364   9.068 -0.0628 -0.0867 -1.0014
    6CHL1  H24B  434   2.123   5.252   9.031 -0.0886 -0.4854 -0.9873
    6CHL1   C25  435   1.940   5.167   8.984 -0.1393 -0.0204  0.3547
    6CHL1   H25  436   1.977   5.064   8.999 -0.1346  0.2059  2.1118
    6CHL1   C26  437   1.794   5.166   9.017 -0.1627  0.4430  0.2842
    6CHL1  H26A  438   1.778   5.089   9.095  0.2056  0.7963  0.7069
    6CHL1  H26B  439   1.750   5.267   9.034 -2.1877 -0.2145 -0.7172
    6CHL1  H26C  440   1.733   5.135   8.929  1.9658 -0.0341 -1.1042
    6CHL1   C27  441   1.968   5.216   8.835  0.2881 -0.4735 -0.0495
    6CHL1  H27A  442   2.076   5.209   8.809  0.2784 -2.4614  0.2482
    6CHL1  H27B  443   1.906   5.141   8.782 -1.0470 -1.7104  3.0064
    6CHL1  H27C  444   1.935   5.320   8.814  0.4144 -0.6068 -0.9676
    7CHL1    C3  445   3.129   6.480  10.335 -0.0118 -0.4523  0.8987
    7CHL1    H3  446   3.043   6.419  10.300  0.3226 -1.6898  2.1088
    7CHL1    O3  447   3.142   6.458  10.474 -0.2977  0.0980  0.2378
    7CHL1   H3'  448   3.059   6.484  10.517 -1.4627 -0.5996 -1.4865
    7CHL1    C4  449   3.263   6.433  10.257 -0.0342  0.3854 -1.1290
    7CHL1   H4A  450   3.340   6.486  10.317  0.8166 -2.0150  0.0358
    7CHL1   H4B  451   3.259   6.324  10.279  0.2802  0.1905 -2.0015
    7CHL1    C5  452   3.263   6.466  10.108 -0.1933 -0.3195  0.3331
    7CHL1    C6  453   3.289   6.369  10.016 -0.1293 -0.1487 -0.5026
    7CHL1    H6  454   3.309   6.269  10.058  0.2329  1.2503  3.0743
    7CHL1    C7  455   3.276   6.392   9.869 -0.2215 -0.5361 -0.3045
    7CHL1   H7A  456   3.366   6.352   9.817  0.1682 -0.2091  0.1085
    7CHL1   H7B  457   3.186   6.338   9.833 -0.8271 -0.2896  0.7975
    7CHL1    C8  458   3.261   6.548   9.826 -0.3854  0.6114  0.8946
    7CHL1    H8  459   3.361   6.598   9.830  1.5901 -3.0862  2.6425
    7CHL1   C14  460   3.217   6.549   9.682  0.8555  0.3044 -0.4366
    7CHL1   H14  461   3.114   6.508   9.685  1.4183 -1.0946  1.4841
    7CHL1   C15  462   3.286   6.465   9.575 -0.0768  0.1342  0.3774
    7CHL1  H15A  463   3.397   6.474   9.581  0.3158 -2.8517 -0.5347
    7CHL1  H15B  464   3.271   6.355   9.588  2.0693 -0.7518 -3.2503
    7CHL1   C16  465   3.231   6.524   9.449  0.1502 -0.2328  0.0435
    7CHL1  H16A  466   3.314   6.563   9.386  0.1106  2.8927  1.6859
    7CHL1  H16B  467   3.163   6.453   9.397 -2.0371  1.7561 -0.0297
    7CHL1   C17  468   3.143   6.649   9.491  0.6625  0.3066 -0.1290
    7CHL1   H17  469   3.041   6.606   9.503  0.8311  0.0183  0.3176
    7CHL1   C13  470   3.198   6.690   9.623 -0.5301  0.0944 -0.8904
    7CHL1   C18  471   3.326   6.772   9.612  0.1490  0.6088  0.0781
    7CHL1  H18A  472   3.366   6.818   9.705  1.2478  1.7485 -0.9200
    7CHL1  H18B  473   3.403   6.716   9.556 -0.8253 -0.2483 -0.4407
    7CHL1  H18C  474   3.297   6.866   9.560 -1.6344  0.4516  0.7083
    7CHL1   C12  475   3.095   6.767   9.716 -0.6016 -0.7991  0.3664
    7CHL1  H12A  476   3.102   6.874   9.687  0.8314 -1.3749 -1.6644
    7CHL1  H12B  477   2.992   6.732   9.693 -0.2454 -2.3198  0.9718
    7CHL1   C11  478   3.126   6.757   9.865 -0.1334  0.2110 -0.0379
    7CHL1  H11A  479   3.205   6.832   9.884 -1.2361  1.0036  1.6793
    7CHL1  H11B  480   3.030   6.782   9.915 -1.4871 -2.2214 -1.2141
    7CHL1    C9  481   3.157   6.612   9.910  0.1179  0.5004 -0.5751
    7CHL1    H9  482   3.067   6.547   9.907  0.6138 -0.1928 -0.8099
    7CHL1   C10  483   3.206   6.601  10.065  0.0443  0.1951 -0.1598
    7CHL1   C19  484   3.321   6.709  10.096  0.8014 -0.4969 -0.1036
    7CHL1  H19A  485   3.408   6.704  10.027  1.0101  1.2864 -0.0189
    7CHL1  H19B  486   3.279   6.810  10.079  0.5882 -0.4848  0.4625
    7CHL1  H19C  487   3.364   6.696  10.198  1.5618  2.2950  0.0198
    7CHL1    C1  488   3.084   6.645  10.153  0.0384  0.2237  0.9196
    7CHL1   H1A  489   3.066   6.752  10.128 -0.5920 -0.1427 -0.2616
    7CHL1   H1B  490   2.994   6.591  10.118 -1.1001  3.2282 -1.2573
    7CHL1    C2  491   3.102   6.626  10.301 -0.7619  0.2395  0.2907
    7CHL1   H2A  492   3.008   6.652  10.354 -0.8680 -1.3779  0.9399
    7CHL1   H2B  493   3.187   6.690  10.332 -0.3497  1.7312 -3.4283
    7CHL1   C20  494   3.130   6.746   9.368  0.2555 -0.1484  0.1849
    7CHL1   H20  495   3.232   6.754   9.324 -0.2729  1.2750 -0.8706
    7CHL1   C21  496   3.070   6.888   9.405  0.5504  0.1301  0.3359
    7CHL1  H21A  497   3.082   6.955   9.317 -1.9663  0.6154  0.2705
    7CHL1  H21B  498   3.132   6.944   9.478 -0.0881  0.7113  0.4457
    7CHL1  H21C  499   2.963   6.898   9.434  0.0273  1.8871 -1.9353
    7CHL1   C22  500   3.052   6.694   9.243  0.1234 -0.0686 -0.0139
    7CHL1  H22A  501   3.076   6.586   9.230 -0.8146 -0.1770 -0.9862
    7CHL1  H22B  502   2.942   6.703   9.258  0.3194  2.7895  0.3392
    7CHL1   C23  503   3.103   6.763   9.117  0.4360  0.1001 -0.0323
    7CHL1  H23A  504   3.074   6.871   9.115  1.5013  0.4025 -0.0321
    7CHL1  H23B  505   3.213   6.756   9.124  0.6743  1.7855 -1.2818
    7CHL1   C24  506   3.057   6.695   8.983  0.0779  0.2500 -0.2973
    7CHL1  H24A  507   3.086   6.588   8.989  2.7517  0.9232  0.0501
    7CHL1  H24B  508   2.946   6.685   8.979  0.0324  0.6572 -0.0735
    7CHL1   C25  509   3.087   6.746   8.842 -0.1776  0.2330  0.2205
    7CHL1   H25  510   3.197   6.760   8.840 -0.3355  1.5793 -0.2740
    7CHL1   C26  511   3.046   6.643   8.738 -0.3561 -0.4020  0.0273
    7CHL1  H26A  512   3.048   6.689   8.637 -2.1327  1.4832  0.7812
    7CHL1  H26B  513   3.116   6.557   8.742 -0.1492 -0.2887 -0.8861
    7CHL1  H26C  514   2.947   6.596   8.755  1.0024 -3.1840  0.7995
    7CHL1   C27  515   3.032   6.887   8.807  1.3274 -0.2556 -0.0070
    7CHL1  H27A  516   3.071   6.956   8.886 -1.0358 -0.3185  1.2949
    7CHL1  H27B  517   3.074   6.923   8.710 -1.3660  0.7939 -0.8679
    7CHL1  H27C  518   2.921   6.889   8.805  1.2242  1.2824  2.5146
    8CHL1    C3  519   4.413   6.200  10.308  0.5489  0.2910 -0.1314
    8CHL1    H3  520   4.375   6.112  10.252  0.9227 -0.6228  1.0015
    8CHL1    O3  521   4.440   6.155  10.438  0.3894 -0.7857 -0.4973
    8CHL1   H3'  522   4.459   6.230  10.494 -1.4322 -1.7830  1.6168
    8CHL1    C4  523   4.537   6.249  10.232 -0.7290 -0.0765  0.1025
    8CHL1   H4A  524   4.574   6.327  10.302  0.2457 -1.2547  0.9482
    8CHL1   H4B  525   4.620   6.176  10.224 -0.6279 -0.0547  0.8715
    8CHL1    C5  526   4.505   6.301  10.095 -0.1520 -0.5469 -0.3035
    8CHL1    C6  527   4.565   6.259   9.982  0.2727 -0.1235 -0.5821
    8CHL1    H6  528   4.650   6.190   9.993 -0.0841 -0.7728 -1.7875
    8CHL1    C7  529   4.536   6.302   9.845  0.2097 -0.5979  0.1238
    8CHL1   H7A  530   4.623   6.329   9.782 -1.4483  1.0906 -1.6105
    8CHL1   H7B  531   4.488   6.221   9.786  1.3098 -1.3169  0.1976
    8CHL1    C8  532   4.455   6.438   9.841 -0.3279 -0.8208  0.6820
    8CHL1    H8  533   4.523   6.519   9.874 -1.1075  0.1938 -0.1171
    8CHL1   C14  534   4.394   6.460   9.710  0.6384  0.0354  0.6312
    8CHL1   H14  535   4.320   6.377   9.710 -1.4763  1.8258  1.3677
    8CHL1   C15  536   4.478   6.444   9.574  0.1614  0.5395 -0.2172
    8CHL1  H15A  537   4.571   6.494   9.608  0.9623 -1.6923  1.1256
    8CHL1  H15B  538   4.497   6.339   9.543 -0.1938 -0.1483  1.7866
    8CHL1   C16  539   4.400   6.523   9.462 -0.7291  0.6100 -0.2925
    8CHL1  H16A  540   4.460   6.607   9.422 -0.8901  1.1823  0.6543
    8CHL1  H16B  541   4.373   6.461   9.374  0.4490 -0.3712  0.0016
    8CHL1   C17  542   4.276   6.587   9.537  0.0166  0.3085  0.5611
    8CHL1   H17  543   4.190   6.516   9.528 -0.0018  0.0907  2.1976
    8CHL1   C13  544   4.314   6.590   9.689  0.5291  0.0428 -0.0621
    8CHL1   C18  545   4.403   6.714   9.718  0.1071  0.0513 -0.0186
    8CHL1  H18A  546   4.480   6.726   9.639 -2.5655 -1.6890 -3.1193
    8CHL1  H18B  547   4.348   6.810   9.711 -2.9329 -1.4029  1.8473
    8CHL1  H18C  548   4.451   6.719   9.818  0.8959  1.4388 -0.4476
    8CHL1   C12  549   4.200   6.592   9.794 -0.4560 -0.1752  0.2159
    8CHL1  H12A  550   4.155   6.693   9.792  0.6574  0.4127  1.8194
    8CHL1  H12B  551   4.127   6.515   9.763 -1.0215  0.8039 -0.9494
    8CHL1   C11  552   4.250   6.571   9.937  0.2666 -0.1110  0.0260
    8CHL1  H11A  553   4.314   6.658   9.964 -0.7602  0.2361  1.4372
    8CHL1  H11B  554   4.160   6.579  10.002  0.6063  1.7170  0.3282
    8CHL1    C9  555   4.333   6.438   9.944 -0.1534 -0.2981  0.0500
    8CHL1    H9  556   4.266   6.358   9.907 -0.7892  1.5071 -3.0281
    8CHL1   C10  557   4.390   6.407  10.088  0.3259  0.6463  0.0466
    8CHL1   C19  558   4.461   6.534  10.148  0.5616  0.5945  0.7416
    8CHL1  H19A  559   4.386   6.615  10.162  0.9368  1.1836 -0.4653
    8CHL1  H19B  560   4.505   6.518  10.248  0.4263  0.0910  0.7241
    8CHL1  H19C  561   4.541   6.578  10.084  0.6808  0.1483  0.5787
    8CHL1    C1  562   4.268   6.361  10.185 -1.0439 -0.0147  0.4202
    8CHL1   H1A  563   4.205   6.451  10.198 -2.7743 -0.9330 -1.2554
    8CHL1   H1B  564   4.213   6.278  10.136 -0.9811 -0.5295  1.1993
    8CHL1    C2  565   4.315   6.319  10.326  0.2850 -0.2747 -0.3331
    8CHL1   H2A  566   4.223   6.291  10.382  0.2836  0.3644 -0.0006
    8CHL1   H2B  567   4.365   6.407  10.374 -0.9120  0.9649 -1.2890
    8CHL1   C20  568   4.219   6.708   9.457 -0.1633  0.4992 -0.2881
    8CHL1   H20  569   4.300   6.783   9.447  0.8667 -0.6993 -1.0908
    8CHL1   C21  570   4.118   6.776   9.551  0.7240  0.1806  0.4393
    8CHL1  H21A  571   4.050   6.841   9.493  1.5787  0.0381 -0.7520
    8CHL1  H21B  572   4.163   6.827   9.639  0.1495 -2.0474  2.1421
    8CHL1  H21C  573   4.048   6.699   9.592  1.7497 -0.8394  0.3278
    8CHL1   C22  574   4.159   6.659   9.320 -0.0530 -0.0662 -0.8419
    8CHL1  H22A  575   4.235   6.585   9.288 -1.5413 -2.7423  1.3672
    8CHL1  H22B  576   4.070   6.598   9.347  0.8516 -0.3806  1.7057
    8CHL1   C23  577   4.112   6.755   9.212  0.9596 -0.0595  0.2820
    8CHL1  H23A  578   4.013   6.788   9.251  1.2403 -0.3639  1.2893
    8CHL1  H23B  579   4.184   6.839   9.209 -0.5899  1.2954 -0.7794
    8CHL1   C24  580   4.084   6.681   9.078 -0.1139  0.2751 -0.2339
    8CHL1  H24A  581   4.183   6.652   9.037 -1.0973  1.5310 -3.8557
    8CHL1  H24B  582   4.035   6.583   9.097 -0.0871  0.4319  0.7158
    8CHL1   C25  583   4.007   6.769   8.982 -0.2983  0.5938  0.2135
    8CHL1   H25  584   3.918   6.824   9.020  0.1448  0.7944  0.9792
    8CHL1   C26  585   4.112   6.865   8.915  0.0316 -0.6784 -0.5101
    8CHL1  H26A  586   4.066   6.928   8.836 -1.7548 -2.3831 -0.8882
    8CHL1  H26B  587   4.161   6.932   8.990  0.8994 -0.5815 -1.1466
    8CHL1  H26C  588   4.204   6.818   8.874  0.6477  0.3565 -0.3576
    8CHL1   C27  589   3.960   6.679   8.862  0.7664  0.2131 -0.5455
    8CHL1  H27A  590   3.884   6.609   8.902  0.7372  1.6639  2.2065
    8CHL1  H27B  591   3.911   6.747   8.789  1.1991  2.4512  1.1184
    8CHL1  H27C  592   4.049   6.627   8.820  1.0556  0.6821 -0.5295
    9CHL1    C3  593   0.899   2.223  10.120  0.5326 -0.6950  0.6615
    9CHL1    H3  594   1.000   2.218  10.167  1.5104  0.1011 -1.2710
    9CHL1    O3  595   0.814   2.166  10.220  0.0452  0.6089  0.3810
    9CHL1   H3'  596   0.871   2.135  10.290 -0.0762  0.2129  0.3094
    9CHL1    C4  597   0.858   2.365  10.081 -0.0807 -0.2620 -0.3144
    9CHL1   H4A  598   0.750   2.369  10.052  0.6453  0.2744 -3.2559
    9CHL1   H4B  599   0.858   2.427  10.173 -2.8645  0.3953 -0.6428
    9CHL1    C5  600   0.940   2.425   9.972 -0.0108  0.3071  0.5542
    9CHL1    C6  601   1.005   2.537   9.982 -0.2667 -0.6326  0.1500
    9CHL1    H6  602   0.989   2.588  10.078 -1.7132 -1.7157  0.5152
    9CHL1    C7  603   1.082   2.609   9.880  0.2125 -0.2364  0.0054
    9CHL1   H7A  604   1.063   2.718   9.872 -1.4974 -0.2711  2.3654
    9CHL1   H7B  605   1.187   2.580   9.905  1.2871  1.7515 -1.8912
    9CHL1    C8  606   1.061   2.555   9.739  0.5988  0.0496  0.6344
    9CHL1    H8  607   0.964   2.594   9.700  1.2416 -0.9572 -2.2287
    9CHL1   C14  608   1.174   2.597   9.645 -0.2507  0.3523 -0.1969
    9CHL1   H14  609   1.268   2.551   9.681 -0.3108 -0.4076 -0.9754
    9CHL1   C15  610   1.202   2.746   9.640 -0.0397  0.1800 -0.3849
    9CHL1  H15A  611   1.101   2.793   9.633 -0.7726 -1.2491  0.2104
    9CHL1  H15B  612   1.258   2.778   9.730 -2.4425  1.9729  0.5933
    9CHL1   C16  613   1.279   2.759   9.507  0.1317 -0.4409  0.4318
    9CHL1  H16A  614   1.220   2.820   9.435 -1.0490  0.0199  1.7468
    9CHL1  H16B  615   1.380   2.804   9.515 -1.2260  2.9967 -0.2336
    9CHL1   C17  616   1.290   2.613   9.450  0.7870  0.2351  0.0210
    9CHL1   H17  617   1.383   2.583   9.502  0.4961  2.7637  2.2310
    9CHL1   C13  618   1.173   2.540   9.505 -0.2593 -0.2104 -0.5461
    9CHL1   C18  619   1.051   2.588   9.429  0.0698  0.1979 -0.1041
    9CHL1  H18A  620   1.029   2.528   9.338  1.1402 -0.3544 -0.0262
    9CHL1  H18B  621   0.957   2.577   9.486 -1.4457  0.6560 -2.4026
    9CHL1  H18C  622   1.057   2.694   9.398  0.6837 -0.2829 -1.7509
    9CHL1   C12  623   1.171   2.387   9.512  0.6808  0.1707 -0.2010
    9CHL1  H12A  624   1.184   2.344   9.410 -1.7843  0.6572 -0.7827
    9CHL1  H12B  625   1.265   2.364   9.566  0.1974  2.6415  1.8766
    9CHL1   C11  626   1.063   2.330   9.600 -0.1008  0.4397  0.1637
    9CHL1  H11A  627   0.965   2.359   9.555 -0.2657  1.0714  0.9094
    9CHL1  H11B  628   1.074   2.220   9.609  1.1171  0.7087  2.8545
    9CHL1    C9  629   1.056   2.397   9.745 -0.1840  0.5319  0.6859
    9CHL1    H9  630   1.156   2.373   9.787 -1.0122 -2.8761  1.0429
    9CHL1   C10  631   0.946   2.342   9.840  0.4859 -0.0143 -0.3598
    9CHL1   C19  632   0.811   2.353   9.762 -0.0494  0.0897 -0.2180
    9CHL1  H19A  633   0.817   2.274   9.684  3.6055 -1.1356  1.0734
    9CHL1  H19B  634   0.733   2.338   9.839  0.8234 -1.2561  0.4312
    9CHL1  H19C  635   0.799   2.456   9.720  0.3101 -0.8402 -2.8061
    9CHL1    C1  636   0.975   2.192   9.880  0.0487 -0.0264 -0.1129
    9CHL1   H1A  637   0.958   2.126   9.793  0.2348  0.7083 -0.7176
    9CHL1   H1B  638   1.079   2.167   9.912  0.0620  1.4885  1.1441
    9CHL1    C2  639   0.884   2.135   9.992 -0.1263 -0.3585  0.4634
    9CHL1   H2A  640   0.922   2.035  10.024  1.2804 -0.2220 -0.6743
    9CHL1   H2B  641   0.777   2.137   9.960  0.5892 -2.3161 -2.5571
    9CHL1   C20  642   1.323   2.600   9.302  0.0775 -0.4433 -0.9924
    9CHL1   H20  643   1.254   2.521   9.267 -0.6282  0.0208 -0.6803
    9CHL1   C21  644   1.464   2.543   9.298  0.1533  0.4505  0.3139
    9CHL1  H21A  645   1.497   2.515   9.196 -0.2677  1.3144 -0.0662
    9CHL1  H21B  646   1.470   2.449   9.356 -1.4830  2.2977  3.8583
    9CHL1  H21C  647   1.529   2.620   9.344 -0.2614  1.2560 -0.4087
    9CHL1   C22  648   1.292   2.724   9.212  0.2071 -0.8524  0.0914
    9CHL1  H22A  649   1.188   2.759   9.224  0.2922 -0.2718 -0.7840
    9CHL1  H22B  650   1.348   2.814   9.245  0.0324 -0.2527 -1.2040
    9CHL1   C23  651   1.318   2.709   9.060 -0.0165 -0.0473  0.5038
    9CHL1  H23A  652   1.329   2.809   9.014  4.2023 -1.7629 -2.9757
    9CHL1  H23B  653   1.416   2.666   9.031  0.0807 -0.4125  1.3349
    9CHL1   C24  654   1.205   2.645   8.985  1.0663  0.4240  0.2987
    9CHL1  H24A  655   1.195   2.543   9.029  1.6159  1.1429  2.1915
    9CHL1  H24B  656   1.116   2.711   8.985  1.4315  0.9235 -0.3046
    9CHL1   C25  657   1.218   2.610   8.839 -0.1951  0.3772  0.5155
    9CHL1   H25  658   1.130   2.545   8.818 -0.1593  0.7582 -0.9757
    9CHL1   C26  659   1.192   2.732   8.749 -0.3243  0.4004 -0.0714
    9CHL1  H26A  660   1.278   2.798   8.769 -0.2580  0.2967 -0.0098
    9CHL1  H26B  661   1.177   2.713   8.641  0.8810  0.3204 -0.2382
    9CHL1  H26C  662   1.103   2.791   8.779 -0.4459  0.6516 -0.9194
    9CHL1   C27  663   1.334   2.516   8.806 -0.1474  0.1282  0.4466
    9CHL1  H27A  664   1.424   2.542   8.865 -1.3530  0.6845  2.1086
    9CHL1  H27B  665   1.299   2.412   8.826 -0.5973 -0.2480 -1.9265
    9CHL1  H27C  666   1.351   2.521   8.696 -0.4319  2.1181  0.4645
   10CHL1    C3  667   0.719   3.620  10.005 -0.0391  0.9085  0.3903
   10CHL1    H3  668   0.609   3.610   9.991  0.2449 -2.5739 -0.1602
   10CHL1    O3  669   0.765   3.626  10.136  0.0082  0.2861 -0.4180
   10CHL1   H3'  670   0.859   3.607  10.138 -0.4197 -2.5323 -1.8679
   10CHL1    C4  671   0.779   3.489   9.938 -0.1469 -0.5373  0.0076
   10CHL1   H4A  672   0.886   3.480   9.966 -0.0002  3.4454  1.4151
   10CHL1   H4B  673   0.730   3.403   9.989  1.2849 -1.9075 -0.8542
   10CHL1    C5  674   0.769   3.485   9.790  0.2374 -0.5067 -0.1004
   10CHL1    C6  675   0.711   3.376   9.730 -0.3334 -0.1490 -0.7397
   10CHL1    H6  676   0.676   3.290   9.788 -1.1152  3.0713  4.1328
   10CHL1    C7  677   0.697   3.362   9.578 -0.6490 -0.4133 -0.2812
   10CHL1   H7A  678   0.748   3.267   9.549  0.5471  0.2867 -0.5438
   10CHL1   H7B  679   0.592   3.346   9.548 -0.4809  0.1463 -1.2059
   10CHL1    C8  680   0.774   3.467   9.493  0.7828  0.3264 -0.6413
   10CHL1    H8  681   0.883   3.448   9.491  0.9234  1.0616 -2.8987
   10CHL1   C14  682   0.719   3.476   9.350 -0.2098  0.0899  0.2423
   10CHL1   H14  683   0.613   3.510   9.360  0.7189  3.0648  0.9636
   10CHL1   C15  684   0.715   3.350   9.252  0.1746 -0.2448  0.2567
   10CHL1  H15A  685   0.824   3.324   9.250  0.3570  0.5057 -1.4510
   10CHL1  H15B  686   0.645   3.268   9.275 -0.1106 -0.0074  0.2328
   10CHL1   C16  687   0.672   3.414   9.118  0.2272 -0.3283 -0.7376
   10CHL1  H16A  688   0.732   3.386   9.029  0.0885 -1.3885 -0.5043
   10CHL1  H16B  689   0.568   3.397   9.084  0.6633 -1.6844 -1.4719
   10CHL1   C17  690   0.685   3.565   9.133  0.0691  0.0374 -0.1512
   10CHL1   H17  691   0.584   3.603   9.159  0.2693  1.9961 -2.0401
   10CHL1   C13  692   0.777   3.594   9.260  1.0638  0.1600  0.9318
   10CHL1   C18  693   0.921   3.574   9.228 -0.0501  0.0510 -0.0493
   10CHL1  H18A  694   0.945   3.476   9.181 -1.3169 -1.4961  2.3533
   10CHL1  H18B  695   0.942   3.650   9.150 -0.2603  0.1031 -0.0563
   10CHL1  H18C  696   0.995   3.579   9.311  0.2987 -0.4333 -0.3256
   10CHL1   C12  697   0.751   3.731   9.325  0.2830  0.2872 -0.1240
   10CHL1  H12A  698   0.783   3.808   9.251  1.2243 -1.6864 -1.8895
   10CHL1  H12B  699   0.641   3.737   9.339  0.6001  2.2650  2.1355
   10CHL1   C11  700   0.814   3.729   9.464 -0.0767 -0.0357  0.4517
   10CHL1  H11A  701   0.925   3.722   9.456 -0.0667  0.9126 -0.2912
   10CHL1  H11B  702   0.805   3.829   9.510 -0.1780 -0.8182  2.2345
   10CHL1    C9  703   0.758   3.607   9.557 -0.3900  0.6326  0.6513
   10CHL1    H9  704   0.647   3.616   9.563 -0.5142 -0.1802 -0.1659
   10CHL1   C10  705   0.807   3.609   9.706 -0.0229  0.8365 -0.3476
   10CHL1   C19  706   0.965   3.630   9.693  0.6038 -0.1879 -0.6273
   10CHL1  H19A  707   0.994   3.571   9.603 -1.8029 -3.2921  0.4873
   10CHL1  H19B  708   0.988   3.739   9.688  1.9021 -0.0390  4.0479
   10CHL1  H19C  709   1.021   3.589   9.779  1.2999 -0.9318 -1.4078
   10CHL1    C1  710   0.740   3.729   9.776  0.1240  0.2427 -0.1046
   10CHL1   H1A  711   0.766   3.824   9.724 -1.7471  0.1175 -1.3825
   10CHL1   H1B  712   0.630   3.738   9.761  0.2621 -0.0005 -1.3039
   10CHL1    C2  713   0.765   3.748   9.920  0.5700  0.0985 -0.0412
   10CHL1   H2A  714   0.710   3.838   9.958  0.8786 -0.1712  1.0837
   10CHL1   H2B  715   0.874   3.757   9.938  0.3770  2.3397  0.3774
   10CHL1   C20  716   0.712   3.644   9.001  0.0138  0.0085  0.0527
   10CHL1   H20  717   0.733   3.751   9.023  1.2837 -0.4203  1.0256
   10CHL1   C21  718   0.586   3.654   8.904 -0.5291 -0.3279 -0.2943
   10CHL1  H21A  719   0.610   3.715   8.814 -1.1334  0.8520  0.3191
   10CHL1  H21B  720   0.507   3.695   8.971 -0.1407 -0.0123 -0.0270
   10CHL1  H21C  721   0.556   3.553   8.869  0.9017 -1.8367  2.5265
   10CHL1   C22  722   0.829   3.596   8.914  0.3099  0.0723  0.3551
   10CHL1  H22A  723   0.907   3.542   8.972  0.3195  0.6187  0.8635
   10CHL1  H22B  724   0.799   3.520   8.839 -1.4326  0.6845  0.3780
   10CHL1   C23  725   0.893   3.714   8.839  0.9072  0.2390 -0.0211
   10CHL1  H23A  726   0.825   3.795   8.804  1.7168  1.0702  0.3083
   10CHL1  H23B  727   0.960   3.772   8.906 -0.7761  3.1327 -0.6475
   10CHL1   C24  728   0.996   3.670   8.731 -0.3496  0.1338 -0.0664
   10CHL1  H24A  729   1.055   3.587   8.777  0.5161  0.4805 -0.5272
   10CHL1  H24B  730   0.945   3.616   8.649  0.2133 -1.4688  0.5930
   10CHL1   C25  731   1.096   3.775   8.690 -0.4444 -0.1894 -0.3745
   10CHL1   H25  732   1.139   3.835   8.773  2.0131 -0.4333 -1.3863
   10CHL1   C26  733   1.214   3.708   8.619  1.1346  0.3450 -0.5838
   10CHL1  H26A  734   1.292   3.777   8.579  2.0008 -1.0580 -1.4031
   10CHL1  H26B  735   1.261   3.631   8.684  0.1638 -0.9967 -1.4212
   10CHL1  H26C  736   1.168   3.656   8.533  0.4456  1.3195 -0.8187
   10CHL1   C27  737   1.020   3.884   8.601 -0.7826  1.0162  0.7467
   10CHL1  H27A  738   1.090   3.955   8.552  1.0887 -0.9211  0.4706
   10CHL1  H27B  739   0.991   3.826   8.510  3.8495 -0.4352 -0.0348
   10CHL1  H27C  740   0.936   3.937   8.650  0.4615  0.7930  3.2951
   11CHL1    C3  741   1.820   1.139  10.239 -0.0431 -0.4351 -0.3809
   11CHL1    H3  742   1.844   1.246  10.258 -0.6893 -0.1415 -1.1670
   11CHL1    O3  743   1.833   1.075  10.359  0.3207  0.6575  0.3701
   11CHL1   H3'  744   1.926   1.080  10.385 -0.0911  1.2514  1.8161
   11CHL1    C4  745   1.673   1.113  10.182 -0.3906 -0.0554  0.4331
   11CHL1   H4A  746   1.640   1.007  10.194 -3.3913  0.7944  0.4483
   11CHL1   H4B  747   1.603   1.158  10.255 -1.2374  1.4457 -1.2385
   11CHL1    C5  748   1.647   1.150  10.039  0.7881 -0.1951 -0.4444
   11CHL1    C6  749   1.537   1.219  10.006  0.2489  0.2345 -0.2597
   11CHL1    H6  750   1.456   1.224  10.080  0.3794  1.5809 -0.1838
   11CHL1    C7  751   1.510   1.250   9.858  0.3855 -0.4494 -0.4169
   11CHL1   H7A  752   1.401   1.257   9.834  0.4133  0.1773 -0.3876
   11CHL1   H7B  753   1.554   1.350   9.838 -0.0071 -0.3196 -0.6402
   11CHL1    C8  754   1.588   1.161   9.757 -0.1753  0.3844  0.1821
   11CHL1    H8  755   1.541   1.060   9.761 -1.6289  1.0968  2.4682
   11CHL1   C14  756   1.569   1.206   9.606 -0.7648  0.2248  0.0454
   11CHL1   H14  757   1.606   1.310   9.621 -3.5486  1.1865  0.7651
   11CHL1   C15  758   1.436   1.207   9.544  0.0916  0.2662 -0.5648
   11CHL1  H15A  759   1.396   1.106   9.568  1.4715 -0.1364  0.1909
   11CHL1  H15B  760   1.375   1.294   9.577  1.2162  0.7640  0.2770
   11CHL1   C16  761   1.470   1.224   9.392  0.4616 -0.1719 -0.3651
   11CHL1  H16A  762   1.406   1.162   9.327 -1.1010  1.8474 -0.8418
   11CHL1  H16B  763   1.448   1.330   9.368  1.0687  0.9267  3.2791
   11CHL1   C17  764   1.623   1.210   9.374  0.2527 -0.4007  0.1859
   11CHL1   H17  765   1.667   1.309   9.399  0.7170 -0.3437 -0.8332
   11CHL1   C13  766   1.661   1.127   9.507 -0.0921 -0.5124 -0.2416
   11CHL1   C18  767   1.611   0.982   9.484 -0.0460  0.1439 -0.3723
   11CHL1  H18A  768   1.511   0.983   9.437 -0.2120 -1.1143 -0.0832
   11CHL1  H18B  769   1.688   0.940   9.416  1.6788  1.3165  0.7640
   11CHL1  H18C  770   1.608   0.930   9.583  0.9507  0.1855 -0.3065
   11CHL1   C12  771   1.808   1.133   9.554  0.0205  0.4299 -0.2872
   11CHL1  H12A  772   1.867   1.067   9.488 -2.1972 -0.0823 -1.8887
   11CHL1  H12B  773   1.852   1.234   9.542  3.6104 -0.9933 -0.1811
   11CHL1   C11  774   1.832   1.087   9.695 -0.2359 -0.2201  0.0539
   11CHL1  H11A  775   1.802   0.980   9.686  0.1526 -0.3266  0.0171
   11CHL1  H11B  776   1.936   1.097   9.732 -0.2957 -0.8455  0.4120
   11CHL1    C9  777   1.736   1.160   9.797  0.3326  0.2569 -0.7075
   11CHL1    H9  778   1.758   1.269   9.800 -3.1687  1.0609 -0.7788
   11CHL1   C10  779   1.758   1.106   9.937 -0.3638  0.3871 -0.5352
   11CHL1   C19  780   1.752   0.950   9.928  0.2367  0.5027  0.4652
   11CHL1  H19A  781   1.720   0.906  10.025 -3.1813  1.1658 -0.2060
   11CHL1  H19B  782   1.675   0.914   9.856  1.4785 -3.1533  0.7813
   11CHL1  H19C  783   1.840   0.899   9.883 -0.4026  1.1268 -1.6211
   11CHL1    C1  784   1.898   1.149   9.999  0.2713  0.2793  0.5127
   11CHL1   H1A  785   1.983   1.107   9.943 -1.0344 -2.0267  0.1064
   11CHL1   H1B  786   1.897   1.259  10.012 -0.0092  0.6633 -2.2149
   11CHL1    C2  787   1.922   1.084  10.138  0.7429  0.2286  0.2580
   11CHL1   H2A  788   2.023   1.108  10.179  0.3157 -0.1722  1.5815
   11CHL1   H2B  789   1.938   0.974  10.145  0.0151  0.2217  2.7556
   11CHL1   C20  790   1.659   1.166   9.233  0.6247  0.1325 -0.3458
   11CHL1   H20  791   1.646   1.057   9.217  1.0393  0.0027  0.1594
   11CHL1   C21  792   1.816   1.181   9.230  0.5494  0.2553  0.1514
   11CHL1  H21A  793   1.853   1.171   9.126  0.0744  0.7390 -0.0716
   11CHL1  H21B  794   1.865   1.089   9.268  2.5928  0.6250 -1.4003
   11CHL1  H21C  795   1.861   1.270   9.280  1.7509 -1.2777  1.9549
   11CHL1   C22  796   1.593   1.249   9.119  0.0321 -0.0920  0.5017
   11CHL1  H22A  797   1.487   1.281   9.127  0.9655  2.8765  3.1640
   11CHL1  H22B  798   1.643   1.348   9.115  2.0659 -1.0528  1.0165
   11CHL1   C23  799   1.602   1.188   8.973  0.3210  0.6962  0.0634
   11CHL1  H23A  800   1.709   1.176   8.945  0.1263  2.2102 -1.5180
   11CHL1  H23B  801   1.549   1.091   8.980  0.3117  0.6576 -0.4704
   11CHL1   C24  802   1.526   1.279   8.879  0.1478  0.6551  0.2650
   11CHL1  H24A  803   1.424   1.295   8.920  0.1387  2.0971 -0.2580
   11CHL1  H24B  804   1.581   1.375   8.891 -0.8401  1.2979 -0.1540
   11CHL1   C25  805   1.529   1.244   8.724 -0.0306 -0.0924  0.6969
   11CHL1   H25  806   1.491   1.140   8.712 -1.4224  0.6334 -2.5538
   11CHL1   C26  807   1.444   1.349   8.648  0.4036  0.0288  0.1768
   11CHL1  H26A  808   1.496   1.446   8.662 -0.4534  0.6103 -0.5550
   11CHL1  H26B  809   1.446   1.342   8.537 -2.1201  1.2026 -0.0100
   11CHL1  H26C  810   1.341   1.345   8.688  1.1572  1.2332  2.3854
   11CHL1   C27  811   1.666   1.266   8.658  0.1773 -0.8870  1.1278
   11CHL1  H27A  812   1.703   1.371   8.657  1.1319 -1.1916 -0.6615
   11CHL1  H27B  813   1.749   1.210   8.707  1.1450 -0.5896 -0.1061
   11CHL1  H27C  814   1.657   1.242   8.550  0.6563 -2.1431  1.3424
   12CHL1    C3  815   5.147   5.099  10.283 -0.0027 -0.0427  0.1947
   12CHL1    H3  816   5.256   5.118  10.272  0.5113 -2.5391  0.5370
   12CHL1    O3  817   5.123   5.107  10.422 -0.2053 -1.0242  0.8363
   12CHL1   H3'  818   5.161   5.024  10.453 -0.4133 -0.7121  1.9651
   12CHL1    C4  819   5.070   5.205  10.202 -0.0643 -0.4842  0.2321
   12CHL1   H4A  820   4.963   5.206  10.232 -0.3309  3.5007 -0.3684
   12CHL1   H4B  821   5.103   5.298  10.252 -0.0329 -0.1981 -0.3173
   12CHL1    C5  822   5.087   5.205  10.057  0.0228 -0.2011  0.4187
   12CHL1    C6  823   5.127   5.314   9.989 -0.3622 -0.7166 -0.4771
   12CHL1    H6  824   5.153   5.400  10.052  0.0514  0.4053 -2.1309
   12CHL1    C7  825   5.138   5.324   9.834  0.3113 -0.0456 -0.3835
   12CHL1   H7A  826   5.071   5.407   9.800 -1.4488 -0.8472  0.9521
   12CHL1   H7B  827   5.245   5.339   9.809 -0.0034 -0.1320 -1.8461
   12CHL1    C8  828   5.094   5.195   9.763  0.1132 -1.2124  1.0686
   12CHL1    H8  829   4.985   5.187   9.741  0.6708 -3.0071 -1.5830
   12CHL1   C14  830   5.175   5.183   9.636 -0.8898  0.2558  0.3208
   12CHL1   H14  831   5.281   5.164   9.664 -1.1464  2.0686  2.8516
   12CHL1   C15  832   5.184   5.304   9.546 -0.6360 -0.5424 -0.1036
   12CHL1  H15A  833   5.086   5.354   9.535  0.1346  1.2425  0.7234
   12CHL1  H15B  834   5.257   5.382   9.575  0.3698 -1.6666  0.4889
   12CHL1   C16  835   5.218   5.248   9.407 -0.5139  1.1845  0.1489
   12CHL1  H16A  836   5.147   5.283   9.329 -0.4444 -1.1790 -1.0700
   12CHL1  H16B  837   5.318   5.285   9.375  0.1702 -0.0275  0.7966
   12CHL1   C17  838   5.228   5.088   9.419  0.2356 -0.4104 -0.3173
   12CHL1   H17  839   5.326   5.059   9.462  0.4877 -0.0617 -0.6580
   12CHL1   C13  840   5.129   5.069   9.548 -0.6227  0.9209 -0.0442
   12CHL1   C18  841   4.978   5.086   9.503 -0.5319  0.0659 -0.6371
   12CHL1  H18A  842   4.948   5.020   9.419 -1.3273 -1.5888  0.8690
   12CHL1  H18B  843   4.915   5.064   9.592  0.0535 -0.9497 -0.4595
   12CHL1  H18C  844   4.960   5.188   9.462  0.0782  0.4296 -0.0191
   12CHL1   C12  845   5.139   4.940   9.618 -0.1229  0.6954 -0.1694
   12CHL1  H12A  846   5.082   4.855   9.574  2.8664 -1.4853 -0.1750
   12CHL1  H12B  847   5.241   4.896   9.616  0.0711  1.0824 -3.6622
   12CHL1   C11  848   5.080   4.942   9.763 -0.5039  0.3375  0.4124
   12CHL1  H11A  849   4.970   4.933   9.751 -0.1524 -1.4976 -2.1934
   12CHL1  H11B  850   5.103   4.852   9.825 -3.3887 -0.7225  0.0954
   12CHL1    C9  851   5.116   5.071   9.842  0.6879  0.1527 -0.6388
   12CHL1    H9  852   5.226   5.062   9.857  0.3487 -0.8300  1.7302
   12CHL1   C10  853   5.058   5.071   9.993 -0.0103 -0.3173  0.5336
   12CHL1   C19  854   4.907   5.040   9.996 -0.1657 -0.1252 -0.3319
   12CHL1  H19A  855   4.887   4.946   9.941 -0.0210 -1.1054  1.2394
   12CHL1  H19B  856   4.863   5.023  10.096  0.0915  1.3545  0.0648
   12CHL1  H19C  857   4.852   5.129   9.958 -0.1290 -0.1897 -0.5400
   12CHL1    C1  858   5.134   4.963  10.073 -0.2404  0.4812  0.6189
   12CHL1   H1A  859   5.112   4.864  10.028 -1.3090  1.1625 -0.4241
   12CHL1   H1B  860   5.239   4.983  10.045  0.0603  0.8263  1.9256
   12CHL1    C2  861   5.114   4.960  10.225  0.1698 -0.8095 -0.6716
   12CHL1   H2A  862   5.179   4.886  10.276  1.2550  1.2389  1.0727
   12CHL1   H2B  863   5.009   4.933  10.247 -0.4616  0.9470 -1.3785
   12CHL1   C20  864   5.196   5.014   9.297 -1.0467  0.5561 -0.6236
   12CHL1   H20  865   5.103   5.054   9.250 -1.3210 -0.1390 -0.6782
   12CHL1   C21  866   5.179   4.864   9.330  0.3154 -0.0602  0.3787
   12CHL1  H21A  867   5.081   4.836   9.373 -0.7218  0.6698 -1.4090
   12CHL1  H21B  868   5.266   4.832   9.392  0.7303  0.1118 -0.1123
   12CHL1  H21C  869   5.174   4.808   9.234  0.8796 -1.2056  0.9922
   12CHL1   C22  870   5.317   5.029   9.197 -0.6596 -0.1450 -0.1232
   12CHL1  H22A  871   5.337   5.138   9.195 -1.2808 -0.0003 -3.6700
   12CHL1  H22B  872   5.408   4.980   9.238  1.9150  2.6423 -2.0507
   12CHL1   C23  873   5.289   4.974   9.058 -0.1226  0.4839 -0.7604
   12CHL1  H23A  874   5.188   4.929   9.071 -0.3113  1.1262  0.1028
   12CHL1  H23B  875   5.264   5.051   8.981  0.1291 -0.8015 -2.1776
   12CHL1   C24  876   5.389   4.883   9.011 -0.5752  0.3614 -0.1012
   12CHL1  H24A  877   5.410   4.802   9.084 -1.4011  1.8306  1.8647
   12CHL1  H24B  878   5.363   4.841   8.911 -0.3296  2.4835 -1.1088
   12CHL1   C25  879   5.531   4.950   8.996 -0.1221 -0.2685 -0.3218
   12CHL1   H25  880   5.543   5.025   9.076 -0.7683  1.7245 -2.0092
   12CHL1   C26  881   5.645   4.849   8.995 -0.1558 -0.5738 -0.7984
   12CHL1  H26A  882   5.647   4.792   9.091  2.4905 -0.4218 -0.6860
   12CHL1  H26B  883   5.640   4.772   8.916  1.0342 -2.4579  0.8505
   12CHL1  H26C  884   5.743   4.901   8.991 -0.8833  0.8830 -0.4677
   12CHL1   C27  885   5.546   5.026   8.870 -0.1724  0.1928  0.5942
   12CHL1  H27A  886   5.484   5.118   8.865  1.8185  1.7031  2.0232
   12CHL1  H27B  887   5.653   5.056   8.865 -0.3850  0.9566  0.4935
   12CHL1  H27C  888   5.521   4.958   8.785  0.4452  3.3345 -2.3445
   13CHL1    C3  889   6.425   1.492   9.920 -0.3413 -0.2298  0.0268
   13CHL1    H3  890   6.324   1.470   9.880 -0.8542  0.6573  0.8051
   13CHL1    O3  891   6.450   1.420  10.040 -0.6901  0.2854  0.0868
   13CHL1   H3'  892   6.541   1.391  10.032 -1.2304 -1.0658 -1.6964
   13CHL1    C4  893   6.547   1.465   9.830  0.3588  0.3959 -0.2997
   13CHL1   H4A  894   6.643   1.476   9.884  0.4412 -0.0836 -0.3397
   13CHL1   H4B  895   6.527   1.360   9.798  0.0160  0.7783 -1.4054
   13CHL1    C5  896   6.550   1.549   9.702 -0.1453 -0.1700  0.4905
   13CHL1    C6  897   6.549   1.483   9.584  0.4809 -0.5094 -0.5413
   13CHL1    H6  898   6.544   1.373   9.583 -1.4963 -0.4544 -0.2819
   13CHL1    C7  899   6.529   1.551   9.449  0.2930 -1.3172  0.1052
   13CHL1   H7A  900   6.606   1.515   9.378  2.6222 -0.7420  2.1890
   13CHL1   H7B  901   6.427   1.535   9.408  0.3022 -1.0138 -0.0425
   13CHL1    C8  902   6.560   1.706   9.464  0.7584  0.2038 -0.2840
   13CHL1    H8  903   6.668   1.725   9.476  0.9887 -1.2687  0.1754
   13CHL1   C14  904   6.507   1.774   9.341 -0.2889 -0.8348 -0.2158
   13CHL1   H14  905   6.397   1.762   9.344 -0.9350  3.5041 -0.1352
   13CHL1   C15  906   6.567   1.727   9.204  0.2310 -0.7129  0.5849
   13CHL1  H15A  907   6.677   1.718   9.204  0.4794  1.3288 -1.8738
   13CHL1  H15B  908   6.522   1.632   9.167  3.3327 -1.2575 -2.2347
   13CHL1   C16  909   6.533   1.840   9.109 -0.0452  0.3234  0.4840
   13CHL1  H16A  910   6.622   1.867   9.049 -0.3592  0.8827  0.2613
   13CHL1  H16B  911   6.459   1.792   9.042  0.0703 -0.6014  1.0029
   13CHL1   C17  912   6.476   1.955   9.192  0.3996  0.5747  0.2979
   13CHL1   H17  913   6.367   1.932   9.192  0.6711 -1.2576 -2.5489
   13CHL1   C13  914   6.527   1.931   9.328 -0.3933  0.0270 -0.1213
   13CHL1   C18  915   6.676   1.967   9.338 -0.3311 -0.7252  0.3225
   13CHL1  H18A  916   6.737   1.947   9.247 -0.2560 -1.9700  0.6210
   13CHL1  H18B  917   6.682   2.075   9.362 -1.8543 -0.3793 -0.7089
   13CHL1  H18C  918   6.723   1.921   9.428 -1.1748  1.8720  2.2080
   13CHL1   C12  919   6.443   1.981   9.449 -0.1008 -0.5568  0.2763
   13CHL1  H12A  920   6.437   2.092   9.451 -1.5207 -0.5970 -0.6408
   13CHL1  H12B  921   6.337   1.951   9.446  0.0954 -1.1915 -0.7028
   13CHL1   C11  922   6.494   1.921   9.583 -0.5250  0.5976 -0.0750
   13CHL1  H11A  923   6.600   1.944   9.607 -1.5783  2.8029  3.1831
   13CHL1  H11B  924   6.434   1.954   9.670 -0.4649  0.8090 -0.1115
   13CHL1    C9  925   6.485   1.765   9.587  0.7495 -0.0255 -0.4255
   13CHL1    H9  926   6.377   1.747   9.568  0.4405  0.6846  0.5641
   13CHL1   C10  927   6.528   1.703   9.720 -0.1988 -0.4561  0.1950
   13CHL1   C19  928   6.670   1.769   9.764  1.0575  0.7018 -0.0405
   13CHL1  H19A  929   6.734   1.765   9.673 -1.1988 -2.2931 -1.6657
   13CHL1  H19B  930   6.649   1.871   9.803 -1.1569  0.1311  0.3552
   13CHL1  H19C  931   6.727   1.716   9.843  2.3151  0.4792 -1.0641
   13CHL1    C1  932   6.417   1.730   9.824 -0.6164  0.4512  0.6628
   13CHL1   H1A  933   6.423   1.838   9.847 -1.5981  0.8286 -0.7427
   13CHL1   H1B  934   6.319   1.701   9.780 -0.5902  0.6863  0.4529
   13CHL1    C2  935   6.435   1.648   9.951 -0.1872  0.1957 -0.0014
   13CHL1   H2A  936   6.357   1.672  10.026  0.7487  1.5831  0.5760
   13CHL1   H2B  937   6.538   1.663   9.992 -0.0650 -0.5406 -0.0309
   13CHL1   C20  938   6.478   2.089   9.113  0.1622 -0.2580 -0.0240
   13CHL1   H20  939   6.582   2.124   9.131 -0.2637  1.5596 -0.9159
   13CHL1   C21  940   6.391   2.200   9.184 -0.7581  0.2581  0.7295
   13CHL1  H21A  941   6.447   2.260   9.259  0.2885 -1.1336  1.0959
   13CHL1  H21B  942   6.298   2.164   9.233  0.5895 -1.0937  2.4136
   13CHL1  H21C  943   6.369   2.276   9.106  1.0536  1.3351  1.2230
   13CHL1   C22  944   6.444   2.083   8.964  0.5079  0.3105  0.2787
   13CHL1  H22A  945   6.470   2.181   8.919  0.1580 -0.0044 -0.6361
   13CHL1  H22B  946   6.507   2.006   8.914 -0.1338  0.5271 -0.9179
   13CHL1   C23  947   6.297   2.034   8.933  0.0002  0.6639 -0.1092
   13CHL1  H23A  948   6.273   1.934   8.976  0.0879  0.6285 -0.1427
   13CHL1  H23B  949   6.229   2.087   9.003 -0.9692 -2.6785  1.7104
   13CHL1   C24  950   6.257   2.028   8.787  0.1715  0.0547  0.2240
   13CHL1  H24A  951   6.318   1.950   8.737  2.0244 -0.5844  3.2274
   13CHL1  H24B  952   6.156   1.983   8.782  0.7304 -1.2007 -0.2231
   13CHL1   C25  953   6.266   2.158   8.725 -0.3329 -0.2298  0.5993
   13CHL1   H25  954   6.365   2.207   8.738 -1.1586  1.0986  2.2063
   13CHL1   C26  955   6.245   2.144   8.576 -0.8479 -0.1699  0.4195
   13CHL1  H26A  956   6.312   2.069   8.529 -1.7541  0.6029 -2.2795
   13CHL1  H26B  957   6.136   2.122   8.575 -0.2460 -3.8951  0.1835
   13CHL1  H26C  958   6.270   2.243   8.533  3.4495 -1.4876 -0.6888
   13CHL1   C27  959   6.167   2.259   8.780  0.0912  0.4390  0.6784
   13CHL1  H27A  960   6.186   2.348   8.715 -0.0008 -0.8511 -1.2212
   13CHL1  H27B  961   6.063   2.221   8.774 -0.2319  1.3716  0.1700
   13CHL1  H27C  962   6.191   2.277   8.887  0.3505  0.2349  0.6544
   14CHL1    C3  963   3.251   4.064  10.374 -0.0021 -0.3972  0.7585
   14CHL1    H3  964   3.286   4.169  10.378 -1.8784  0.2885  0.2368
   14CHL1    O3  965   3.213   4.020  10.501 -0.3322  0.0686 -0.4514
   14CHL1   H3'  966   3.151   3.948  10.488  0.5175 -0.7245 -0.2305
   14CHL1    C4  967   3.123   4.037  10.290  0.2018  0.2719 -0.0485
   14CHL1   H4A  968   3.080   3.940  10.324 -0.1700  0.4630  0.0279
   14CHL1   H4B  969   3.050   4.113  10.323 -1.1350 -0.5475 -1.0274
   14CHL1    C5  970   3.152   4.041  10.140 -0.0016  0.1310 -0.0266
   14CHL1    C6  971   3.073   4.121  10.063  0.5813 -0.6469 -0.2980
   14CHL1    H6  972   2.998   4.183  10.115  1.6323  0.6034 -0.2238
   14CHL1    C7  973   3.088   4.133   9.918 -0.6534 -0.7661 -0.0288
   14CHL1   H7A  974   2.993   4.138   9.860 -1.5191  0.8614  1.4493
   14CHL1   H7B  975   3.154   4.221   9.903  3.4616 -3.2311  1.7487
   14CHL1    C8  976   3.174   4.024   9.853 -0.1414 -0.0842 -0.6260
   14CHL1    H8  977   3.107   3.936   9.858  0.1726 -0.2462  2.9959
   14CHL1   C14  978   3.207   4.059   9.716  0.1968  0.0689  1.2693
   14CHL1   H14  979   3.282   4.141   9.709  2.3334 -1.8255  0.7289
   14CHL1   C15  980   3.095   4.102   9.613  0.2451 -0.1306 -0.3801
   14CHL1  H15A  981   3.008   4.034   9.628  2.8532 -3.3727  1.7280
   14CHL1  H15B  982   3.069   4.207   9.636  1.2077  0.2739 -1.0845
   14CHL1   C16  983   3.150   4.076   9.468  0.1216  0.2933 -0.7726
   14CHL1  H16A  984   3.073   4.043   9.395  1.1743  1.0505 -2.2676
   14CHL1  H16B  985   3.183   4.176   9.434 -1.2498  0.9177 -0.3455
   14CHL1   C17  986   3.283   3.991   9.489  0.2296  0.3010  0.8058
   14CHL1   H17  987   3.371   4.058   9.489  0.0951  0.7132 -3.2209
   14CHL1   C13  988   3.271   3.938   9.639  0.0641 -0.6501 -0.6938
   14CHL1   C18  989   3.180   3.811   9.648  0.1004  0.0614  0.1568
   14CHL1  H18A  990   3.073   3.824   9.620  0.2503 -0.2361 -0.5781
   14CHL1  H18B  991   3.234   3.728   9.598 -0.9989  0.1848 -1.3042
   14CHL1  H18C  992   3.175   3.776   9.753  2.6968  1.7491  0.9603
   14CHL1   C12  993   3.401   3.912   9.721  0.1393 -0.6125 -0.2289
   14CHL1  H12A  994   3.452   3.833   9.662  0.0053  0.2001 -1.4610
   14CHL1  H12B  995   3.460   4.004   9.704 -0.5140 -0.2709 -0.6904
   14CHL1   C11  996   3.379   3.878   9.869  0.2491  0.5363 -0.3274
   14CHL1  H11A  997   3.319   3.785   9.878 -0.5082  0.9921 -0.5516
   14CHL1  H11B  998   3.472   3.859   9.926  1.1762  0.8994 -1.6588
   14CHL1    C9  999   3.294   3.985   9.937  0.3706 -0.8605  0.3168
   14CHL1    H9 1000   3.357   4.077   9.932 -1.4603  0.4550  0.2140
   14CHL1   C10 1001   3.268   3.958  10.084  0.2364 -0.4506 -0.3708
   14CHL1   C19 1002   3.231   3.807  10.101 -0.1044  0.4714  0.3967
   14CHL1  H19A 1003   3.143   3.786  10.037  0.6309 -1.2931 -0.0951
   14CHL1  H19B 1004   3.312   3.734  10.078  1.6704  2.8630 -1.5431
   14CHL1  H19C 1005   3.190   3.791  10.203  0.4583  2.1573  0.9299
   14CHL1    C1 1006   3.386   3.996  10.175 -1.2856 -0.0980  0.6917
   14CHL1   H1A 1007   3.475   3.937  10.144 -1.4307  1.1173 -2.3775
   14CHL1   H1B 1008   3.423   4.099  10.156 -0.8117 -0.4239 -0.2359
   14CHL1    C2 1009   3.367   3.979  10.322  0.2181 -0.2102 -0.4572
   14CHL1   H2A 1010   3.459   4.014  10.373 -0.8837  2.1371  0.0875
   14CHL1   H2B 1011   3.346   3.873  10.345 -0.2611 -0.4641 -1.9695
   14CHL1   C20 1012   3.307   3.889   9.376 -0.3239 -0.5312 -0.2470
   14CHL1   H20 1013   3.255   3.798   9.414 -0.9794  0.6622  1.9065
   14CHL1   C21 1014   3.457   3.863   9.366  0.0200  0.4893  0.0241
   14CHL1  H21A 1015   3.518   3.946   9.324  0.9692 -1.3211 -2.3809
   14CHL1  H21B 1016   3.480   3.774   9.304 -2.2589  0.6005 -1.0782
   14CHL1  H21C 1017   3.495   3.844   9.469 -1.4338  0.8176  0.6476
   14CHL1   C22 1018   3.245   3.921   9.235 -0.5924  0.4756 -0.5387
   14CHL1  H22A 1019   3.264   3.827   9.180  0.8255 -0.8169  1.9657
   14CHL1  H22B 1020   3.134   3.919   9.239 -0.6304 -3.0522 -0.8729
   14CHL1   C23 1021   3.291   4.054   9.168 -0.3133 -1.0519  0.2344
   14CHL1  H23A 1022   3.275   4.139   9.237  0.0281 -0.5902 -0.2480
   14CHL1  H23B 1023   3.399   4.048   9.144  0.0074 -1.1730  1.6313
   14CHL1   C24 1024   3.211   4.078   9.043 -0.4469 -0.7115  0.7320
   14CHL1  H24A 1025   3.235   4.006   8.962 -0.5733 -1.1332  1.0640
   14CHL1  H24B 1026   3.102   4.071   9.063 -0.5017  2.5550  2.2050
   14CHL1   C25 1027   3.210   4.223   8.993 -0.3281  0.8764 -0.0027
   14CHL1   H25 1028   3.166   4.275   9.081 -1.8594 -2.1215  1.1485
   14CHL1   C26 1029   3.346   4.281   8.973  0.0671  0.3548  0.5654
   14CHL1  H26A 1030   3.328   4.390   8.966  0.2177  0.3784  0.5262
   14CHL1  H26B 1031   3.422   4.258   9.051  1.2618 -0.4148 -0.7665
   14CHL1  H26C 1032   3.385   4.249   8.873 -0.4766 -1.0523  0.7733
   14CHL1   C27 1033   3.110   4.247   8.879  0.3598  0.0303  0.6595
   14CHL1  H27A 1034   3.124   4.181   8.791  3.3090  0.6767  0.5522
   14CHL1  H27B 1035   3.005   4.246   8.916 -0.0279  1.5641 -0.2413
   14CHL1  H27C 1036   3.126   4.350   8.839 -1.1514  0.3394  0.7681
   15CHL1    C3 1037   2.653   2.984  10.452  0.5874 -0.0733  0.8429
   15CHL1    H3 1038   2.543   2.990  10.464  0.1146 -1.4922 -2.0719
   15CHL1    O3 1039   2.721   3.001  10.574 -0.3040  0.7411  0.9197
   15CHL1   H3' 1040   2.690   3.087  10.602  0.4231  1.5430 -0.6017
   15CHL1    C4 1041   2.691   2.847  10.397 -0.8859 -0.0256  0.1617
   15CHL1   H4A 1042   2.802   2.844  10.394 -0.8362  0.9817  0.5511
   15CHL1   H4B 1043   2.659   2.770  10.471 -0.4995  1.8949  2.4350
   15CHL1    C5 1044   2.627   2.829  10.258  0.7063  0.4459 -0.1510
   15CHL1    C6 1045   2.543   2.722  10.247  0.6565 -0.5067 -0.0595
   15CHL1    H6 1046   2.523   2.657  10.334  1.3193 -0.0770  0.4242
   15CHL1    C7 1047   2.478   2.690  10.120  0.1855 -0.4880 -0.2089
   15CHL1   H7A 1048   2.489   2.583  10.095 -2.2601 -0.7195 -0.5610
   15CHL1   H7B 1049   2.368   2.707  10.120  0.2791  0.6483 -3.0510
   15CHL1    C8 1050   2.533   2.768   9.998  0.1539 -0.1422  0.7759
   15CHL1    H8 1051   2.629   2.721   9.968 -0.1542 -0.0628 -0.4040
   15CHL1   C14 1052   2.435   2.756   9.886 -0.4341  0.1607  0.2092
   15CHL1   H14 1053   2.345   2.809   9.925 -0.7739  0.0355 -0.4076
   15CHL1   C15 1054   2.385   2.620   9.844 -0.5969  0.0755 -0.1770
   15CHL1  H15A 1055   2.466   2.545   9.837 -0.2920  0.5449 -2.3694
   15CHL1  H15B 1056   2.300   2.588   9.909 -0.8893 -2.2145 -1.5726
   15CHL1   C16 1057   2.341   2.632   9.700  0.0767  0.2257  0.5511
   15CHL1  H16A 1058   2.413   2.590   9.626  2.2512  1.4492  1.8542
   15CHL1  H16B 1059   2.243   2.583   9.690  0.1498  0.0027  0.9181
   15CHL1   C17 1060   2.353   2.785   9.678  0.3756  0.3301 -0.1555
   15CHL1   H17 1061   2.258   2.820   9.724 -0.8785 -0.7231 -1.8247
   15CHL1   C13 1062   2.469   2.832   9.759  0.4753 -0.5130 -0.6192
   15CHL1   C18 1063   2.610   2.793   9.703  0.0859 -0.0823  0.6307
   15CHL1  H18A 1064   2.630   2.875   9.630 -2.1964  1.0447  1.1748
   15CHL1  H18B 1065   2.696   2.794   9.774  1.8307  2.1934 -1.3374
   15CHL1  H18C 1066   2.592   2.698   9.649 -0.7705  1.8886 -2.8722
   15CHL1   C12 1067   2.474   2.981   9.799  0.5087 -0.1922 -0.2229
   15CHL1  H12A 1068   2.498   3.030   9.703 -0.9381 -0.0758 -0.5510
   15CHL1  H12B 1069   2.368   3.007   9.823 -0.9777 -0.0507 -5.5953
   15CHL1   C11 1070   2.581   3.009   9.906 -0.6501 -0.0693 -0.0356
   15CHL1  H11A 1071   2.684   2.990   9.868 -0.0535 -1.6432  2.1470
   15CHL1  H11B 1072   2.576   3.116   9.936  3.9595  1.3997 -3.2795
   15CHL1    C9 1073   2.559   2.915  10.032  0.0161  0.0929  0.0959
   15CHL1    H9 1074   2.459   2.946  10.069 -0.1091  0.9949 -0.9578
   15CHL1   C10 1075   2.654   2.936  10.152  0.4176 -0.0571  0.6028
   15CHL1   C19 1076   2.802   2.909  10.111 -0.0645  0.0094 -0.3043
   15CHL1  H19A 1077   2.817   2.802  10.086  2.2126  0.3583 -0.6533
   15CHL1  H19B 1078   2.815   2.974  10.021 -4.8150  2.1397  0.2253
   15CHL1  H19C 1079   2.876   2.945  10.186 -1.1121  1.4187  0.1081
   15CHL1    C1 1080   2.632   3.075  10.215 -0.5024 -0.2284  0.0229
   15CHL1   H1A 1081   2.671   3.153  10.146  1.5839 -1.2464 -0.0279
   15CHL1   H1B 1082   2.522   3.086  10.213 -0.6068 -0.9931  1.2223
   15CHL1    C2 1083   2.696   3.091  10.356 -0.1807 -0.6352  0.0202
   15CHL1   H2A 1084   2.664   3.185  10.405  1.7352  0.2589 -0.3260
   15CHL1   H2B 1085   2.806   3.106  10.356 -0.0731 -1.3818 -0.0277
   15CHL1   C20 1086   2.349   2.830   9.532 -0.2067 -0.1900 -0.6625
   15CHL1   H20 1087   2.453   2.852   9.502 -0.4052 -0.2460 -1.4068
   15CHL1   C21 1088   2.280   2.967   9.508 -0.4296  0.8223 -0.6410
   15CHL1  H21A 1089   2.175   2.956   9.541  0.0223  1.4927  1.1719
   15CHL1  H21B 1090   2.289   2.998   9.402  0.9351  1.6260 -0.3159
   15CHL1  H21C 1091   2.329   3.042   9.573 -0.1251 -2.5889  3.5670
   15CHL1   C22 1092   2.292   2.728   9.426  0.3251 -0.0317  0.3558
   15CHL1  H22A 1093   2.305   2.772   9.325 -0.7311 -0.3061  0.0880
   15CHL1  H22B 1094   2.353   2.635   9.423  0.0160 -0.2529  0.8029
   15CHL1   C23 1095   2.143   2.699   9.446 -0.5688 -0.3441 -0.2329
   15CHL1  H23A 1096   2.128   2.607   9.506  1.4047  0.4870  1.6681
   15CHL1  H23B 1097   2.077   2.774   9.495 -1.6497 -1.0085 -0.6425
   15CHL1   C24 1098   2.081   2.661   9.310  0.8397 -0.1675 -0.5543
   15CHL1  H24A 1099   2.102   2.747   9.243  2.8011  0.6662  1.0224
   15CHL1  H24B 1100   2.124   2.567   9.269  0.8545 -0.4031 -0.0177
   15CHL1   C25 1101   1.928   2.652   9.309 -0.2593 -0.0905  0.1744
   15CHL1   H25 1102   1.894   2.754   9.338 -1.1956  0.1648 -1.6498
   15CHL1   C26 1103   1.887   2.621   9.161 -0.0556  0.0515 -0.2659
   15CHL1  H26A 1104   1.778   2.640   9.156  0.4166  3.3370 -0.1138
   15CHL1  H26B 1105   1.941   2.694   9.096  2.0473 -0.0306  1.2715
   15CHL1  H26C 1106   1.922   2.526   9.115  1.2917 -0.0583  0.9120
   15CHL1   C27 1107   1.881   2.540   9.407 -0.8717 -0.3144  0.4169
   15CHL1  H27A 1108   1.770   2.530   9.410 -0.7346 -1.7738  1.9343
   15CHL1  H27B 1109   1.934   2.445   9.384 -1.6087 -1.5303  3.3703
   15CHL1  H27C 1110   1.910   2.567   9.510  0.0916  1.9228 -0.3754
   16CHL1    C3 1111   3.849   3.743  10.505 -0.2440 -0.2313  0.3783
   16CHL1    H3 1112   3.874   3.845  10.470  1.6052 -0.5173  0.7598
   16CHL1    O3 1113   3.824   3.762  10.645  0.1998 -0.2498  0.1733
   16CHL1   H3' 1114   3.906   3.797  10.681  0.1541  0.9414 -0.8036
   16CHL1    C4 1115   3.721   3.690  10.438 -0.0186  0.1193 -0.0523
   16CHL1   H4A 1116   3.701   3.597  10.495  1.7843  0.8259  1.8665
   16CHL1   H4B 1117   3.637   3.760  10.461 -0.9366 -0.7752 -0.6040
   16CHL1    C5 1118   3.732   3.658  10.290 -0.6977  0.5399 -0.0771
   16CHL1    C6 1119   3.660   3.701  10.189  0.4088 -0.1969 -0.0294
   16CHL1    H6 1120   3.579   3.768  10.221 -1.7580 -2.9921  0.7585
   16CHL1    C7 1121   3.679   3.663  10.050  0.1845  0.0093  0.5385
   16CHL1   H7A 1122   3.581   3.640  10.004  0.7960  0.1430 -0.8962
   16CHL1   H7B 1123   3.714   3.757  10.002  0.9035 -1.0109 -0.9915
   16CHL1    C8 1124   3.773   3.545  10.021 -0.3706 -0.7537  0.1508
   16CHL1    H8 1125   3.719   3.451  10.043 -1.2880 -1.0196 -2.8508
   16CHL1   C14 1126   3.812   3.560   9.876 -0.4609  0.5501 -0.4830
   16CHL1   H14 1127   3.851   3.664   9.875 -0.1976  0.4591  0.0726
   16CHL1   C15 1128   3.696   3.564   9.780  0.2981  0.8671  0.2531
   16CHL1  H15A 1129   3.628   3.476   9.785 -0.8187  1.3570 -3.3814
   16CHL1  H15B 1130   3.630   3.653   9.789  1.4852  1.5973  2.6862
   16CHL1   C16 1131   3.776   3.557   9.646 -0.5421  0.4189 -0.2149
   16CHL1  H16A 1132   3.726   3.488   9.575  0.3999 -0.6614  0.1453
   16CHL1  H16B 1133   3.781   3.657   9.598  0.0504  0.7009  0.4176
   16CHL1   C17 1134   3.919   3.510   9.677  0.3319 -0.6056 -0.8428
   16CHL1   H17 1135   3.988   3.597   9.673  0.3780 -0.6345 -0.6969
   16CHL1   C13 1136   3.916   3.465   9.820  0.3405  0.3011 -0.5742
   16CHL1   C18 1137   3.872   3.319   9.816  0.6784  0.2607  0.3549
   16CHL1  H18A 1138   3.962   3.254   9.822  0.9479  0.5335 -0.6097
   16CHL1  H18B 1139   3.820   3.298   9.913 -2.4136  3.6083 -0.3625
   16CHL1  H18C 1140   3.802   3.292   9.734  0.7460 -0.1398  0.4247
   16CHL1   C12 1141   4.041   3.488   9.908 -0.1653 -0.4794 -0.0880
   16CHL1  H12A 1142   4.126   3.423   9.878 -0.4516  0.9003 -4.5793
   16CHL1  H12B 1143   4.080   3.590   9.889 -2.4910  0.6647  0.8362
   16CHL1   C11 1144   4.012   3.471  10.059  0.3644 -0.6238  0.3269
   16CHL1  H11A 1145   4.007   3.363  10.082  0.8674 -0.6442  0.3467
   16CHL1  H11B 1146   4.107   3.506  10.105  0.1397  0.6404 -0.1133
   16CHL1    C9 1147   3.893   3.564  10.103  0.0268 -0.1302  0.1151
   16CHL1    H9 1148   3.931   3.665  10.077  0.8951 -0.6096 -0.5260
   16CHL1   C10 1149   3.859   3.572  10.255  0.7707 -0.2290 -0.1357
   16CHL1   C19 1150   3.834   3.422  10.296  0.2819  0.0512 -0.7030
   16CHL1  H19A 1151   3.763   3.376  10.223  0.9253  0.8303 -1.8548
   16CHL1  H19B 1152   3.924   3.358  10.290  1.1551  1.0139  1.2750
   16CHL1  H19C 1153   3.804   3.415  10.402  0.9321 -2.1927 -0.6259
   16CHL1    C1 1154   3.984   3.618  10.332 -0.1555  0.3679 -0.7856
   16CHL1   H1A 1155   4.054   3.531  10.333 -2.7556 -1.8577 -0.5353
   16CHL1   H1B 1156   4.025   3.705  10.277 -0.1667 -1.3371 -3.7184
   16CHL1    C2 1157   3.963   3.650  10.471  0.0092  0.4800 -0.8720
   16CHL1   H2A 1158   4.055   3.696  10.513  0.0873  1.0112 -1.5970
   16CHL1   H2B 1159   3.942   3.557  10.528  0.0018  1.1915  0.3272
   16CHL1   C20 1160   3.978   3.412   9.572 -0.9387  0.4755 -0.4723
   16CHL1   H20 1161   3.915   3.320   9.567 -0.0879 -0.0811 -1.7049
   16CHL1   C21 1162   4.121   3.357   9.592 -0.2417 -0.2491  0.0201
   16CHL1  H21A 1163   4.117   3.283   9.675 -1.0657 -1.0649 -0.7296
   16CHL1  H21B 1164   4.185   3.446   9.613  0.2882 -0.6086 -0.0503
   16CHL1  H21C 1165   4.172   3.317   9.502 -0.7601 -1.3482  0.2098
   16CHL1   C22 1166   3.980   3.481   9.434  0.0092  0.0180  0.5058
   16CHL1  H22A 1167   3.894   3.551   9.424  0.4456  1.1416  3.5074
   16CHL1  H22B 1168   4.066   3.547   9.412 -1.0251  0.2689 -3.6739
   16CHL1   C23 1169   3.954   3.383   9.316  0.5750  0.8162  0.5058
   16CHL1  H23A 1170   4.043   3.317   9.305  1.0603  1.5115  0.0792
   16CHL1  H23B 1171   3.876   3.311   9.347  2.5176 -0.1587  3.5942
   16CHL1   C24 1172   3.937   3.450   9.182  0.1557  0.1820 -0.6379
   16CHL1  H24A 1173   3.844   3.510   9.174  0.6245  0.9295 -0.5951
   16CHL1  H24B 1174   4.029   3.509   9.163 -0.5858  1.7721  0.4529
   16CHL1   C25 1175   3.927   3.362   9.052 -0.2557 -0.0561  0.1425
   16CHL1   H25 1176   3.836   3.298   9.065  1.1675 -1.9991  1.0585
   16CHL1   C26 1177   3.915   3.446   8.931  0.4670  0.8833  0.5206
   16CHL1  H26A 1178   3.907   3.375   8.845  3.6042  1.8192 -0.6850
   16CHL1  H26B 1179   3.827   3.513   8.943 -0.7981 -0.6097  0.0576
   16CHL1  H26C 1180   4.005   3.511   8.923  1.5047 -0.4943  0.5759
   16CHL1   C27 1181   4.050   3.267   9.022  0.0497  0.3535  0.4835
   16CHL1  H27A 1182   4.034   3.202   8.934 -0.1534  3.2178 -1.7356
   16CHL1  H27B 1183   4.138   3.331   9.001  0.1235 -0.8740 -3.8395
   16CHL1  H27C 1184   4.071   3.208   9.114  1.6236  0.0814 -0.0296
   17CHL1    C3 1185   1.310   5.750  10.313 -0.4392  0.4246 -0.2853
   17CHL1    H3 1186   1.252   5.661  10.281 -0.0160  0.8288 -2.2544
   17CHL1    O3 1187   1.330   5.747  10.453  0.4946 -0.0900  0.4133
   17CHL1   H3' 1188   1.376   5.829  10.469 -0.0685  1.2322 -3.5390
   17CHL1    C4 1189   1.444   5.741  10.242 -0.3496  0.1537  0.0891
   17CHL1   H4A 1190   1.516   5.821  10.268 -0.4171  0.8625 -1.7423
   17CHL1   H4B 1191   1.484   5.646  10.282 -0.2381 -0.3933 -1.2631
   17CHL1    C5 1192   1.418   5.744  10.091  0.1552  0.4504 -0.0839
   17CHL1    C6 1193   1.471   5.647  10.015 -0.3614 -0.0483 -0.1584
   17CHL1    H6 1194   1.527   5.565  10.064 -0.4054  0.6409  1.0913
   17CHL1    C7 1195   1.467   5.648   9.870 -0.0154 -1.0594 -0.5470
   17CHL1   H7A 1196   1.570   5.629   9.834  1.2678 -0.8178  2.6865
   17CHL1   H7B 1197   1.406   5.560   9.838 -1.7030 -0.7401  1.5780
   17CHL1    C8 1198   1.413   5.777   9.808 -0.2546 -0.1871 -0.0001
   17CHL1    H8 1199   1.494   5.852   9.803 -1.1527  0.7099 -1.4599
   17CHL1   C14 1200   1.367   5.742   9.663 -0.0260  0.2319 -0.5245
   17CHL1   H14 1201   1.284   5.669   9.673  0.2646 -0.0598 -0.1926
   17CHL1   C15 1202   1.472   5.676   9.572  0.2970 -0.1681 -0.0028
   17CHL1  H15A 1203   1.574   5.721   9.579  0.0248  0.2972  1.0432
   17CHL1  H15B 1204   1.480   5.572   9.610 -0.2751 -0.1000  0.3029
   17CHL1   C16 1205   1.410   5.696   9.429  0.0694  0.0729 -0.4094
   17CHL1  H16A 1206   1.484   5.744   9.363  0.3331  0.5018  0.1891
   17CHL1  H16B 1207   1.374   5.600   9.386 -0.2104  0.9300 -2.1492
   17CHL1   C17 1208   1.280   5.784   9.441 -0.4223 -0.6068 -0.1365
   17CHL1   H17 1209   1.203   5.710   9.471  0.8109 -2.8349 -2.0497
   17CHL1   C13 1210   1.304   5.855   9.584  0.7166 -0.2361  0.3363
   17CHL1   C18 1211   1.411   5.966   9.561 -0.2111 -1.0014 -0.5274
   17CHL1  H18A 1212   1.355   6.058   9.535  0.5145 -0.4330 -0.0981
   17CHL1  H18B 1213   1.454   5.999   9.658 -1.5651  2.9886 -1.0930
   17CHL1  H18C 1214   1.502   5.950   9.498  1.7455 -1.3412  2.2022
   17CHL1   C12 1215   1.178   5.904   9.663 -0.2153  1.0182 -0.1839
   17CHL1  H12A 1216   1.145   5.994   9.606  0.5971  0.9689 -0.7462
   17CHL1  H12B 1217   1.100   5.826   9.663 -1.4815  2.2465  0.0714
   17CHL1   C11 1218   1.217   5.942   9.805  0.3222 -0.4659  0.6118
   17CHL1  H11A 1219   1.287   6.028   9.796  0.3758 -0.6623 -1.5703
   17CHL1  H11B 1220   1.129   5.982   9.859  0.7365  0.1221  0.8699
   17CHL1    C9 1221   1.284   5.825   9.883  0.0669  0.4602 -0.2211
   17CHL1    H9 1222   1.221   5.733   9.878  1.5218 -0.6355  0.7102
   17CHL1   C10 1223   1.330   5.852  10.034  0.3283 -0.0135 -0.1238
   17CHL1   C19 1224   1.411   5.985  10.031  0.5398  0.4409 -0.4846
   17CHL1  H19A 1225   1.467   5.999  10.126 -0.5640 -0.1905  0.2767
   17CHL1  H19B 1226   1.482   5.999   9.946  1.3836 -0.3990  0.0638
   17CHL1  H19C 1227   1.346   6.075  10.035  2.4263  1.8147  1.5284
   17CHL1    C1 1228   1.203   5.861  10.116 -0.7728  0.2932 -0.1181
   17CHL1   H1A 1229   1.153   5.953  10.080 -0.0441  1.1131  0.8862
   17CHL1   H1B 1230   1.135   5.776  10.096 -0.9948  0.8958 -2.1621
   17CHL1    C2 1231   1.230   5.864  10.270  0.0640 -0.1176 -0.3975
   17CHL1   H2A 1232   1.137   5.874  10.330  1.3751 -0.8145  1.9089
   17CHL1   H2B 1233   1.289   5.955  10.296  1.2281 -1.0232  0.2738
   17CHL1   C20 1234   1.236   5.863   9.320 -0.6751  0.1701 -0.2194
   17CHL1   H20 1235   1.309   5.945   9.307 -0.8158  0.2638 -0.4328
   17CHL1   C21 1236   1.090   5.910   9.339  0.2697  0.3700 -0.7249
   17CHL1  H21A 1237   1.041   5.941   9.245 -0.1553 -0.8057 -0.9028
   17CHL1  H21B 1238   1.093   5.986   9.421  2.7634 -1.6966  1.2989
   17CHL1  H21C 1239   1.035   5.823   9.380 -0.7173  1.0773 -0.4972
   17CHL1   C22 1240   1.245   5.780   9.197 -0.1312  0.2275  0.4375
   17CHL1  H22A 1241   1.352   5.753   9.186 -0.0070  1.2735 -1.2529
   17CHL1  H22B 1242   1.176   5.694   9.214 -0.8144  1.0869  2.2315
   17CHL1   C23 1243   1.199   5.858   9.069  0.0628  0.2657 -0.4231
   17CHL1  H23A 1244   1.088   5.853   9.066 -0.2781  1.6133  3.6577
   17CHL1  H23B 1245   1.217   5.966   9.092 -0.6879 -0.2158  2.9424
   17CHL1   C24 1246   1.275   5.819   8.944 -0.4046  0.4712  0.3169
   17CHL1  H24A 1247   1.379   5.853   8.961 -0.2651 -0.0505  0.5423
   17CHL1  H24B 1248   1.266   5.709   8.928 -2.5514  0.5850  0.4234
   17CHL1   C25 1249   1.200   5.875   8.819 -0.8569  0.1304 -0.0499
   17CHL1   H25 1250   1.096   5.843   8.839 -1.1420  0.5951 -0.7395
   17CHL1   C26 1251   1.193   6.031   8.799  0.5886 -0.3132  0.1406
   17CHL1  H26A 1252   1.124   6.071   8.721  1.6879  0.3577 -0.5260
   17CHL1  H26B 1253   1.139   6.074   8.886  0.6576  1.1748 -0.5133
   17CHL1  H26C 1254   1.293   6.077   8.780 -0.8159  2.6704 -0.5861
   17CHL1   C27 1255   1.248   5.794   8.694  0.3566 -0.6360  0.4914
   17CHL1  H27A 1256   1.165   5.785   8.620 -0.1512 -0.3487  1.0204
   17CHL1  H27B 1257   1.339   5.840   8.649  2.2517 -0.7624  3.8917
   17CHL1  H27C 1258   1.269   5.689   8.725 -0.4244 -0.7136  0.7721
   18CHL1    C3 1259   5.645   4.878  10.226  0.1016  0.1073 -0.3012
   18CHL1    H3 1260   5.705   4.972  10.228 -2.1897  1.6506  0.7130
   18CHL1    O3 1261   5.609   4.842  10.360 -0.3258  0.5303  0.4260
   18CHL1   H3' 1262   5.648   4.755  10.361 -2.0265 -0.2959 -0.6454
   18CHL1    C4 1263   5.515   4.902  10.152  0.1593  0.1535 -0.0010
   18CHL1   H4A 1264   5.448   4.814  10.151  1.1881 -0.7036  1.5414
   18CHL1   H4B 1265   5.460   4.984  10.204 -0.1575 -1.1038  1.7505
   18CHL1    C5 1266   5.552   4.944  10.014  0.1156 -0.2833  0.6798
   18CHL1    C6 1267   5.508   5.064   9.965  0.1972  0.1903 -0.6488
   18CHL1    H6 1268   5.444   5.123  10.032  0.0605  0.4852 -1.0380
   18CHL1    C7 1269   5.545   5.119   9.832  0.6207  0.1352 -0.3844
   18CHL1   H7A 1270   5.457   5.168   9.787  0.2717 -1.1152 -1.1141
   18CHL1   H7B 1271   5.625   5.192   9.857  1.2554 -0.6167 -0.1455
   18CHL1    C8 1272   5.604   5.015   9.738  0.0298 -0.2229  0.1201
   18CHL1    H8 1273   5.522   4.959   9.688  1.0558 -0.4671 -1.3762
   18CHL1   C14 1274   5.671   5.097   9.631  0.7022 -0.2178 -0.6028
   18CHL1   H14 1275   5.760   5.139   9.682  1.7362 -1.4759 -1.3241
   18CHL1   C15 1276   5.602   5.221   9.567 -0.1017 -0.0858  0.5437
   18CHL1  H15A 1277   5.499   5.185   9.547  0.3299 -0.6209 -0.8230
   18CHL1  H15B 1278   5.602   5.301   9.645 -0.8136 -0.6871  1.1709
   18CHL1   C16 1279   5.689   5.254   9.449  0.2312  0.7592 -0.4008
   18CHL1  H16A 1280   5.642   5.266   9.350  0.6966 -0.3823 -0.7690
   18CHL1  H16B 1281   5.759   5.339   9.466  1.6275 -0.2988 -0.5989
   18CHL1   C17 1282   5.787   5.129   9.427  0.1803 -0.0851  0.7119
   18CHL1   H17 1283   5.887   5.156   9.469 -0.0337 -0.6744  1.6513
   18CHL1   C13 1284   5.734   5.018   9.511 -0.4780 -0.0167  0.3290
   18CHL1   C18 1285   5.622   4.940   9.432  0.4444 -0.4358  0.4054
   18CHL1  H18A 1286   5.653   4.913   9.329  0.1333  0.4757  0.0626
   18CHL1  H18B 1287   5.598   4.843   9.481 -2.7045  0.0645  0.0610
   18CHL1  H18C 1288   5.524   4.993   9.431 -0.2528 -1.6483 -1.2353
   18CHL1   C12 1289   5.841   4.922   9.579 -0.1064  0.2211 -0.0086
   18CHL1  H12A 1290   5.882   4.854   9.501  0.8078  1.5974 -0.7847
   18CHL1  H12B 1291   5.923   4.991   9.610  1.1078 -0.4403 -1.5877
   18CHL1   C11 1292   5.777   4.839   9.692  0.5698 -0.2813 -0.4938
   18CHL1  H11A 1293   5.712   4.771   9.633  0.9526 -0.7026 -0.4364
   18CHL1  H11B 1294   5.856   4.769   9.729  1.4179  0.9724  0.1260
   18CHL1    C9 1295   5.710   4.929   9.803 -0.0717 -0.3422 -1.0075
   18CHL1    H9 1296   5.787   4.995   9.846 -0.5096 -1.3558  1.5081
   18CHL1   C10 1297   5.651   4.857   9.929  0.4115 -0.6587  0.0329
   18CHL1   C19 1298   5.570   4.735   9.881  0.1836 -0.4665  0.5784
   18CHL1  H19A 1299   5.510   4.687   9.962  0.5931 -0.3940  0.9278
   18CHL1  H19B 1300   5.500   4.764   9.799  1.4843 -1.1992 -0.8271
   18CHL1  H19C 1301   5.633   4.652   9.845 -1.1122 -1.1161 -0.2773
   18CHL1    C1 1302   5.768   4.809  10.020  0.3576 -0.3023  0.3498
   18CHL1   H1A 1303   5.816   4.724   9.968  0.8004 -0.6323  1.2805
   18CHL1   H1B 1304   5.842   4.891  10.037 -0.6031  0.0706  3.2414
   18CHL1    C2 1305   5.733   4.766  10.163 -0.2445  0.4704  0.1183
   18CHL1   H2A 1306   5.822   4.740  10.224  0.2763  1.2480 -0.2829
   18CHL1   H2B 1307   5.684   4.668  10.146  0.0557  0.6814 -2.4769
   18CHL1   C20 1308   5.811   5.105   9.270  0.3877 -0.8763 -0.5158
   18CHL1   H20 1309   5.718   5.086   9.213  0.5643 -1.5590 -0.5931
   18CHL1   C21 1310   5.901   4.981   9.248  0.0615  0.1281 -0.3655
   18CHL1  H21A 1311   5.858   4.891   9.298 -0.8333  0.4356 -0.5631
   18CHL1  H21B 1312   6.002   4.995   9.292 -0.6274  1.5275  0.8712
   18CHL1  H21C 1313   5.905   4.959   9.140 -1.3656 -0.6259 -0.2960
   18CHL1   C22 1314   5.860   5.231   9.200 -0.1634 -0.0156 -0.5813
   18CHL1  H22A 1315   5.818   5.328   9.235 -2.7793 -0.9731 -0.8473
   18CHL1  H22B 1316   5.968   5.227   9.227 -0.0975  1.0106 -0.6493
   18CHL1   C23 1317   5.832   5.229   9.053  0.1803 -0.5389 -0.0031
   18CHL1  H23A 1318   5.877   5.142   9.001 -1.6299 -0.1636 -2.3402
   18CHL1  H23B 1319   5.721   5.233   9.046  0.1860 -0.5652 -0.0970
   18CHL1   C24 1320   5.898   5.348   8.973 -0.2007 -0.5443 -0.5881
   18CHL1  H24A 1321   5.869   5.445   9.019  0.6981 -1.5388  2.3878
   18CHL1  H24B 1322   6.006   5.324   8.988  0.0112  1.1130  0.9632
   18CHL1   C25 1323   5.868   5.343   8.820  0.4255  0.2998  0.2950
   18CHL1   H25 1324   5.893   5.247   8.771 -1.2097  0.6227 -1.2877
   18CHL1   C26 1325   5.723   5.379   8.790  0.0056  0.3674  0.0467
   18CHL1  H26A 1326   5.657   5.301   8.835  0.9079 -1.1051 -1.0979
   18CHL1  H26B 1327   5.693   5.477   8.832  1.6785  0.6661  0.6175
   18CHL1  H26C 1328   5.687   5.367   8.686 -0.0710  1.6519 -0.0854
   18CHL1   C27 1329   5.945   5.458   8.750 -0.5575 -0.5462 -0.1147
   18CHL1  H27A 1330   6.052   5.430   8.764 -0.9885 -2.4392 -0.3697
   18CHL1  H27B 1331   5.928   5.470   8.641  0.5252  0.7063 -0.1753
   18CHL1  H27C 1332   5.914   5.552   8.801 -0.1082 -1.0499  1.1265
   19CHL1    C3 1333   4.021   1.716  10.143  0.3706 -0.4109  0.0700
   19CHL1    H3 1334   3.981   1.618  10.109 -1.6303  0.6575 -0.7692
   19CHL1    O3 1335   4.023   1.738  10.284 -0.3947  0.1273 -1.3390
   19CHL1   H3' 1336   4.084   1.810  10.299  1.7520 -1.1701 -3.2192
   19CHL1    C4 1337   4.165   1.715  10.099 -0.7696  0.3528 -0.1078
   19CHL1   H4A 1338   4.208   1.812  10.132 -2.4564  1.2339 -0.3667
   19CHL1   H4B 1339   4.222   1.632  10.147  0.7032  0.7141 -1.1690
   19CHL1    C5 1340   4.176   1.711   9.950  0.2430 -0.1357  0.4781
   19CHL1    C6 1341   4.238   1.613   9.887  0.0661  0.9518  0.8905
   19CHL1    H6 1342   4.283   1.535   9.950  1.7757 -1.0294 -2.5300
   19CHL1    C7 1343   4.255   1.598   9.737  0.3668  0.2163  0.2460
   19CHL1   H7A 1344   4.354   1.554   9.713 -0.5744 -2.2307  0.5938
   19CHL1   H7B 1345   4.187   1.524   9.691  1.6124 -0.9615  0.2504
   19CHL1    C8 1346   4.231   1.737   9.669  0.0542 -0.5273  0.0699
   19CHL1    H8 1347   4.316   1.804   9.695  0.5497 -1.5239  1.1211
   19CHL1   C14 1348   4.224   1.718   9.512 -0.6741 -0.6448 -0.3912
   19CHL1   H14 1349   4.142   1.649   9.485  0.0170 -1.4794 -0.3949
   19CHL1   C15 1350   4.348   1.644   9.442  0.9494  0.4232  0.0656
   19CHL1  H15A 1351   4.440   1.667   9.501  0.0449  0.7832  1.3739
   19CHL1  H15B 1352   4.338   1.533   9.447  1.6631  0.3832  0.9524
   19CHL1   C16 1353   4.342   1.687   9.295 -0.7782  0.4769 -0.8808
   19CHL1  H16A 1354   4.438   1.733   9.262  1.2437  1.2904  4.8822
   19CHL1  H16B 1355   4.314   1.603   9.228 -1.3745 -1.5828  1.7857
   19CHL1   C17 1356   4.224   1.797   9.288 -0.0592  0.3086 -0.3102
   19CHL1   H17 1357   4.134   1.736   9.265  0.9146  0.3432 -5.2647
   19CHL1   C13 1358   4.201   1.848   9.433  0.2572 -0.2860  0.2662
   19CHL1   C18 1359   4.313   1.959   9.447 -0.6347 -0.2510  0.8272
   19CHL1  H18A 1360   4.343   1.972   9.553  0.7256  2.8086  0.1706
   19CHL1  H18B 1361   4.401   1.913   9.398 -2.0441 -1.3443 -0.7716
   19CHL1  H18C 1362   4.282   2.057   9.405  2.5793  0.4232 -0.2123
   19CHL1   C12 1363   4.061   1.902   9.470  0.4718  0.2392 -0.2932
   19CHL1  H12A 1364   4.043   2.005   9.435 -1.5971  0.4739  1.2459
   19CHL1  H12B 1365   3.979   1.841   9.427 -0.3963  1.7956 -0.8783
   19CHL1   C11 1366   4.065   1.924   9.624  0.9595  0.2580  0.1232
   19CHL1  H11A 1367   4.143   1.999   9.648  1.8040 -0.9210  1.2814
   19CHL1  H11B 1368   3.970   1.968   9.663  1.5095  0.2703  1.5257
   19CHL1    C9 1369   4.097   1.801   9.717 -0.2163  0.4923  0.4986
   19CHL1    H9 1370   4.017   1.724   9.704 -0.6288  1.2716 -2.1798
   19CHL1   C10 1371   4.101   1.824   9.868  0.4932 -0.3556  0.0733
   19CHL1   C19 1372   4.169   1.966   9.899 -0.6800  0.2875  0.2692
   19CHL1  H19A 1373   4.278   1.969   9.880 -0.5361  0.4360  1.0713
   19CHL1  H19B 1374   4.135   2.046   9.830 -0.2900 -0.6188 -1.0179
   19CHL1  H19C 1375   4.167   2.005  10.003  1.3540  0.5059  0.2704
   19CHL1    C1 1376   3.959   1.832   9.928 -0.2439  0.1572 -0.2052
   19CHL1   H1A 1377   3.916   1.930   9.898 -0.5657 -0.5113 -2.0120
   19CHL1   H1B 1378   3.898   1.751   9.882 -1.0771 -1.4153  3.3172
   19CHL1    C2 1379   3.944   1.830  10.085 -0.2048 -0.0423 -0.2449
   19CHL1   H2A 1380   3.836   1.817  10.105 -0.1802 -0.8663 -0.6021
   19CHL1   H2B 1381   3.978   1.931  10.118 -0.4351 -0.2309  0.5812
   19CHL1   C20 1382   4.213   1.913   9.186 -0.2496  0.5634  0.1387
   19CHL1   H20 1383   4.228   2.015   9.225 -0.1227  0.6049 -0.0158
   19CHL1   C21 1384   4.061   1.915   9.134 -0.0270 -0.2767  0.0336
   19CHL1  H21A 1385   4.042   1.816   9.088  0.3856 -0.2502 -0.2004
   19CHL1  H21B 1386   4.032   1.995   9.062 -0.7143 -0.1476  0.4500
   19CHL1  H21C 1387   3.983   1.920   9.212  0.1398  2.3157  0.1164
   19CHL1   C22 1388   4.319   1.905   9.075  0.5255 -0.0934  0.6755
   19CHL1  H22A 1389   4.424   1.900   9.109  1.2713  1.9311 -1.0721
   19CHL1  H22B 1390   4.309   1.804   9.028  0.2695 -0.3098  1.1922
   19CHL1   C23 1391   4.324   2.021   8.972  0.2393 -0.3436  0.1109
   19CHL1  H23A 1392   4.248   2.002   8.893 -2.1391 -1.2510  2.4665
   19CHL1  H23B 1393   4.280   2.105   9.029 -0.3616 -2.8944  3.7432
   19CHL1   C24 1394   4.467   2.064   8.935  0.1383  0.8091 -0.0107
   19CHL1  H24A 1395   4.519   2.095   9.028 -0.3142  0.9818  0.1855
   19CHL1  H24B 1396   4.526   1.979   8.894  0.0071  1.1341 -0.8971
   19CHL1   C25 1397   4.486   2.175   8.832 -0.2251 -0.4884  0.3996
   19CHL1   H25 1398   4.425   2.143   8.744 -3.2183  1.2458  1.6715
   19CHL1   C26 1399   4.427   2.315   8.872  0.3370  0.1381 -0.1339
   19CHL1  H26A 1400   4.438   2.383   8.785 -3.7262  2.2179  0.7308
   19CHL1  H26B 1401   4.317   2.314   8.890 -0.1819  1.4164 -2.7961
   19CHL1  H26C 1402   4.479   2.362   8.958  1.4693 -0.5368 -0.4193
   19CHL1   C27 1403   4.633   2.192   8.793 -0.5891  0.0777 -0.0699
   19CHL1  H27A 1404   4.702   2.233   8.870  0.0794  1.3587 -1.3050
   19CHL1  H27B 1405   4.675   2.101   8.744 -0.9798 -0.4925  0.6318
   19CHL1  H27C 1406   4.644   2.265   8.711  0.5115  0.6377  0.5624
   20CHL1    C3 1407   4.841   2.671  10.387  0.3461  0.8790  0.5199
   20CHL1    H3 1408   4.732   2.657  10.372  0.2090  2.5158 -0.2853
   20CHL1    O3 1409   4.853   2.670  10.528 -0.9486  0.4853 -0.1906
   20CHL1   H3' 1410   4.945   2.689  10.544 -0.9191 -0.6801  1.1898
   20CHL1    C4 1411   4.931   2.558  10.332 -0.3686  0.3463 -0.3270
   20CHL1   H4A 1412   5.022   2.537  10.392  0.3686  0.1360 -1.4786
   20CHL1   H4B 1413   4.873   2.468  10.361  1.0928 -0.8796 -1.0849
   20CHL1    C5 1414   4.958   2.560  10.181  0.0675  0.3664 -0.6469
   20CHL1    C6 1415   4.922   2.443  10.111  0.1868 -0.3287 -0.5104
   20CHL1    H6 1416   4.877   2.355  10.160 -1.7893  0.9718  0.1560
   20CHL1    C7 1417   4.924   2.433   9.962  1.7694  0.2265 -0.8310
   20CHL1   H7A 1418   4.972   2.334   9.942 -0.4199 -1.1987  0.5643
   20CHL1   H7B 1419   4.832   2.440   9.901  1.7617  1.4071 -0.6955
   20CHL1    C8 1420   5.010   2.546   9.902  0.0775 -0.4488  0.0181
   20CHL1    H8 1421   5.114   2.517   9.930  0.0085 -1.5453 -0.8135
   20CHL1   C14 1422   4.998   2.541   9.754 -0.4834  0.3189  0.1192
   20CHL1   H14 1423   4.888   2.553   9.742 -0.6571  0.0589  1.3380
   20CHL1   C15 1424   5.027   2.400   9.683  0.2444 -0.2265 -0.0747
   20CHL1  H15A 1425   5.127   2.359   9.710 -0.1742 -0.9829  0.3867
   20CHL1  H15B 1426   4.950   2.322   9.703 -1.2503  1.4774  1.1427
   20CHL1   C16 1427   5.042   2.433   9.537  0.0542  0.3187  0.4574
   20CHL1  H16A 1428   5.142   2.410   9.494  0.1154  2.5167 -0.7527
   20CHL1  H16B 1429   4.967   2.384   9.471  1.4563 -0.3860 -0.6791
   20CHL1   C17 1430   5.029   2.594   9.533 -0.4284  0.1659 -0.7804
   20CHL1   H17 1431   4.921   2.621   9.526 -0.5430  0.3156  1.0016
   20CHL1   C13 1432   5.069   2.649   9.678  0.3586 -0.5778 -0.0375
   20CHL1   C18 1433   5.223   2.635   9.689 -0.3395  0.4447  0.5696
   20CHL1  H18A 1434   5.266   2.717   9.627  1.3686  0.2147  1.3882
   20CHL1  H18B 1435   5.249   2.645   9.797 -1.4338  1.3751  0.7671
   20CHL1  H18C 1436   5.276   2.547   9.646  0.8915  1.7767 -0.7560
   20CHL1   C12 1437   5.013   2.781   9.725 -0.1556  0.3913 -0.8891
   20CHL1  H12A 1438   5.066   2.864   9.673  1.9074 -0.5440 -0.3754
   20CHL1  H12B 1439   4.905   2.784   9.701 -1.6630  1.9304  4.6428
   20CHL1   C11 1440   5.050   2.802   9.878  0.0009 -0.2214 -0.0699
   20CHL1  H11A 1441   5.161   2.793   9.886  0.0487  0.2217 -0.1956
   20CHL1  H11B 1442   5.025   2.903   9.915 -1.4393 -0.5186 -0.1829
   20CHL1    C9 1443   4.979   2.690   9.959  0.4974 -0.3338  0.1863
   20CHL1    H9 1444   4.870   2.698   9.939  0.5411 -1.2489 -0.4612
   20CHL1   C10 1445   4.997   2.691  10.117 -0.8026 -0.5867  0.7667
   20CHL1   C19 1446   5.147   2.709  10.153  0.1485  0.8330  0.0694
   20CHL1  H19A 1447   5.215   2.633  10.110  0.5447  1.0169  0.3684
   20CHL1  H19B 1448   5.180   2.807  10.112  0.1825  1.1708  0.8837
   20CHL1  H19C 1449   5.168   2.712  10.262 -0.4436 -0.4556  0.2321
   20CHL1    C1 1450   4.914   2.814  10.181 -0.2642  0.1846 -0.1865
   20CHL1   H1A 1451   4.974   2.907  10.181  0.1584 -0.0859 -0.3487
   20CHL1   H1B 1452   4.814   2.831  10.137  0.5782  1.8939 -1.5471
   20CHL1    C2 1453   4.887   2.812  10.331  0.3293  0.2121  0.2821
   20CHL1   H2A 1454   4.809   2.887  10.358 -1.5333 -1.1834 -1.0353
   20CHL1   H2B 1455   4.979   2.832  10.390  0.7275  4.3449 -1.3583
   20CHL1   C20 1456   5.097   2.654   9.409  0.5752 -0.0907 -0.9616
   20CHL1   H20 1457   5.208   2.652   9.411  0.5734 -1.7860  1.8575
   20CHL1   C21 1458   5.064   2.809   9.402 -0.5178 -0.5983 -0.5037
   20CHL1  H21A 1459   5.123   2.856   9.483  0.5378 -2.7207  0.0351
   20CHL1  H21B 1460   4.956   2.826   9.421 -0.0736 -0.5104  2.3255
   20CHL1  H21C 1461   5.100   2.855   9.307 -2.3705  1.5289 -0.2402
   20CHL1   C22 1462   5.065   2.570   9.279 -0.2646 -0.1521  0.0620
   20CHL1  H22A 1463   5.123   2.478   9.257 -0.7144 -0.0471 -1.6916
   20CHL1  H22B 1464   4.960   2.535   9.282  0.2666 -1.7291  2.1390
   20CHL1   C23 1465   5.069   2.643   9.144  0.7556  0.4494  0.2194
   20CHL1  H23A 1466   5.005   2.734   9.142  0.5879  0.3204 -0.9937
   20CHL1  H23B 1467   5.167   2.685   9.115  0.1500  0.5519 -1.8578
   20CHL1   C24 1468   5.041   2.552   9.023 -0.3870  0.9609  0.1785
   20CHL1  H24A 1469   5.120   2.475   9.017  0.2234  1.3611  2.2093
   20CHL1  H24B 1470   4.943   2.500   9.025 -0.4568  1.0255 -0.9338
   20CHL1   C25 1471   5.038   2.615   8.872 -0.0528  0.0372  0.0691
   20CHL1   H25 1472   5.127   2.681   8.863  1.7260 -1.5213  3.7894
   20CHL1   C26 1473   5.026   2.501   8.764 -0.9935 -0.2373  0.4250
   20CHL1  H26A 1474   5.115   2.438   8.780 -0.0490  1.6088  3.2797
   20CHL1  H26B 1475   4.939   2.437   8.788 -1.6769 -0.2523 -1.8473
   20CHL1  H26C 1476   5.006   2.532   8.659  2.0166  0.5044 -0.0172
   20CHL1   C27 1477   4.921   2.703   8.854 -0.2579 -0.1110 -0.5598
   20CHL1  H27A 1478   4.825   2.650   8.873 -0.5795  0.4616 -0.5426
   20CHL1  H27B 1479   4.918   2.793   8.919 -0.4008 -0.9736  0.6637
   20CHL1  H27C 1480   4.905   2.725   8.746 -2.5760  1.0651 -0.0623
   21CHL1    C3 1481   5.814   5.275  10.262  0.9032  0.3720 -0.0995
   21CHL1    H3 1482   5.770   5.189  10.208 -0.7338  1.4060 -0.4836
   21CHL1    O3 1483   5.800   5.271  10.402  0.6405  0.2573  0.6889
   21CHL1   H3' 1484   5.707   5.255  10.424  0.4429  1.6393  0.9083
   21CHL1    C4 1485   5.965   5.256  10.235  0.1113 -0.0558  0.1475
   21CHL1   H4A 1486   6.023   5.332  10.292  0.5493 -0.9541  0.9317
   21CHL1   H4B 1487   5.990   5.161  10.286  0.7955 -0.3623 -0.7292
   21CHL1    C5 1488   5.996   5.268  10.090 -0.0270 -0.1440  0.6460
   21CHL1    C6 1489   6.056   5.167  10.031 -0.7910 -0.2266 -0.0008
   21CHL1    H6 1490   6.081   5.083  10.097 -0.2266 -0.0380  0.0337
   21CHL1    C7 1491   6.093   5.170   9.888  0.2913  0.5522 -0.0691
   21CHL1   H7A 1492   6.190   5.116   9.881  1.4819  2.7790 -1.8391
   21CHL1   H7B 1493   6.018   5.123   9.822  0.8367  0.4418 -0.6182
   21CHL1    C8 1494   6.095   5.311   9.831  0.0960  0.1369  0.5099
   21CHL1    H8 1495   6.183   5.368   9.868  0.6367  0.6714 -1.4749
   21CHL1   C14 1496   6.097   5.318   9.674 -0.1389  0.4292  0.0150
   21CHL1   H14 1497   6.000   5.275   9.641  1.0612 -3.0104  0.5252
   21CHL1   C15 1498   6.199   5.231   9.596  0.8100 -0.2104 -0.3478
   21CHL1  H15A 1499   6.288   5.251   9.658 -0.9839  1.0603  1.9696
   21CHL1  H15B 1500   6.174   5.123   9.605 -0.2941 -0.1109 -1.8196
   21CHL1   C16 1501   6.200   5.291   9.449  0.3105 -0.1277 -0.2776
   21CHL1  H16A 1502   6.304   5.324   9.431  0.1263 -0.5329 -2.3259
   21CHL1  H16B 1503   6.165   5.222   9.369 -1.3846 -0.8746  1.0361
   21CHL1   C17 1504   6.106   5.419   9.455  0.3672 -0.0146 -0.4337
   21CHL1   H17 1505   6.010   5.379   9.415  0.3840 -1.7480  1.1635
   21CHL1   C13 1506   6.100   5.453   9.609 -0.3149 -0.0612 -0.3232
   21CHL1   C18 1507   6.240   5.523   9.657 -0.4480 -0.2582  0.4599
   21CHL1  H18A 1508   6.255   5.615   9.595  0.5977 -0.1655  0.8238
   21CHL1  H18B 1509   6.230   5.552   9.764 -1.4541 -0.8834  0.5436
   21CHL1  H18C 1510   6.326   5.455   9.637 -0.6386 -0.6870  1.0807
   21CHL1   C12 1511   5.966   5.521   9.654 -0.0361  0.1206  0.0450
   21CHL1  H12A 1512   5.941   5.620   9.609 -1.4500  0.1099  0.7464
   21CHL1  H12B 1513   5.879   5.459   9.624  0.2620 -0.8115  1.0457
   21CHL1   C11 1514   5.953   5.534   9.806  0.1563  0.9209  0.9053
   21CHL1  H11A 1515   6.033   5.598   9.850  1.4514 -2.0403  3.2230
   21CHL1  H11B 1516   5.855   5.574   9.838  0.3364  2.6212 -0.5364
   21CHL1    C9 1517   5.973   5.390   9.873  0.1404 -0.1134  0.5094
   21CHL1    H9 1518   5.890   5.324   9.839  1.9829 -2.0876 -0.4275
   21CHL1   C10 1519   5.953   5.391  10.026 -0.0154  0.5739  0.0366
   21CHL1   C19 1520   6.042   5.506  10.083 -0.5539 -0.7712 -0.2900
   21CHL1  H19A 1521   6.000   5.602  10.046 -2.1916 -0.9784  0.9400
   21CHL1  H19B 1522   6.023   5.526  10.191  0.8444  2.0179 -0.4614
   21CHL1  H19C 1523   6.149   5.506  10.052 -0.5752  0.6599 -0.4472
   21CHL1    C1 1524   5.803   5.410  10.055  0.2388  0.6301 -0.2674
   21CHL1   H1A 1525   5.774   5.504  10.004  3.0489 -0.5048 -4.5653
   21CHL1   H1B 1526   5.737   5.331  10.013  2.9232 -3.0426  1.8097
   21CHL1    C2 1527   5.761   5.403  10.201  0.7042 -0.8437 -0.8225
   21CHL1   H2A 1528   5.651   5.399  10.212  0.8047 -1.7606 -0.1432
   21CHL1   H2B 1529   5.798   5.492  10.257 -1.6580  0.7369 -1.5985
   21CHL1   C20 1530   6.160   5.533   9.362  0.0592 -0.2949  0.1533
   21CHL1   H20 1531   6.262   5.556   9.401  0.4014 -1.8415  0.2404
   21CHL1   C21 1532   6.085   5.662   9.380  0.3151 -0.5701  0.0204
   21CHL1  H21A 1533   5.975   5.644   9.373  0.0061  1.1427  0.0010
   21CHL1  H21B 1534   6.110   5.735   9.300 -0.4939  0.0514  0.3189
   21CHL1  H21C 1535   6.101   5.705   9.481 -4.0252  0.6913  0.3666
   21CHL1   C22 1536   6.187   5.506   9.209  0.2339  0.6406  1.0368
   21CHL1  H22A 1537   6.230   5.404   9.204  1.0757  0.9896  0.8310
   21CHL1  H22B 1538   6.096   5.507   9.146  0.5819 -1.8318  0.4104
   21CHL1   C23 1539   6.291   5.602   9.137  0.8879 -0.1266  0.1202
   21CHL1  H23A 1540   6.242   5.702   9.135  1.4945  0.3142  2.9094
   21CHL1  H23B 1541   6.387   5.605   9.193  1.1447  1.9119 -0.3432
   21CHL1   C24 1542   6.315   5.549   8.993  0.0145 -0.0112  0.3862
   21CHL1  H24A 1543   6.341   5.441   9.007  2.3648  0.3903 -0.4410
   21CHL1  H24B 1544   6.227   5.558   8.926  0.8289  0.8147 -0.5907
   21CHL1   C25 1545   6.424   5.616   8.914 -0.1544  1.0601  0.1613
   21CHL1   H25 1546   6.505   5.642   8.986 -1.2963  1.8748  1.2018
   21CHL1   C26 1547   6.476   5.513   8.807  0.0494  0.4699  0.7660
   21CHL1  H26A 1548   6.484   5.412   8.851 -2.7978 -0.8382 -1.3980
   21CHL1  H26B 1549   6.393   5.494   8.736  1.6994  1.3781 -1.5600
   21CHL1  H26C 1550   6.569   5.541   8.752  1.3738 -1.7696  1.7554
   21CHL1   C27 1551   6.384   5.752   8.860  0.6434  0.0440  0.5870
   21CHL1  H27A 1552   6.329   5.809   8.939  0.7555  0.4110  0.4039
   21CHL1  H27B 1553   6.474   5.802   8.818  0.4942  0.1910  0.4409
   21CHL1  H27C 1554   6.309   5.742   8.778  3.6526  0.2457 -2.4265
   22CHL1    C3 1555   6.546   0.052  10.253 -0.2176  0.0611  0.8482
   22CHL1    H3 1556   6.523   0.160  10.263  2.4863  0.7882 -0.0682
   22CHL1    O3 1557   6.552  -0.009  10.378 -0.0366 -0.1457 -0.1749
   22CHL1   H3' 1558   6.565  -0.102  10.358 -1.3503 -0.8834  2.0614
   22CHL1    C4 1559   6.426  -0.013  10.172 -0.7393  0.3238 -0.5964
   22CHL1   H4A 1560   6.440  -0.122  10.183  0.9382  0.5524 -0.2738
   22CHL1   H4B 1561   6.327  -0.008  10.222  1.4458 -0.9660  4.5032
   22CHL1    C5 1562   6.428   0.031  10.026  0.0263 -1.2658 -0.4787
   22CHL1    C6 1563   6.321   0.096   9.986  0.2803 -0.2677 -0.3842
   22CHL1    H6 1564   6.242   0.114  10.061  1.3251  0.4260  0.5923
   22CHL1    C7 1565   6.306   0.131   9.842 -0.4167  0.2464  0.6946
   22CHL1   H7A 1566   6.209   0.108   9.794  0.4894  1.1818 -1.7473
   22CHL1   H7B 1567   6.326   0.238   9.818 -1.2871  0.1802 -0.4135
   22CHL1    C8 1568   6.420   0.060   9.748  0.7377  0.2239  0.9143
   22CHL1    H8 1569   6.380  -0.040   9.725 -1.2995  1.4370 -1.1937
   22CHL1   C14 1570   6.428   0.128   9.617  0.1830  1.4699 -0.1951
   22CHL1   H14 1571   6.450   0.236   9.633 -2.2005  2.3785 -2.2723
   22CHL1   C15 1572   6.294   0.141   9.531  0.4620 -0.0669  0.4470
   22CHL1  H15A 1573   6.222   0.056   9.540  0.6370 -0.2394  0.2046
   22CHL1  H15B 1574   6.241   0.236   9.555 -0.6242 -0.2069 -1.2432
   22CHL1   C16 1575   6.350   0.142   9.387  0.3741  0.3906 -0.2073
   22CHL1  H16A 1576   6.328   0.044   9.338 -1.0294  0.8402 -0.5338
   22CHL1  H16B 1577   6.309   0.220   9.319 -0.8596 -0.6319 -0.6840
   22CHL1   C17 1578   6.509   0.146   9.402  0.3593 -0.3395 -0.0066
   22CHL1   H17 1579   6.522   0.252   9.431 -0.9761  0.1598 -1.1420
   22CHL1   C13 1580   6.531   0.062   9.528  1.0119 -0.2178  0.4872
   22CHL1   C18 1581   6.487  -0.088   9.507 -0.5626  0.6774 -0.0516
   22CHL1  H18A 1582   6.546  -0.141   9.429 -1.4686 -0.3426 -0.0669
   22CHL1  H18B 1583   6.507  -0.145   9.601  0.5588  1.6221  0.3020
   22CHL1  H18C 1584   6.379  -0.103   9.485 -0.2271 -0.2759 -1.1787
   22CHL1   C12 1585   6.667   0.075   9.586  0.2510  0.2149  0.3508
   22CHL1  H12A 1586   6.743   0.018   9.528 -0.2279 -2.5426  2.2726
   22CHL1  H12B 1587   6.696   0.182   9.596  0.2134  0.5424 -2.3217
   22CHL1   C11 1588   6.674   0.010   9.716 -0.0674  0.0966 -0.3870
   22CHL1  H11A 1589   6.663  -0.099   9.702 -1.1483  0.0039  1.0268
   22CHL1  H11B 1590   6.766   0.032   9.774 -1.3667  3.1980  0.7492
   22CHL1    C9 1591   6.561   0.058   9.811  0.2329 -0.8117 -0.5090
   22CHL1    H9 1592   6.582   0.167   9.822  1.5661 -1.3405  3.9940
   22CHL1   C10 1593   6.558  -0.007   9.949 -0.2434 -0.1246  0.4203
   22CHL1   C19 1594   6.568  -0.161   9.930  0.5554  0.3486 -0.4302
   22CHL1  H19A 1595   6.489  -0.195   9.859  1.0104  3.5000 -2.6420
   22CHL1  H19B 1596   6.666  -0.191   9.887 -0.4353 -2.4067 -0.9276
   22CHL1  H19C 1597   6.557  -0.212  10.028  2.3248  0.4210 -0.1623
   22CHL1    C1 1598   6.677   0.056  10.028  0.1021  0.3764  0.3741
   22CHL1   H1A 1599   6.773   0.020   9.984 -0.2137  3.0943 -2.9926
   22CHL1   H1B 1600   6.669   0.167  10.022  0.9633  0.4097 -0.3274
   22CHL1    C2 1601   6.684   0.026  10.182  0.7876 -0.1439  0.7380
   22CHL1   H2A 1602   6.760   0.096  10.224 -0.9566  1.9943  0.5198
   22CHL1   H2B 1603   6.724  -0.077  10.191 -0.1839 -0.6217 -0.1710
   22CHL1   C20 1604   6.593   0.113   9.278  0.1931 -0.0881  0.4890
   22CHL1   H20 1605   6.618   0.005   9.266 -0.8364 -0.2322 -0.5184
   22CHL1   C21 1606   6.713   0.202   9.290 -0.1299 -0.2029  0.0869
   22CHL1  H21A 1607   6.776   0.202   9.382  1.2285  0.0163 -0.7993
   22CHL1  H21B 1608   6.676   0.307   9.283  2.6317  1.0216  2.1054
   22CHL1  H21C 1609   6.776   0.191   9.199 -1.3675  4.3942 -1.6159
   22CHL1   C22 1610   6.518   0.148   9.151  0.5582  0.0633 -0.0474
   22CHL1  H22A 1611   6.423   0.091   9.143  0.6884  0.0894 -2.9789
   22CHL1  H22B 1612   6.494   0.255   9.137 -0.0757 -0.2494 -1.6454
   22CHL1   C23 1613   6.594   0.104   9.015  0.8086 -0.5250  1.0527
   22CHL1  H23A 1614   6.699   0.138   9.011  0.9681 -0.7303  2.7712
   22CHL1  H23B 1615   6.600  -0.007   9.014  0.6147 -0.5513 -0.9734
   22CHL1   C24 1616   6.512   0.161   8.890  0.4784  0.2618 -0.2714
   22CHL1  H24A 1617   6.404   0.138   8.897  0.4414 -0.7271 -2.8109
   22CHL1  H24B 1618   6.525   0.269   8.912 -0.6819  0.3245  0.1339
   22CHL1   C25 1619   6.582   0.137   8.756 -0.2722  0.2467 -0.4664
   22CHL1   H25 1620   6.578   0.026   8.747  0.5189  0.2829 -1.5097
   22CHL1   C26 1621   6.494   0.203   8.655 -0.0681 -0.0003  0.3335
   22CHL1  H26A 1622   6.499   0.311   8.678 -0.2517 -0.3771  2.3368
   22CHL1  H26B 1623   6.540   0.188   8.555  0.0461  1.1323  0.2095
   22CHL1  H26C 1624   6.391   0.164   8.646  0.6606 -1.7448 -1.0220
   22CHL1   C27 1625   6.725   0.194   8.755 -0.2582 -0.0658 -0.2564
   22CHL1  H27A 1626   6.801   0.141   8.816  0.1226 -0.3721 -0.9765
   22CHL1  H27B 1627   6.764   0.179   8.652  0.4432 -1.0218  0.1314
   22CHL1  H27C 1628   6.723   0.302   8.781 -2.1640  0.0866 -0.9040
   23CHL1    C3 1629   2.683   1.609  10.124  0.2197  0.4096 -0.4864
   23CHL1    H3 1630   2.596   1.540  10.117  1.1313 -0.6743 -1.4919
   23CHL1    O3 1631   2.709   1.649  10.257 -0.4254 -0.1876 -0.2179
   23CHL1   H3' 1632   2.629   1.669  10.306 -1.1620  0.3756 -1.5805
   23CHL1    C4 1633   2.803   1.529  10.066 -0.1669  0.6166  0.7889
   23CHL1   H4A 1634   2.892   1.596  10.072  0.0286  0.7863 -2.2545
   23CHL1   H4B 1635   2.816   1.439  10.129 -2.2911  0.5425  1.1808
   23CHL1    C5 1636   2.789   1.490   9.918 -0.2872 -0.0213 -0.2728
   23CHL1    C6 1637   2.810   1.366   9.889 -0.6424  1.0188  0.8682
   23CHL1    H6 1638   2.846   1.298   9.967  0.3743 -0.0157 -0.4494
   23CHL1    C7 1639   2.803   1.315   9.750  0.4906  0.5003 -0.2624
   23CHL1   H7A 1640   2.892   1.250   9.736  0.2267 -0.3239  1.5317
   23CHL1   H7B 1641   2.718   1.246   9.731  0.9358 -0.3460  0.7455
   23CHL1    C8 1642   2.800   1.429   9.646 -0.3890 -0.3929 -0.2138
   23CHL1    H8 1643   2.904   1.466   9.637 -0.7932  0.3315 -2.7428
   23CHL1   C14 1644   2.759   1.384   9.507 -0.2450  0.1079  0.5384
   23CHL1   H14 1645   2.660   1.338   9.527 -0.2592  0.4767  1.3934
   23CHL1   C15 1646   2.846   1.286   9.439 -0.1202 -0.2915 -0.3367
   23CHL1  H15A 1647   2.954   1.311   9.446  0.7212 -3.4362 -0.3775
   23CHL1  H15B 1648   2.834   1.182   9.477 -0.0569  0.6068  2.3507
   23CHL1   C16 1649   2.804   1.289   9.295 -0.4409  0.3097 -0.2502
   23CHL1  H16A 1650   2.895   1.301   9.232 -0.6933  0.9557 -0.4960
   23CHL1  H16B 1651   2.749   1.200   9.257 -1.6800  1.2449 -0.7150
   23CHL1   C17 1652   2.709   1.411   9.274  0.0988  0.8529 -0.2645
   23CHL1   H17 1653   2.607   1.371   9.293  0.0307 -0.7286 -3.2799
   23CHL1   C13 1654   2.736   1.499   9.403  0.6547  0.0187  0.2815
   23CHL1   C18 1655   2.861   1.588   9.389  0.0786  0.2104  0.7030
   23CHL1  H18A 1656   2.893   1.630   9.486 -0.2324 -1.1300  1.4055
   23CHL1  H18B 1657   2.945   1.534   9.340 -2.4652 -3.4084 -0.0208
   23CHL1  H18C 1658   2.829   1.670   9.321 -1.2302 -2.0180 -1.5615
   23CHL1   C12 1659   2.619   1.580   9.446  0.0449  0.1537 -0.3254
   23CHL1  H12A 1660   2.583   1.663   9.380  0.6749 -0.0528 -0.9422
   23CHL1  H12B 1661   2.535   1.509   9.463  1.0327 -1.0565 -0.3580
   23CHL1   C11 1662   2.657   1.642   9.582 -0.1819  0.5546  0.0396
   23CHL1  H11A 1663   2.731   1.724   9.571  0.1514  0.3365  0.6071
   23CHL1  H11B 1664   2.565   1.693   9.620 -0.9564  0.1470 -1.2042
   23CHL1    C9 1665   2.696   1.534   9.686 -0.4532 -0.2177 -0.5280
   23CHL1    H9 1666   2.606   1.477   9.716 -0.2641 -0.0409  0.4003
   23CHL1   C10 1667   2.739   1.597   9.821  0.6980 -0.0005 -1.0822
   23CHL1   C19 1668   2.848   1.713   9.802 -0.6550 -0.6855 -0.0166
   23CHL1  H19A 1669   2.921   1.686   9.722 -2.1439  2.0628 -2.5021
   23CHL1  H19B 1670   2.805   1.803   9.754  0.7780 -0.5042 -1.0557
   23CHL1  H19C 1671   2.896   1.746   9.896  1.3766 -1.4114 -0.7311
   23CHL1    C1 1672   2.619   1.676   9.899 -0.0306 -0.4566  0.0244
   23CHL1   H1A 1673   2.609   1.772   9.846  3.3365  0.6883  1.1564
   23CHL1   H1B 1674   2.533   1.605   9.897 -0.9422  0.5136  2.2684
   23CHL1    C2 1675   2.650   1.727  10.038  0.0327  0.3136  0.3005
   23CHL1   H2A 1676   2.559   1.763  10.091 -1.1725 -0.7690 -0.9308
   23CHL1   H2B 1677   2.725   1.809  10.031 -0.9205  1.1002 -1.3837
   23CHL1   C20 1678   2.708   1.479   9.129 -0.6035 -0.4896 -0.7112
   23CHL1   H20 1679   2.810   1.520   9.113 -0.6251  0.1117  0.5236
   23CHL1   C21 1680   2.604   1.593   9.122  0.5339  0.1240 -0.0054
   23CHL1  H21A 1681   2.587   1.633   9.020 -0.5541 -0.6395 -0.1435
   23CHL1  H21B 1682   2.646   1.675   9.184 -1.2330  0.4599  0.7863
   23CHL1  H21C 1683   2.509   1.558   9.166 -0.1810  0.8838 -0.9169
   23CHL1   C22 1684   2.690   1.393   9.005  0.4800  0.1820  0.1017
   23CHL1  H22A 1685   2.710   1.467   8.924  0.4126  1.9281  1.6031
   23CHL1  H22B 1686   2.768   1.320   8.980  1.5921  1.5300 -0.4943
   23CHL1   C23 1687   2.553   1.326   9.000  0.2205 -0.1299  0.4200
   23CHL1  H23A 1688   2.538   1.271   9.096 -0.3279 -1.0407 -0.1683
   23CHL1  H23B 1689   2.464   1.392   8.993 -0.9252 -1.6936 -0.3736
   23CHL1   C24 1690   2.542   1.220   8.886 -0.1257  0.4160  0.0109
   23CHL1  H24A 1691   2.610   1.133   8.898 -1.3257 -0.5065  0.3645
   23CHL1  H24B 1692   2.440   1.176   8.890 -0.7934  1.7200 -1.6554
   23CHL1   C25 1693   2.568   1.280   8.746  0.3381 -0.1601  0.1393
   23CHL1   H25 1694   2.659   1.344   8.754  0.5903 -0.5050  0.0541
   23CHL1   C26 1695   2.583   1.172   8.641 -0.6509  0.4462 -0.3346
   23CHL1  H26A 1696   2.603   1.226   8.547  0.0594  1.3856  0.3375
   23CHL1  H26B 1697   2.682   1.125   8.665 -0.7783  0.4258  0.1649
   23CHL1  H26C 1698   2.504   1.094   8.637  0.3931 -0.8423  1.9353
   23CHL1   C27 1699   2.457   1.375   8.703  0.4594  0.7944  0.6725
   23CHL1  H27A 1700   2.479   1.441   8.616 -0.5683  0.5195  0.1869
   23CHL1  H27B 1701   2.357   1.331   8.683  0.2802  1.4062  0.1763
   23CHL1  H27C 1702   2.438   1.444   8.787 -2.2561  0.9404  0.0449
   24CHL1    C3 1703   3.662   1.319  10.288 -0.3719  0.2518 -0.0642
   24CHL1    H3 1704   3.643   1.211  10.308  1.3605  0.3207  2.4022
   24CHL1    O3 1705   3.661   1.388  10.407 -0.2755  0.1443  0.3546
   24CHL1   H3' 1706   3.675   1.479  10.380  1.2072 -1.3862 -5.3133
   24CHL1    C4 1707   3.812   1.340  10.241 -0.0387  0.5717 -0.0656
   24CHL1   H4A 1708   3.860   1.440  10.248  2.9855 -0.5965 -2.0236
   24CHL1   H4B 1709   3.874   1.276  10.307 -0.2162 -0.0967 -0.5440
   24CHL1    C5 1710   3.833   1.304  10.099  0.8313  0.6798 -0.2142
   24CHL1    C6 1711   3.932   1.221  10.065 -0.0710 -0.0691 -0.5320
   24CHL1    H6 1712   4.006   1.189  10.139  0.9307  3.0729 -0.0369
   24CHL1    C7 1713   3.963   1.184   9.922  0.0513  0.1489  0.7202
   24CHL1   H7A 1714   4.071   1.190   9.897 -0.2978  2.2489 -0.5638
   24CHL1   H7B 1715   3.923   1.083   9.898 -1.1992  0.7989 -0.0800
   24CHL1    C8 1716   3.895   1.273   9.825  0.7645 -0.3330  0.1976
   24CHL1    H8 1717   3.941   1.374   9.832 -1.1100  0.6342 -0.6523
   24CHL1   C14 1718   3.906   1.227   9.684 -0.1699  0.2386  0.0430
   24CHL1   H14 1719   3.845   1.135   9.676 -1.0932  0.7582  0.9425
   24CHL1   C15 1720   4.044   1.173   9.630  0.6556 -0.5874  0.2167
   24CHL1  H15A 1721   4.133   1.233   9.661 -1.2024  3.0460 -0.9090
   24CHL1  H15B 1722   4.062   1.069   9.666 -2.0185 -0.8569  0.9573
   24CHL1   C16 1723   4.027   1.166   9.481  0.4854 -0.3659 -0.6277
   24CHL1  H16A 1724   4.110   1.221   9.433  1.0792 -0.4693  0.2685
   24CHL1  H16B 1725   4.023   1.063   9.440 -1.0240 -0.3851 -0.4888
   24CHL1   C17 1726   3.890   1.231   9.453 -0.0753 -0.2459 -0.3286
   24CHL1   H17 1727   3.819   1.145   9.448  1.4265 -1.4979 -1.1637
   24CHL1   C13 1728   3.853   1.316   9.575  0.3955 -0.0631  0.2572
   24CHL1   C18 1729   3.935   1.455   9.577  0.0313 -0.2153  0.5245
   24CHL1  H18A 1730   3.933   1.496   9.679 -0.9928 -1.3908  1.0015
   24CHL1  H18B 1731   4.040   1.448   9.541  0.4856  0.0201  1.7651
   24CHL1  H18C 1732   3.884   1.522   9.505 -0.8107 -0.5344  0.8128
   24CHL1   C12 1733   3.699   1.343   9.596 -0.4623 -0.6638 -0.4256
   24CHL1  H12A 1734   3.663   1.422   9.527 -2.2491  2.4100  3.6070
   24CHL1  H12B 1735   3.648   1.245   9.592  0.2013 -1.0981  0.8301
   24CHL1   C11 1736   3.668   1.396   9.739 -0.7934  0.4423  0.1075
   24CHL1  H11A 1737   3.711   1.499   9.733 -0.2843  0.1715 -1.1715
   24CHL1  H11B 1738   3.558   1.393   9.753 -0.9519  0.2982 -1.1253
   24CHL1    C9 1739   3.742   1.307   9.845 -0.3351  0.5575 -0.0574
   24CHL1    H9 1740   3.679   1.215   9.846  0.1720  0.1961 -0.6258
   24CHL1   C10 1741   3.729   1.366   9.991  0.3125  0.6235 -0.6629
   24CHL1   C19 1742   3.761   1.519   9.981  1.2077  0.6203 -0.1457
   24CHL1  H19A 1743   3.778   1.571  10.078 -4.2469  1.6922  0.5806
   24CHL1  H19B 1744   3.846   1.535   9.912  1.1258  0.6839 -0.2305
   24CHL1  H19C 1745   3.675   1.572   9.935  3.4032  2.0951 -2.8342
   24CHL1    C1 1746   3.585   1.342  10.053  0.7028  0.7846  0.2702
   24CHL1   H1A 1747   3.507   1.383   9.986 -1.0584 -1.1154  1.0395
   24CHL1   H1B 1748   3.561   1.236  10.031  1.2637  1.1628 -2.5364
   24CHL1    C2 1749   3.555   1.375  10.198  0.5273  0.3360 -0.6212
   24CHL1   H2A 1750   3.456   1.349  10.240 -0.3325  0.0528 -2.7184
   24CHL1   H2B 1751   3.562   1.486  10.204  0.1323  0.3001  1.1286
   24CHL1   C20 1752   3.892   1.296   9.310  0.1545  0.4386  0.1077
   24CHL1   H20 1753   3.964   1.380   9.307 -0.2816  0.7752 -1.8910
   24CHL1   C21 1754   3.745   1.338   9.275  0.3884  0.1130 -0.1245
   24CHL1  H21A 1755   3.721   1.430   9.332  1.3456  0.9763 -1.0575
   24CHL1  H21B 1756   3.670   1.259   9.296  0.1477  0.9899  2.7369
   24CHL1  H21C 1757   3.732   1.367   9.168 -0.3464 -3.4128 -1.1256
   24CHL1   C22 1758   3.940   1.205   9.189  0.2099  0.5590 -0.6004
   24CHL1  H22A 1759   4.026   1.150   9.234 -0.4163  0.0688  0.0169
   24CHL1  H22B 1760   3.863   1.129   9.163 -1.0772  2.2037 -1.7861
   24CHL1   C23 1761   3.995   1.292   9.074 -0.3696 -0.4355  0.8762
   24CHL1  H23A 1762   3.930   1.379   9.050 -1.0887 -1.6454 -1.9600
   24CHL1  H23B 1763   4.096   1.331   9.099 -0.2308 -0.9005  1.0509
   24CHL1   C24 1764   4.011   1.205   8.949 -0.5239  0.4974 -0.1024
   24CHL1  H24A 1765   4.070   1.118   8.986  0.1811  0.8374 -0.4192
   24CHL1  H24B 1766   3.911   1.174   8.912 -0.5591  0.9615 -0.4012
   24CHL1   C25 1767   4.080   1.278   8.832 -0.4023 -0.0439 -0.4166
   24CHL1   H25 1768   4.181   1.312   8.863 -0.8077  2.2870 -1.4694
   24CHL1   C26 1769   4.083   1.193   8.703 -0.4211 -0.5594  1.2045
   24CHL1  H26A 1770   4.131   1.244   8.617 -2.0720 -0.3489  0.3599
   24CHL1  H26B 1771   4.135   1.096   8.717 -0.4793 -0.5352  1.6279
   24CHL1  H26C 1772   3.980   1.157   8.682 -0.4816  0.0350  0.4714
   24CHL1   C27 1773   4.012   1.413   8.804 -0.0257 -0.5514  0.2729
   24CHL1  H27A 1774   4.024   1.482   8.891 -1.0611  2.0357 -1.5152
   24CHL1  H27B 1775   4.066   1.460   8.719  1.1455 -1.6547  0.3865
   24CHL1  H27C 1776   3.906   1.391   8.782  0.0017  0.3419 -0.8057
   25CHL1    C3 1777   3.982   4.111  10.233  0.8251  0.5242 -0.3918
   25CHL1    H3 1778   4.089   4.129  10.211  0.7801 -1.6147 -2.7457
   25CHL1    O3 1779   3.969   4.131  10.376  0.3230 -0.1137  0.0672
   25CHL1   H3' 1780   3.879   4.164  10.383 -1.2902 -3.4322 -2.2348
   25CHL1    C4 1781   3.912   4.228  10.174 -0.0635 -0.4341 -0.3662
   25CHL1   H4A 1782   3.806   4.221  10.207  0.2722 -2.6894  0.3976
   25CHL1   H4B 1783   3.968   4.315  10.214  0.6027 -1.8522  1.9855
   25CHL1    C5 1784   3.922   4.219  10.026 -0.2432 -0.3775 -0.1759
   25CHL1    C6 1785   3.997   4.310   9.954 -0.0228 -0.4075 -0.5958
   25CHL1    H6 1786   4.051   4.397   9.993  0.0821 -1.0964  0.8524
   25CHL1    C7 1787   4.002   4.303   9.806 -0.0560 -0.2517  0.3897
   25CHL1   H7A 1788   3.984   4.409   9.778  0.6901  0.2172  1.5656
   25CHL1   H7B 1789   4.100   4.276   9.761 -0.2020 -0.6151  0.2826
   25CHL1    C8 1790   3.900   4.207   9.738  0.6725  0.0016  0.1244
   25CHL1    H8 1791   3.799   4.250   9.757  0.5370 -0.6471  0.9888
   25CHL1   C14 1792   3.923   4.181   9.589 -0.4318  0.7437 -0.6647
   25CHL1   H14 1793   4.023   4.134   9.583 -1.1916 -1.1079  0.3591
   25CHL1   C15 1794   3.942   4.307   9.500 -0.5774  0.1747  0.2181
   25CHL1  H15A 1795   3.861   4.382   9.516 -0.4603  0.4250 -0.3617
   25CHL1  H15B 1796   4.037   4.357   9.529 -0.7547  0.2328  0.7237
   25CHL1   C16 1797   3.944   4.255   9.363 -0.1549  0.0811 -1.1042
   25CHL1  H16A 1798   3.862   4.307   9.310 -1.4658  0.7160  1.4058
   25CHL1  H16B 1799   4.048   4.271   9.328  0.1810  0.9915  0.2426
   25CHL1   C17 1800   3.905   4.103   9.377 -0.4720 -0.0236  0.6086
   25CHL1   H17 1801   3.999   4.049   9.400 -0.2607  0.4691  0.8994
   25CHL1   C13 1802   3.828   4.093   9.512  0.0242  0.0850 -0.1904
   25CHL1   C18 1803   3.690   4.167   9.524 -0.3279 -0.6992  0.7188
   25CHL1  H18A 1804   3.606   4.114   9.474  0.2396 -0.0860 -0.9279
   25CHL1  H18B 1805   3.661   4.189   9.629 -1.2059  0.1858  0.3056
   25CHL1  H18C 1806   3.700   4.263   9.470  0.7835 -1.3344 -0.2383
   25CHL1   C12 1807   3.809   3.966   9.585  0.4564  0.5606 -0.1204
   25CHL1  H12A 1808   3.722   3.905   9.551  0.6858  0.6754 -0.9472
   25CHL1  H12B 1809   3.895   3.896   9.580 -0.7654 -1.2591  2.0900
   25CHL1   C11 1810   3.782   3.983   9.739 -0.2247 -0.0533 -0.1390
   25CHL1  H11A 1811   3.677   4.019   9.746 -0.5582 -0.9068 -0.5524
   25CHL1  H11B 1812   3.798   3.880   9.777 -0.9490  0.3867  1.4136
   25CHL1    C9 1813   3.886   4.074   9.809 -0.6837 -0.0944  1.1997
   25CHL1    H9 1814   3.982   4.019   9.806 -1.1193 -1.1003  3.3433
   25CHL1   C10 1815   3.859   4.090   9.965 -0.6992  0.2558  0.4860
   25CHL1   C19 1816   3.711   4.075  10.001  0.0635 -0.0088  0.0849
   25CHL1  H19A 1817   3.646   4.143   9.942 -0.1385 -0.6166 -0.4117
   25CHL1  H19B 1818   3.665   3.977   9.977  0.5600 -0.3554  0.5342
   25CHL1  H19C 1819   3.686   4.095  10.108 -0.8148 -2.4771  0.4085
   25CHL1    C1 1820   3.931   3.970  10.032  0.2150  0.2126  0.2455
   25CHL1   H1A 1821   3.891   3.870  10.006  2.1836 -0.4997 -0.2229
   25CHL1   H1B 1822   4.037   3.958  10.003  0.1730 -1.1759  0.5716
   25CHL1    C2 1823   3.921   3.979  10.183  0.5706  0.0940 -0.6763
   25CHL1   H2A 1824   3.993   3.899  10.212  0.8999  0.9480  1.0006
   25CHL1   H2B 1825   3.822   3.948  10.223  0.8684  0.6880  0.5887
   25CHL1   C20 1826   3.850   4.053   9.250  0.0014  0.1444  0.3521
   25CHL1   H20 1827   3.750   4.098   9.233 -2.1567 -3.5533  1.9863
   25CHL1   C21 1828   3.844   3.900   9.264 -0.2796 -0.1249  1.0164
   25CHL1  H21A 1829   3.766   3.861   9.333 -0.9237  1.6140  1.3360
   25CHL1  H21B 1830   3.937   3.850   9.298  0.0286 -1.5866 -1.7211
   25CHL1  H21C 1831   3.821   3.847   9.169  1.5857 -0.2599  0.5953
   25CHL1   C22 1832   3.928   4.103   9.126  0.1624  0.6416  0.0467
   25CHL1  H22A 1833   3.926   4.214   9.119  0.6948  0.8076  2.1329
   25CHL1  H22B 1834   4.029   4.057   9.127 -0.6889 -1.2949  0.3037
   25CHL1   C23 1835   3.860   4.052   8.991  0.1522 -0.3302 -0.4224
   25CHL1  H23A 1836   3.860   3.941   8.985 -1.7590 -0.3276 -1.3150
   25CHL1  H23B 1837   3.750   4.072   8.989 -0.1772 -1.4764  2.1166
   25CHL1   C24 1838   3.931   4.115   8.867  0.0167  0.0385  0.0449
   25CHL1  H24A 1839   3.908   4.223   8.881 -0.1188 -0.0911  0.8358
   25CHL1  H24B 1840   4.041   4.103   8.872  0.0961  0.4482 -0.5664
   25CHL1   C25 1841   3.895   4.053   8.739  0.7532 -0.0279  0.2482
   25CHL1   H25 1842   3.883   3.943   8.750  3.4723 -0.4640 -0.2820
   25CHL1   C26 1843   3.768   4.111   8.678  0.7040  0.0891  0.3227
   25CHL1  H26A 1844   3.753   4.067   8.577  1.5089 -0.3015  0.3704
   25CHL1  H26B 1845   3.683   4.093   8.747  0.8211  0.5628  0.5958
   25CHL1  H26C 1846   3.784   4.220   8.664  1.6775  0.1842  1.9899
   25CHL1   C27 1847   4.013   4.076   8.655  0.5608  0.4355  0.3522
   25CHL1  H27A 1848   4.113   4.068   8.701  0.3284 -1.2268  0.6265
   25CHL1  H27B 1849   4.021   3.999   8.575  2.4116 -1.6658  2.4196
   25CHL1  H27C 1850   4.009   4.181   8.621 -0.2238  0.1013 -0.6662
   26CHL1    C3 1851   6.233   4.096  10.131  0.1205 -0.1970  0.1052
   26CHL1    H3 1852   6.124   4.095  10.109 -0.3416  0.0787  2.1352
   26CHL1    O3 1853   6.258   4.073  10.271  0.0796 -0.3377  0.2984
   26CHL1   H3' 1854   6.345   4.052  10.305 -0.3807  2.1184  3.5400
   26CHL1    C4 1855   6.314   3.991  10.054  0.1413 -0.0153  0.7693
   26CHL1   H4A 1856   6.422   3.995  10.082  0.2619  1.9623  0.1697
   26CHL1   H4B 1857   6.271   3.891  10.077  0.4769 -0.5552 -0.8125
   26CHL1    C5 1858   6.298   4.027   9.910 -0.1523 -0.4299  1.1544
   26CHL1    C6 1859   6.230   3.957   9.821  0.0332 -0.1334 -0.3388
   26CHL1    H6 1860   6.188   3.866   9.866  0.4044  0.5979  1.5851
   26CHL1    C7 1861   6.233   3.984   9.672 -0.6446  0.0146 -0.0093
   26CHL1   H7A 1862   6.255   3.898   9.606 -2.3950 -1.3205  1.0729
   26CHL1   H7B 1863   6.133   4.022   9.643  0.4539  1.5025 -2.1228
   26CHL1    C8 1864   6.339   4.100   9.627 -0.2911  0.0894 -0.1433
   26CHL1    H8 1865   6.439   4.052   9.629 -0.7153 -0.7956  0.9678
   26CHL1   C14 1866   6.309   4.152   9.486  0.2180  0.0030  0.7266
   26CHL1   H14 1867   6.206   4.187   9.507  0.4977  2.4447 -1.5709
   26CHL1   C15 1868   6.295   4.049   9.376  0.1638 -0.1857 -0.5299
   26CHL1  H15A 1869   6.376   3.973   9.379 -1.0839 -1.5461 -0.2793
   26CHL1  H15B 1870   6.202   3.988   9.372  0.3783 -0.5213 -0.4563
   26CHL1   C16 1871   6.298   4.130   9.245 -0.5811 -0.4450 -0.2809
   26CHL1  H16A 1872   6.382   4.104   9.178  1.8345  3.4912  0.8780
   26CHL1  H16B 1873   6.204   4.127   9.184  0.1843  0.5590 -1.5774
   26CHL1   C17 1874   6.320   4.280   9.286 -0.2995  0.3195  0.1028
   26CHL1   H17 1875   6.219   4.320   9.310  0.3119  1.1085  1.4743
   26CHL1   C13 1876   6.395   4.263   9.419  0.8514  0.3784  0.1938
   26CHL1   C18 1877   6.532   4.210   9.390 -0.0984 -0.0980 -0.5345
   26CHL1  H18A 1878   6.606   4.291   9.408 -0.4016  0.7633 -2.8184
   26CHL1  H18B 1879   6.554   4.121   9.453 -1.8741 -0.4560 -0.3496
   26CHL1  H18C 1880   6.551   4.176   9.286 -0.1567 -1.5988 -0.0799
   26CHL1   C12 1881   6.397   4.384   9.514  0.4786 -0.7076  0.4957
   26CHL1  H12A 1882   6.473   4.458   9.481 -0.0403 -0.2508  0.2833
   26CHL1  H12B 1883   6.299   4.438   9.512 -0.1965 -1.9085 -0.1477
   26CHL1   C11 1884   6.428   4.331   9.657  0.5106 -0.0448 -0.2172
   26CHL1  H11A 1885   6.536   4.305   9.664  0.8712  1.4256 -0.0927
   26CHL1  H11B 1886   6.403   4.416   9.723  2.0884  0.3126 -0.0252
   26CHL1    C9 1887   6.337   4.217   9.715  0.1823  0.4676 -0.1565
   26CHL1    H9 1888   6.231   4.251   9.711  0.4273  1.1340 -1.2389
   26CHL1   C10 1889   6.360   4.169   9.865 -0.1797  0.1894 -0.4488
   26CHL1   C19 1890   6.508   4.161   9.892  0.1977 -0.3114 -0.0444
   26CHL1  H19A 1891   6.556   4.261   9.885  0.7636 -0.4949  0.9090
   26CHL1  H19B 1892   6.528   4.125   9.995 -1.9566  0.4700  0.6965
   26CHL1  H19C 1893   6.554   4.088   9.823  0.3223  0.1067 -0.4039
   26CHL1    C1 1894   6.282   4.271   9.953  0.0558  0.6565  0.6279
   26CHL1   H1A 1895   6.323   4.373   9.940  2.0949 -0.3477 -1.7614
   26CHL1   H1B 1896   6.178   4.279   9.915 -0.2372 -0.8280  1.0339
   26CHL1    C2 1897   6.288   4.233  10.097  0.5062  0.4638  0.7860
   26CHL1   H2A 1898   6.219   4.304  10.147  0.4476  1.3925 -0.5741
   26CHL1   H2B 1899   6.393   4.251  10.129 -0.0772  3.1376  1.4129
   26CHL1   C20 1900   6.370   4.365   9.167  0.6704  0.2995 -0.2496
   26CHL1   H20 1901   6.478   4.341   9.155  0.5331 -1.8945  1.9906
   26CHL1   C21 1902   6.345   4.509   9.205  0.5981 -0.4868 -0.1710
   26CHL1  H21A 1903   6.338   4.573   9.114  0.2961 -1.2530 -0.7040
   26CHL1  H21B 1904   6.426   4.551   9.269 -0.5239  0.4113  0.6949
   26CHL1  H21C 1905   6.251   4.518   9.263  0.3962  2.8426 -0.7885
   26CHL1   C22 1906   6.293   4.334   9.031  0.3132 -0.1998 -0.7953
   26CHL1  H22A 1907   6.292   4.225   9.008  1.7676 -0.5216  0.4699
   26CHL1  H22B 1908   6.196   4.383   9.048  1.6943  2.1199  0.9445
   26CHL1   C23 1909   6.350   4.413   8.911 -0.6352  0.0797  0.3244
   26CHL1  H23A 1910   6.334   4.522   8.921  0.1268  0.0938  1.5330
   26CHL1  H23B 1911   6.461   4.407   8.917 -0.3014  4.3406  2.1972
   26CHL1   C24 1912   6.311   4.363   8.774 -1.0284  0.2558  0.4287
   26CHL1  H24A 1913   6.355   4.262   8.767 -1.5775  0.0861 -1.0557
   26CHL1  H24B 1914   6.202   4.346   8.765 -0.6514 -3.0031  0.9498
   26CHL1   C25 1915   6.363   4.456   8.669 -0.4698 -0.5280  0.0072
   26CHL1   H25 1916   6.298   4.546   8.677 -1.1782 -1.1324  1.6278
   26CHL1   C26 1917   6.509   4.494   8.689 -0.3882  0.5585  0.0078
   26CHL1  H26A 1918   6.567   4.401   8.709  2.1261  1.6458 -1.7349
   26CHL1  H26B 1919   6.565   4.548   8.610  0.1760 -0.2749 -0.1785
   26CHL1  H26C 1920   6.519   4.566   8.772 -0.3389  1.8932 -1.1260
   26CHL1   C27 1921   6.356   4.386   8.535  0.2407  0.2255  0.4971
   26CHL1  H27A 1922   6.255   4.339   8.533 -1.5968  3.8643 -1.4334
   26CHL1  H27B 1923   6.380   4.454   8.450 -1.1613 -0.7153 -0.6906
   26CHL1  H27C 1924   6.439   4.312   8.531 -1.4861 -1.9774  2.2599
   27CHL1    C3 1925   4.302   3.215  10.613 -0.3698  0.0488 -0.0218
   27CHL1    H3 1926   4.321   3.106  10.606 -0.8138 -0.0042 -0.4976
   27CHL1    O3 1927   4.240   3.247  10.735 -0.0626 -0.8539  0.1522
   27CHL1   H3' 1928   4.321   3.259  10.785  2.3736 -0.0824 -3.6133
   27CHL1    C4 1929   4.423   3.300  10.582 -0.3929 -0.8506 -0.1441
   27CHL1   H4A 1930   4.399   3.406  10.604  2.1700 -0.5167  1.4270
   27CHL1   H4B 1931   4.500   3.275  10.658  0.0697  0.7025 -0.0674
   27CHL1    C5 1932   4.485   3.267  10.452  0.1001 -0.8546 -0.0982
   27CHL1    C6 1933   4.611   3.215  10.446  1.2709  0.7986  0.6957
   27CHL1    H6 1934   4.673   3.200  10.535  0.4910 -2.9534  0.7828
   27CHL1    C7 1935   4.674   3.182  10.312  0.5935  0.0181  0.3126
   27CHL1   H7A 1936   4.773   3.231  10.298  0.2873  0.2657 -1.1800
   27CHL1   H7B 1937   4.697   3.074  10.302 -0.0376 -0.0818 -0.1973
   27CHL1    C8 1938   4.595   3.235  10.188  0.5168  0.2825 -0.1136
   27CHL1    H8 1939   4.626   3.340  10.168  1.3255  0.1433  0.3728
   27CHL1   C14 1940   4.635   3.147  10.058 -0.3830  0.2641  0.4771
   27CHL1   H14 1941   4.618   3.041  10.084  0.5990  0.4835  2.1294
   27CHL1   C15 1942   4.785   3.143  10.018 -0.2289 -0.8558  0.2725
   27CHL1  H15A 1943   4.821   3.246  10.036 -0.0016 -0.7933 -0.4952
   27CHL1  H15B 1944   4.833   3.069  10.086 -0.2519 -1.8888 -0.7949
   27CHL1   C16 1945   4.781   3.097   9.874  0.0860  0.5087  0.5485
   27CHL1  H16A 1946   4.847   3.164   9.814  1.6375 -2.7828 -1.6859
   27CHL1  H16B 1947   4.822   2.995   9.880 -0.4709  0.3569  2.5044
   27CHL1   C17 1948   4.631   3.096   9.831 -0.1218  0.4165 -0.4191
   27CHL1   H17 1949   4.600   2.996   9.868  3.2617 -0.3841  0.5354
   27CHL1   C13 1950   4.558   3.183   9.927 -1.2377 -1.2110 -0.6527
   27CHL1   C18 1951   4.580   3.328   9.887  0.7597 -0.4235 -0.4305
   27CHL1  H18A 1952   4.685   3.338   9.851  0.9393  0.0565  0.1997
   27CHL1  H18B 1953   4.516   3.364   9.803 -1.5322  0.6367  1.6310
   27CHL1  H18C 1954   4.550   3.395   9.970  1.1446  0.6508 -1.1415
   27CHL1   C12 1955   4.415   3.167   9.954  0.2177 -0.1814 -0.1206
   27CHL1  H12A 1956   4.357   3.195   9.863  0.4996  0.0635 -0.2283
   27CHL1  H12B 1957   4.395   3.060   9.974  0.8425 -0.1395  0.7851
   27CHL1   C11 1958   4.361   3.248  10.071  0.7233 -0.6203 -0.4214
   27CHL1  H11A 1959   4.369   3.357  10.053  1.1170 -0.6893 -0.6839
   27CHL1  H11B 1960   4.253   3.224  10.081  1.2498 -3.2242 -0.1377
   27CHL1    C9 1961   4.439   3.221  10.202 -0.5366  0.1538 -0.8505
   27CHL1    H9 1962   4.429   3.112  10.221 -0.1759 -0.2458 -2.7011
   27CHL1   C10 1963   4.387   3.286  10.333 -0.1336 -0.2047 -0.3547
   27CHL1   C19 1964   4.372   3.433  10.316 -1.0426  0.3098 -0.2462
   27CHL1  H19A 1965   4.462   3.487  10.280 -0.4254 -0.9192 -0.5996
   27CHL1  H19B 1966   4.292   3.454  10.241 -1.9342  1.0815  0.8883
   27CHL1  H19C 1967   4.348   3.487  10.410  0.5746  0.6057  0.0241
   27CHL1    C1 1968   4.248   3.219  10.371  0.1709 -0.0059 -0.0651
   27CHL1   H1A 1969   4.174   3.245  10.293 -1.2097  0.3690  1.3095
   27CHL1   H1B 1970   4.269   3.110  10.360 -0.9043  0.0564 -5.0504
   27CHL1    C2 1971   4.191   3.234  10.508  0.2536 -0.2256  0.7345
   27CHL1   H2A 1972   4.109   3.161  10.520 -0.1366 -0.2441 -1.6515
   27CHL1   H2B 1973   4.149   3.336  10.513 -2.4211 -1.2781  1.0560
   27CHL1   C20 1974   4.588   3.093   9.680 -0.5171  0.4597  0.8435
   27CHL1   H20 1975   4.478   3.083   9.677 -0.3733 -1.6316  0.9305
   27CHL1   C21 1976   4.651   2.962   9.619  0.6953  0.1511  0.9829
   27CHL1  H21A 1977   4.646   2.965   9.508  0.9657 -0.5744  0.9417
   27CHL1  H21B 1978   4.601   2.869   9.656 -0.5549 -0.4267 -1.8523
   27CHL1  H21C 1979   4.761   2.956   9.637  1.2738 -0.7887 -2.2250
   27CHL1   C22 1980   4.626   3.209   9.588  0.1130 -0.1218  0.8750
   27CHL1  H22A 1981   4.617   3.304   9.645  1.3642  1.1802 -0.9683
   27CHL1  H22B 1982   4.733   3.216   9.557 -0.1668 -1.6580 -0.5519
   27CHL1   C23 1983   4.527   3.219   9.474 -0.2215 -0.1789  0.3450
   27CHL1  H23A 1984   4.525   3.120   9.424 -1.7182 -0.3620  0.7269
   27CHL1  H23B 1985   4.426   3.240   9.515  0.4126  1.0654  1.3345
   27CHL1   C24 1986   4.580   3.316   9.365  0.6735 -0.1864 -0.2205
   27CHL1  H24A 1987   4.578   3.414   9.416 -1.1035 -0.2320 -0.1328
   27CHL1  H24B 1988   4.684   3.289   9.336  0.7333  1.0444 -1.2685
   27CHL1   C25 1989   4.496   3.312   9.233 -0.1983  0.1487 -0.0337
   27CHL1   H25 1990   4.489   3.206   9.203 -0.0762 -0.2785  1.3711
   27CHL1   C26 1991   4.346   3.347   9.251  0.0977  0.2186  0.4451
   27CHL1  H26A 1992   4.300   3.363   9.152  2.5432 -0.1221 -0.8102
   27CHL1  H26B 1993   4.298   3.259   9.299  0.3150  0.7120  1.6090
   27CHL1  H26C 1994   4.336   3.436   9.318  1.5776 -0.2278  1.3053
   27CHL1   C27 1995   4.563   3.397   9.128 -0.0533 -0.5485  0.1224
   27CHL1  H27A 1996   4.664   3.368   9.091 -0.2086 -1.4015  0.3383
   27CHL1  H27B 1997   4.492   3.403   9.043 -0.7147 -0.5642  0.6632
   27CHL1  H27C 1998   4.578   3.502   9.161 -0.5557 -0.2623 -0.5283
   28CHL1    C3 1999   3.380   0.774  10.311  0.1331  0.3881 -0.3550
   28CHL1    H3 2000   3.462   0.702  10.288 -1.0069 -1.5389  1.2535
   28CHL1    O3 2001   3.363   0.763  10.451 -0.6393 -0.1635 -0.1721
   28CHL1   H3' 2002   3.331   0.852  10.468  3.0642  1.5273 -0.9815
   28CHL1    C4 2003   3.397   0.910  10.265 -0.5413 -0.4559  0.0500
   28CHL1   H4A 2004   3.330   0.986  10.311  1.2842  0.6143  1.0761
   28CHL1   H4B 2005   3.496   0.952  10.295 -0.4272  0.1870 -1.1873
   28CHL1    C5 2006   3.398   0.911  10.110  0.1663  0.2949  0.4808
   28CHL1    C6 2007   3.502   0.966  10.042  0.4998  0.0003 -0.1397
   28CHL1    H6 2008   3.592   1.002  10.093  0.5577 -0.0431 -0.2119
   28CHL1    C7 2009   3.492   0.975   9.890  0.1514  0.0968  0.3025
   28CHL1   H7A 2010   3.535   1.073   9.858  2.1775 -0.6880  0.4545
   28CHL1   H7B 2011   3.552   0.892   9.846 -1.7342 -0.2954 -1.6816
   28CHL1    C8 2012   3.348   0.969   9.831 -1.0341 -0.4948 -0.3754
   28CHL1    H8 2013   3.302   1.064   9.865  0.9355  0.0072  1.0936
   28CHL1   C14 2014   3.340   0.952   9.679 -1.0411 -0.2714  0.4355
   28CHL1   H14 2015   3.387   0.852   9.667 -0.5109 -0.0823  0.8934
   28CHL1   C15 2016   3.416   1.057   9.590 -0.0047  0.1406  0.1102
   28CHL1  H15A 2017   3.384   1.152   9.636 -0.0287  0.6515 -0.9351
   28CHL1  H15B 2018   3.527   1.055   9.596 -0.0731  0.4024  2.0819
   28CHL1   C16 2019   3.361   1.034   9.450 -1.1906 -0.3166  0.6537
   28CHL1  H16A 2020   3.320   1.131   9.413  1.8895  0.9914  0.3783
   28CHL1  H16B 2021   3.438   1.002   9.376  1.1529  2.7342  1.5694
   28CHL1   C17 2022   3.239   0.940   9.463  0.2753  0.2371  0.0698
   28CHL1   H17 2023   3.269   0.833   9.461  0.1014  0.1526  1.3560
   28CHL1   C13 2024   3.204   0.950   9.612 -0.0740 -0.5645  0.1880
   28CHL1   C18 2025   3.125   1.082   9.640  0.0058  0.2352 -0.0325
   28CHL1  H18A 2026   3.019   1.078   9.606  0.1677 -0.6061 -0.4625
   28CHL1  H18B 2027   3.127   1.095   9.750  0.0970 -1.3241  0.1706
   28CHL1  H18C 2028   3.172   1.165   9.583 -0.1116 -0.1330 -0.6758
   28CHL1   C12 2029   3.132   0.831   9.672  0.8428 -0.0151 -0.4479
   28CHL1  H12A 2030   3.024   0.818   9.654  0.7719 -0.4090  0.2403
   28CHL1  H12B 2031   3.172   0.740   9.622 -0.6289  0.2838 -2.2747
   28CHL1   C11 2032   3.127   0.828   9.831  0.5189 -0.2231 -0.1372
   28CHL1  H11A 2033   3.064   0.914   9.861 -0.7735 -1.6485  1.4055
   28CHL1  H11B 2034   3.079   0.739   9.876 -2.4515  0.0546 -2.4999
   28CHL1    C9 2035   3.269   0.854   9.892  0.2858 -0.5130  0.6424
   28CHL1    H9 2036   3.317   0.761   9.854 -0.9043 -0.3314 -1.4844
   28CHL1   C10 2037   3.273   0.855  10.046 -0.2279 -0.6484  0.2771
   28CHL1   C19 2038   3.159   0.948  10.098 -0.0421  0.2888 -0.9789
   28CHL1  H19A 2039   3.155   0.959  10.209 -0.4074 -0.7323 -0.8779
   28CHL1  H19B 2040   3.172   1.049  10.054 -2.7955 -0.0053 -2.6872
   28CHL1  H19C 2041   3.059   0.904  10.076 -0.1370  0.3633 -0.7003
   28CHL1    C1 2042   3.261   0.712  10.104  0.4519 -0.2146  0.0517
   28CHL1   H1A 2043   3.177   0.664  10.049  1.6354 -2.6624  0.2516
   28CHL1   H1B 2044   3.353   0.661  10.069  0.6677  0.5319 -0.4857
   28CHL1    C2 2045   3.252   0.709  10.257  0.0671  0.4950  0.4590
   28CHL1   H2A 2046   3.250   0.602  10.288  0.2920 -0.1192 -1.5031
   28CHL1   H2B 2047   3.157   0.760  10.284 -0.8480 -0.7474 -0.3038
   28CHL1   C20 2048   3.135   0.976   9.358  0.2861 -0.2097 -0.4851
   28CHL1   H20 2049   3.095   1.076   9.385  2.4603  0.9127 -1.1526
   28CHL1   C21 2050   3.013   0.881   9.361 -0.1498  0.4366  0.5043
   28CHL1  H21A 2051   3.057   0.779   9.360 -1.6436 -0.2320  0.6609
   28CHL1  H21B 2052   2.960   0.900   9.265  0.3261 -0.8600 -0.0377
   28CHL1  H21C 2053   2.953   0.903   9.452  0.5797  0.4648  0.9878
   28CHL1   C22 2054   3.186   0.986   9.208  0.5511  0.2523  0.3412
   28CHL1  H22A 2055   3.280   1.043   9.191  2.1417 -2.7056 -1.5871
   28CHL1  H22B 2056   3.191   0.882   9.170  0.0646  0.6739 -0.9305
   28CHL1   C23 2057   3.087   1.051   9.103 -0.2653 -0.2681 -0.1070
   28CHL1  H23A 2058   3.011   0.974   9.078 -0.8078  0.5404 -1.0492
   28CHL1  H23B 2059   3.039   1.140   9.149 -0.5843  0.2843 -1.4326
   28CHL1   C24 2060   3.163   1.080   8.976 -0.6584 -0.1704  0.0019
   28CHL1  H24A 2061   3.231   1.168   8.986  0.0273 -0.6752 -0.1040
   28CHL1  H24B 2062   3.243   1.004   8.959 -0.0268  0.1708  1.3126
   28CHL1   C25 2063   3.081   1.087   8.841  0.1677 -0.0553  0.1853
   28CHL1   H25 2064   3.140   1.136   8.760  0.6912 -0.2369  0.4574
   28CHL1   C26 2065   3.045   0.943   8.797  1.0728 -0.3410  0.0488
   28CHL1  H26A 2066   2.985   0.949   8.704  2.1864 -0.5035 -0.6937
   28CHL1  H26B 2067   3.133   0.886   8.761  0.7192  1.0912 -3.4864
   28CHL1  H26C 2068   2.986   0.896   8.879  3.5274 -2.0903  0.9515
   28CHL1   C27 2069   2.954   1.169   8.859 -0.3641  1.2380  0.8349
   28CHL1  H27A 2070   2.905   1.177   8.760  1.4105 -0.5829 -0.2741
   28CHL1  H27B 2071   2.882   1.122   8.929 -0.8495  0.8720  0.1005
   28CHL1  H27C 2072   2.972   1.269   8.903 -1.7401  1.2194  1.4914
   29CHL1    C3 2073   6.197   3.784   6.442  0.4149  0.8084 -0.6328
   29CHL1    H3 2074   6.250   3.873   6.482 -0.2727  1.5404 -1.3102
   29CHL1    O3 2075   6.202   3.780   6.299 -0.1160  0.2179 -0.0326
   29CHL1   H3' 2076   6.295   3.768   6.278 -0.1457 -0.2460  0.0804
   29CHL1    C4 2077   6.255   3.650   6.496  0.4640 -0.7187 -0.1176
   29CHL1   H4A 2078   6.201   3.569   6.441  0.6818  0.3627 -1.9976
   29CHL1   H4B 2079   6.364   3.637   6.476  0.7836  1.6022 -0.0639
   29CHL1    C5 2080   6.237   3.631   6.642  0.7381 -0.3621 -0.2434
   29CHL1    C6 2081   6.340   3.608   6.719  0.2810  0.2034 -0.2117
   29CHL1    H6 2082   6.441   3.600   6.675  0.3349  0.2202 -0.0943
   29CHL1    C7 2083   6.336   3.590   6.864 -0.0358  0.0963  0.1524
   29CHL1   H7A 2084   6.407   3.512   6.901  0.5022  0.9700  1.0109
   29CHL1   H7B 2085   6.382   3.680   6.910 -0.7086 -0.4973  2.0804
   29CHL1    C8 2086   6.198   3.564   6.917 -0.4277 -0.6777  0.1438
   29CHL1    H8 2087   6.174   3.459   6.892 -1.6525 -0.6210  0.9752
   29CHL1   C14 2088   6.191   3.563   7.062 -0.0479 -0.1194 -0.6082
   29CHL1   H14 2089   6.216   3.666   7.097  1.1025 -0.7868  0.6419
   29CHL1   C15 2090   6.295   3.462   7.132  0.0519  0.0500 -0.0890
   29CHL1  H15A 2091   6.298   3.360   7.089  0.6458 -0.0366  0.1361
   29CHL1  H15B 2092   6.401   3.497   7.133 -1.2194  4.4965 -0.0844
   29CHL1   C16 2093   6.243   3.460   7.268  0.1977 -0.0227 -0.3932
   29CHL1  H16A 2094   6.225   3.356   7.301 -1.8124  0.9872  2.1334
   29CHL1  H16B 2095   6.308   3.506   7.346 -1.4414 -1.6097  2.0388
   29CHL1   C17 2096   6.104   3.542   7.273 -0.2313  0.3684 -0.6250
   29CHL1   H17 2097   6.122   3.648   7.303 -1.6504  0.3776  0.2747
   29CHL1   C13 2098   6.057   3.535   7.132  0.5724 -0.3000  0.6825
   29CHL1   C18 2099   6.001   3.396   7.095 -0.1870 -0.8489  0.5401
   29CHL1  H18A 2100   6.079   3.322   7.124  0.4862  0.2480  1.6201
   29CHL1  H18B 2101   5.912   3.374   7.157 -0.4762  0.2285  0.5193
   29CHL1  H18C 2102   5.986   3.392   6.984  0.7051 -0.0887  0.3845
   29CHL1   C12 2103   5.961   3.648   7.086 -0.4016 -0.7860 -0.4187
   29CHL1  H12A 2104   5.864   3.626   7.135 -0.3369 -1.0483 -0.4109
   29CHL1  H12B 2105   6.004   3.743   7.123 -0.1524 -0.3853 -1.6863
   29CHL1   C11 2106   5.949   3.655   6.932  0.0458  0.3369  0.1448
   29CHL1  H11A 2107   5.879   3.577   6.895  1.6283 -0.8819 -0.4229
   29CHL1  H11B 2108   5.902   3.751   6.902 -0.1801 -0.1018 -0.9677
   29CHL1    C9 2109   6.092   3.656   6.857 -0.7998  0.3351  0.6661
   29CHL1    H9 2110   6.122   3.759   6.885 -2.1097  0.5887  1.1871
   29CHL1   C10 2111   6.092   3.660   6.700  0.4691 -0.1023  0.7596
   29CHL1   C19 2112   5.990   3.548   6.642 -0.0388  0.1106  0.0619
   29CHL1  H19A 2113   5.995   3.538   6.531  0.6740 -0.0704  0.1040
   29CHL1  H19B 2114   6.009   3.455   6.700  2.1478  0.1564 -0.4724
   29CHL1  H19C 2115   5.890   3.590   6.666 -0.0260  0.4983 -0.5260
   29CHL1    C1 2116   6.040   3.795   6.646  0.2584 -0.2355  0.3235
   29CHL1   H1A 2117   5.937   3.821   6.679 -0.3708 -0.9135 -1.0461
   29CHL1   H1B 2118   6.100   3.878   6.690 -1.5489  0.8652  0.8170
   29CHL1    C2 2119   6.047   3.811   6.490 -0.3534  0.1962 -0.1600
   29CHL1   H2A 2120   6.013   3.914   6.465  0.6175  0.0406 -2.3512
   29CHL1   H2B 2121   5.986   3.739   6.432  0.2595 -0.7779  0.3855
   29CHL1   C20 2122   6.018   3.480   7.382 -0.0344 -0.1380 -0.0102
   29CHL1   H20 2123   6.008   3.370   7.369  1.9507 -0.3767  0.2591
   29CHL1   C21 2124   5.878   3.540   7.388 -0.4874  0.3705 -0.9667
   29CHL1  H21A 2125   5.808   3.540   7.302 -1.1025 -2.0076 -0.5527
   29CHL1  H21B 2126   5.890   3.646   7.419  1.8621 -0.2004  0.3366
   29CHL1  H21C 2127   5.830   3.489   7.475 -0.6837 -0.1582 -1.3815
   29CHL1   C22 2128   6.083   3.479   7.525  0.2904  0.3779 -0.8696
   29CHL1  H22A 2129   6.024   3.430   7.606  2.8870  0.0707  0.9732
   29CHL1  H22B 2130   6.168   3.407   7.527  0.0389  0.0592  1.3819
   29CHL1   C23 2131   6.114   3.616   7.580 -0.4663  0.3564  0.0926
   29CHL1  H23A 2132   6.214   3.648   7.545  0.6081 -0.2640  2.4018
   29CHL1  H23B 2133   6.038   3.687   7.542  1.5780  2.6730  0.1198
   29CHL1   C24 2134   6.115   3.620   7.738  0.0404  0.1497  1.1009
   29CHL1  H24A 2135   6.016   3.577   7.765  1.4402 -3.1590  1.4991
   29CHL1  H24B 2136   6.187   3.548   7.783 -0.9837 -0.6885  1.4423
   29CHL1   C25 2137   6.118   3.757   7.802  0.3920 -0.2841  0.2616
   29CHL1   H25 2138   6.063   3.831   7.741 -0.0142 -0.4676  0.3991
   29CHL1   C26 2139   6.057   3.750   7.947 -0.7633 -0.7355  0.3611
   29CHL1  H26A 2140   6.127   3.701   8.018  0.0149  1.7750  1.4262
   29CHL1  H26B 2141   6.038   3.849   7.993  2.3498  1.6126 -2.8124
   29CHL1  H26C 2142   5.974   3.677   7.941 -0.6838 -0.7567 -0.6111
   29CHL1   C27 2143   6.258   3.818   7.807  0.2901  0.4771 -0.5198
   29CHL1  H27A 2144   6.255   3.926   7.832  0.2151  0.5260 -0.7370
   29CHL1  H27B 2145   6.321   3.768   7.884  0.3815 -0.7074 -1.3328
   29CHL1  H27C 2146   6.297   3.808   7.703  1.9901 -0.6120  0.1776
   30CHL1    C3 2147   0.819   1.999   7.135 -0.1161 -0.3443  0.0003
   30CHL1    H3 2148   0.871   2.096   7.121  2.4934 -1.4885  1.0266
   30CHL1    O3 2149   0.738   1.969   7.022 -0.1387 -0.2009 -0.4217
   30CHL1   H3' 2150   0.679   1.902   7.059  1.1885 -0.7593  0.7870
   30CHL1    C4 2151   0.943   1.902   7.150 -0.4038 -0.0989  0.1039
   30CHL1   H4A 2152   0.908   1.797   7.156 -0.0862 -0.3494 -1.6801
   30CHL1   H4B 2153   0.994   1.908   7.051  1.2635 -1.3301  0.8369
   30CHL1    C5 2154   1.031   1.933   7.275  0.5855 -0.2996  0.3175
   30CHL1    C6 2155   1.161   1.961   7.264  0.3367 -0.4588 -0.4395
   30CHL1    H6 2156   1.212   1.964   7.166  0.9032  1.9191 -0.1457
   30CHL1    C7 2157   1.252   1.989   7.386 -0.2656 -0.1045  0.3653
   30CHL1   H7A 2158   1.333   1.914   7.378  0.2464  0.5240 -0.4934
   30CHL1   H7B 2159   1.281   2.095   7.396  2.3278 -0.6484 -0.5772
   30CHL1    C8 2160   1.189   1.957   7.525 -0.1892  0.1749  0.4824
   30CHL1    H8 2161   1.180   1.848   7.544 -1.2676  0.5662  2.5521
   30CHL1   C14 2162   1.265   2.023   7.634  0.1625  0.5544 -0.1048
   30CHL1   H14 2163   1.269   2.132   7.614  1.8605  0.7833  1.2294
   30CHL1   C15 2164   1.420   1.988   7.633 -0.3975 -0.7162 -0.4929
   30CHL1  H15A 2165   1.434   1.881   7.608  3.4532 -0.2342 -0.9454
   30CHL1  H15B 2166   1.467   2.053   7.556 -0.1003 -1.4186 -0.9117
   30CHL1   C16 2167   1.458   2.016   7.779  0.2520  0.4071  0.2253
   30CHL1  H16A 2168   1.480   1.919   7.830 -2.5452 -0.5603 -0.2464
   30CHL1  H16B 2169   1.528   2.102   7.784  1.5231 -0.6070  0.6408
   30CHL1   C17 2170   1.319   2.067   7.852  0.0869 -0.0773  0.6585
   30CHL1   H17 2171   1.311   2.175   7.825  3.1436  0.0867 -0.0185
   30CHL1   C13 2172   1.201   2.002   7.777 -0.2757 -0.1405  0.4759
   30CHL1   C18 2173   1.184   1.861   7.806 -0.3244  0.2956  0.2573
   30CHL1  H18A 2174   1.115   1.813   7.734 -1.3486  0.7793  0.9002
   30CHL1  H18B 2175   1.271   1.792   7.800 -1.8959 -1.8023  0.5305
   30CHL1  H18C 2176   1.142   1.850   7.908  0.3730  0.6150  0.5887
   30CHL1   C12 2177   1.065   2.082   7.773 -0.5153  0.6922 -0.6952
   30CHL1  H12A 2178   1.015   2.082   7.872 -0.9732 -1.4675 -0.8872
   30CHL1  H12B 2179   1.086   2.188   7.748 -1.6434  1.0519 -0.1716
   30CHL1   C11 2180   0.974   2.029   7.657  0.5688 -0.0418  0.2224
   30CHL1  H11A 2181   0.913   1.940   7.682 -0.7303  0.1422 -1.9885
   30CHL1  H11B 2182   0.907   2.118   7.643  1.9734  1.0640  0.3125
   30CHL1    C9 2183   1.047   2.017   7.521  0.1543 -0.0573  0.1397
   30CHL1    H9 2184   1.047   2.119   7.477 -1.4086 -0.4848 -0.9568
   30CHL1   C10 2185   0.956   1.952   7.411 -0.5424  0.8525 -0.0559
   30CHL1   C19 2186   0.910   1.807   7.452 -0.3751 -0.6467 -0.4574
   30CHL1  H19A 2187   0.980   1.748   7.515 -1.2302  0.5005  1.6938
   30CHL1  H19B 2188   0.831   1.814   7.530 -1.6177  1.0470 -1.7858
   30CHL1  H19C 2189   0.860   1.759   7.366 -1.0084 -2.3973  0.8326
   30CHL1    C1 2190   0.826   2.042   7.392 -0.5766 -0.1395  0.1593
   30CHL1   H1A 2191   0.754   2.037   7.477 -0.2112  3.4664  0.8200
   30CHL1   H1B 2192   0.857   2.148   7.387  0.3978 -0.4239  0.0091
   30CHL1    C2 2193   0.745   2.001   7.265  0.5870  0.1725 -0.7907
   30CHL1   H2A 2194   0.665   2.076   7.250 -0.0735  0.3615  2.7498
   30CHL1   H2B 2195   0.693   1.907   7.290 -0.5854  1.7918  3.8300
   30CHL1   C20 2196   1.317   2.060   8.004 -0.3579 -0.3176 -0.6089
   30CHL1   H20 2197   1.216   2.086   8.041  0.7233  0.6458  1.8839
   30CHL1   C21 2198   1.415   2.167   8.061  0.7655  0.2836  0.1641
   30CHL1  H21A 2199   1.393   2.186   8.168  2.2504  1.2540  0.3228
   30CHL1  H21B 2200   1.415   2.262   8.004 -2.6654  0.4123  0.1868
   30CHL1  H21C 2201   1.515   2.118   8.065  0.7645  0.3385  0.9703
   30CHL1   C22 2202   1.341   1.926   8.083  0.4495 -0.6180 -0.2880
   30CHL1  H22A 2203   1.275   1.846   8.043  0.4016  0.7195 -3.1009
   30CHL1  H22B 2204   1.448   1.898   8.075  1.4722  2.4579  1.1171
   30CHL1   C23 2205   1.317   1.939   8.235 -0.7015 -0.4314 -0.1677
   30CHL1  H23A 2206   1.396   1.990   8.294 -0.3526 -1.7204  0.5122
   30CHL1  H23B 2207   1.216   1.981   8.256 -0.2419  1.0615 -0.8250
   30CHL1   C24 2208   1.324   1.797   8.305 -0.8092 -0.6912 -0.6146
   30CHL1  H24A 2209   1.227   1.743   8.296 -0.4901 -1.7940  1.7385
   30CHL1  H24B 2210   1.405   1.745   8.248 -0.8685 -0.7070 -0.6835
   30CHL1   C25 2211   1.350   1.795   8.457 -0.2905 -0.0968 -0.5422
   30CHL1   H25 2212   1.446   1.849   8.475 -0.3747 -0.4625  1.2165
   30CHL1   C26 2213   1.231   1.848   8.535  0.1334  0.3935 -0.4616
   30CHL1  H26A 2214   1.220   1.957   8.515 -0.8276  0.4746  0.3953
   30CHL1  H26B 2215   1.141   1.788   8.510  0.9358 -0.7833 -0.6429
   30CHL1  H26C 2216   1.247   1.841   8.645  0.4242 -1.6063 -0.5871
   30CHL1   C27 2217   1.376   1.649   8.511 -1.0444 -0.4701  0.2547
   30CHL1  H27A 2218   1.293   1.577   8.495 -0.3034 -1.2013 -0.4510
   30CHL1  H27B 2219   1.460   1.593   8.463 -0.2789  1.1513 -0.3813
   30CHL1  H27C 2220   1.387   1.650   8.621  0.1532  1.9559  0.1887
   31CHL1    C3 2221   6.442   5.606   6.686 -0.1002 -0.1016  1.1245
   31CHL1    H3 2222   6.472   5.500   6.700  2.2213  0.4577  0.8883
   31CHL1    O3 2223   6.425   5.608   6.546 -0.0716 -0.6254 -0.2634
   31CHL1   H3' 2224   6.347   5.556   6.526  1.3042 -2.9367 -0.0470
   31CHL1    C4 2225   6.316   5.651   6.752 -0.2868  0.3468  0.3460
   31CHL1   H4A 2226   6.307   5.755   6.713  1.5656  0.0070 -1.1669
   31CHL1   H4B 2227   6.232   5.584   6.722  1.6675 -2.4049  0.6254
   31CHL1    C5 2228   6.330   5.654   6.897  0.0154  0.4593 -0.4101
   31CHL1    C6 2229   6.245   5.579   6.981  0.2656  0.1089 -0.1970
   31CHL1    H6 2230   6.162   5.519   6.939 -0.4725  0.7813  0.2767
   31CHL1    C7 2231   6.253   5.588   7.133 -0.0517 -0.5062 -0.9240
   31CHL1   H7A 2232   6.152   5.613   7.172 -0.1386 -0.6039 -1.0871
   31CHL1   H7B 2233   6.286   5.493   7.180  1.6881  0.2451 -0.5439
   31CHL1    C8 2234   6.345   5.704   7.190  0.2759  0.4930 -0.1396
   31CHL1    H8 2235   6.287   5.797   7.173 -1.1087 -0.3520 -0.1867
   31CHL1   C14 2236   6.366   5.676   7.338  0.3430  0.1030 -0.1191
   31CHL1   H14 2237   6.427   5.584   7.351 -0.7631 -0.9046 -1.6576
   31CHL1   C15 2238   6.249   5.641   7.429 -0.2816 -0.8479 -0.2464
   31CHL1  H15A 2239   6.161   5.705   7.407 -0.3018 -1.3180 -1.7097
   31CHL1  H15B 2240   6.205   5.540   7.412  0.5282 -0.9426 -2.1131
   31CHL1   C16 2241   6.298   5.685   7.571 -0.1173  0.3318 -0.1096
   31CHL1  H16A 2242   6.234   5.764   7.615  1.9416  1.5642  0.7933
   31CHL1  H16B 2243   6.307   5.600   7.642 -0.5993  2.5307  2.7330
   31CHL1   C17 2244   6.451   5.727   7.557  0.7618 -0.4575  0.3133
   31CHL1   H17 2245   6.513   5.635   7.556 -0.4258 -1.2748  0.1651
   31CHL1   C13 2246   6.452   5.779   7.409 -0.0191  0.0673 -0.7588
   31CHL1   C18 2247   6.375   5.907   7.407 -0.0934  0.2184 -0.0807
   31CHL1  H18A 2248   6.337   5.941   7.308  0.0989  1.0574  0.1283
   31CHL1  H18B 2249   6.292   5.915   7.480  0.7849  0.3175  0.9167
   31CHL1  H18C 2250   6.442   5.992   7.429  0.4048 -0.5793  1.6087
   31CHL1   C12 2251   6.577   5.784   7.332 -0.4470 -1.5713 -0.3903
   31CHL1  H12A 2252   6.653   5.862   7.357 -0.0183 -1.7108 -1.2076
   31CHL1  H12B 2253   6.632   5.693   7.365  1.2440 -0.9681 -1.4233
   31CHL1   C11 2254   6.571   5.813   7.182 -0.6611 -0.2428 -0.2676
   31CHL1  H11A 2255   6.527   5.915   7.184  1.2944  0.6795 -1.4781
   31CHL1  H11B 2256   6.671   5.825   7.136 -0.2226 -4.8251 -0.9751
   31CHL1    C9 2257   6.472   5.714   7.105 -0.0484 -0.1666  0.2329
   31CHL1    H9 2258   6.528   5.619   7.110 -1.1497 -0.8238  0.3010
   31CHL1   C10 2259   6.449   5.740   6.952  0.8325 -0.0158  0.0525
   31CHL1   C19 2260   6.399   5.895   6.935  0.0819 -0.3574 -0.3920
   31CHL1  H19A 2261   6.475   5.963   6.979  0.9007 -2.2226  1.2364
   31CHL1  H19B 2262   6.381   5.924   6.829 -2.8432  1.5906  0.5192
   31CHL1  H19C 2263   6.303   5.910   6.989  0.4431  2.5110 -0.4226
   31CHL1    C1 2264   6.578   5.714   6.868 -0.5528 -0.6099  0.3414
   31CHL1   H1A 2265   6.659   5.786   6.894 -0.9016  0.5278 -1.5691
   31CHL1   H1B 2266   6.616   5.618   6.908  2.6633  0.3795 -0.0977
   31CHL1    C2 2267   6.561   5.701   6.718  0.3946 -0.6294  0.1082
   31CHL1   H2A 2268   6.662   5.667   6.687 -0.2926 -0.7493 -2.1742
   31CHL1   H2B 2269   6.550   5.806   6.684 -1.9063  0.3087  3.2476
   31CHL1   C20 2270   6.493   5.832   7.660 -0.0845  0.2416  0.0965
   31CHL1   H20 2271   6.436   5.926   7.651 -0.0568  0.1554 -1.0864
   31CHL1   C21 2272   6.643   5.854   7.647 -0.1082 -0.3629 -0.5810
   31CHL1  H21A 2273   6.683   5.903   7.556  0.6454 -2.1467 -1.2539
   31CHL1  H21B 2274   6.715   5.772   7.669 -1.1063 -0.9083  0.7688
   31CHL1  H21C 2275   6.668   5.920   7.733 -2.0148 -0.2858 -0.0416
   31CHL1   C22 2276   6.455   5.783   7.805  0.3511  0.0621 -0.1340
   31CHL1  H22A 2277   6.344   5.773   7.813  0.3834 -0.9207 -0.6781
   31CHL1  H22B 2278   6.497   5.682   7.823  0.0954 -0.2911 -1.4386
   31CHL1   C23 2279   6.496   5.877   7.922 -0.7843 -0.5860 -0.3243
   31CHL1  H23A 2280   6.605   5.892   7.935 -0.7780  0.3269 -1.3167
   31CHL1  H23B 2281   6.446   5.975   7.908 -0.3847 -0.4692 -0.9860
   31CHL1   C24 2282   6.462   5.816   8.064 -0.4586  0.6924  0.4002
   31CHL1  H24A 2283   6.355   5.787   8.066 -0.4755  0.7612  1.4960
   31CHL1  H24B 2284   6.525   5.725   8.072 -0.3325  0.7093 -0.3502
   31CHL1   C25 2285   6.474   5.907   8.187  0.1926  0.2671  0.2898
   31CHL1   H25 2286   6.397   5.986   8.181  0.0782  0.0696 -1.2326
   31CHL1   C26 2287   6.468   5.816   8.316 -0.3161 -0.6853  0.4560
   31CHL1  H26A 2288   6.550   5.742   8.307 -0.5431 -1.1338  1.8841
   31CHL1  H26B 2289   6.492   5.884   8.400 -1.4574  0.6058 -0.2179
   31CHL1  H26C 2290   6.368   5.768   8.328 -0.5214 -0.2276  0.5905
   31CHL1   C27 2291   6.611   5.989   8.182  0.6909 -0.2350  0.5818
   31CHL1  H27A 2292   6.698   5.920   8.174  0.3829 -0.7726  1.6579
   31CHL1  H27B 2293   6.620   6.056   8.270  0.0581  2.2775 -1.1565
   31CHL1  H27C 2294   6.607   6.057   8.095 -3.4264  0.6353  1.2215
   32CHL1    C3 2295   1.467   3.786   6.874  0.5828 -0.0469 -0.6127
   32CHL1    H3 2296   1.394   3.863   6.842 -2.8486 -2.6247  0.4698
   32CHL1    O3 2297   1.516   3.728   6.754 -0.8799 -0.0999 -0.4648
   32CHL1   H3' 2298   1.441   3.721   6.694 -2.7121  1.9492  1.4220
   32CHL1    C4 2299   1.588   3.852   6.954  0.0380  0.3126 -0.3828
   32CHL1   H4A 2300   1.668   3.775   6.947  1.1100  1.3238  0.4358
   32CHL1   H4B 2301   1.625   3.939   6.896  1.9283  0.3190  0.7345
   32CHL1    C5 2302   1.569   3.885   7.098 -0.0275 -0.2206 -0.9295
   32CHL1    C6 2303   1.609   4.008   7.137  0.2307 -0.5040  0.4804
   32CHL1    H6 2304   1.666   4.067   7.064 -1.0502 -0.9512 -0.9263
   32CHL1    C7 2305   1.586   4.055   7.275 -0.2302  0.1973 -0.7877
   32CHL1   H7A 2306   1.681   4.097   7.312 -1.2036  0.8234  1.1209
   32CHL1   H7B 2307   1.507   4.132   7.264  0.4073  0.6663 -2.2734
   32CHL1    C8 2308   1.535   3.940   7.375  0.4039 -0.4244 -0.4067
   32CHL1    H8 2309   1.620   3.870   7.391  0.1716 -0.1934  2.3111
   32CHL1   C14 2310   1.487   4.000   7.512 -0.4855 -0.5149  0.1977
   32CHL1   H14 2311   1.397   4.059   7.483 -1.5021 -2.3115 -0.4158
   32CHL1   C15 2312   1.584   4.085   7.587 -0.1509 -0.0543 -0.3731
   32CHL1  H15A 2313   1.678   4.026   7.584 -0.5072 -0.6754  0.3882
   32CHL1  H15B 2314   1.586   4.188   7.547 -1.0382  0.3495  0.5623
   32CHL1   C16 2315   1.523   4.090   7.731 -0.2724 -0.9983 -0.4685
   32CHL1  H16A 2316   1.601   4.056   7.803 -0.3719 -1.7750 -0.7125
   32CHL1  H16B 2317   1.488   4.191   7.762  0.2027 -1.5385  2.0738
   32CHL1   C17 2318   1.396   3.998   7.729 -0.0218 -0.2902 -0.4772
   32CHL1   H17 2319   1.308   4.054   7.690 -1.5696 -1.9629  0.4551
   32CHL1   C13 2320   1.427   3.899   7.611 -0.4279  0.5460  0.3352
   32CHL1   C18 2321   1.529   3.789   7.648 -0.1806 -0.3279  0.0557
   32CHL1  H18A 2322   1.476   3.732   7.727 -1.8662  2.7536  1.2877
   32CHL1  H18B 2323   1.556   3.715   7.568 -0.3695 -0.1079 -0.2128
   32CHL1  H18C 2324   1.626   3.810   7.698  0.8309 -0.6373 -1.6805
   32CHL1   C12 2325   1.308   3.839   7.540 -0.2587 -0.3295 -0.6766
   32CHL1  H12A 2326   1.253   3.775   7.613  0.8063 -0.4639  0.0354
   32CHL1  H12B 2327   1.246   3.925   7.507  1.7761  1.7113  0.5755
   32CHL1   C11 2328   1.340   3.761   7.414  0.1004 -0.5959 -0.8129
   32CHL1  H11A 2329   1.407   3.677   7.443  1.0660  0.2524 -0.5000
   32CHL1  H11B 2330   1.244   3.727   7.371 -0.7499 -2.5302  2.3164
   32CHL1    C9 2331   1.425   3.853   7.318  0.0120  0.3709  0.0763
   32CHL1    H9 2332   1.349   3.923   7.277 -1.5891 -1.9318 -1.0966
   32CHL1   C10 2333   1.476   3.787   7.188 -0.5774 -0.5086  0.2883
   32CHL1   C19 2334   1.570   3.664   7.218  0.0640 -0.8104  0.0372
   32CHL1  H19A 2335   1.659   3.700   7.274  0.6526 -1.6656 -0.3296
   32CHL1  H19B 2336   1.511   3.598   7.285  1.0307 -0.4162  1.3155
   32CHL1  H19C 2337   1.602   3.615   7.124  0.3266  0.8811 -0.7997
   32CHL1    C1 2338   1.352   3.736   7.105 -1.1705  0.2647  0.2714
   32CHL1   H1A 2339   1.307   3.650   7.159 -1.3566 -0.2406 -0.6604
   32CHL1   H1B 2340   1.272   3.812   7.088 -1.1548 -0.2218 -2.3123
   32CHL1    C2 2341   1.390   3.685   6.962 -0.0160  0.4546 -0.5658
   32CHL1   H2A 2342   1.300   3.645   6.911  0.2290 -1.0780  0.1457
   32CHL1   H2B 2343   1.462   3.602   6.977  0.5131  1.0034 -0.0241
   32CHL1   C20 2344   1.352   3.940   7.865 -0.1252 -0.2448  0.1653
   32CHL1   H20 2345   1.272   3.865   7.850  1.4305 -1.8248 -0.6211
   32CHL1   C21 2346   1.289   4.069   7.926  0.0838  0.0060  0.6523
   32CHL1  H21A 2347   1.352   4.159   7.912  0.8515 -0.3470  1.7740
   32CHL1  H21B 2348   1.267   4.068   8.035  0.1661  2.3288  0.7492
   32CHL1  H21C 2349   1.191   4.096   7.880 -0.0499  0.8607  1.4210
   32CHL1   C22 2350   1.465   3.895   7.965  1.1989 -0.2967  0.4186
   32CHL1  H22A 2351   1.542   3.856   7.895  0.2743  1.1509 -1.5088
   32CHL1  H22B 2352   1.504   3.993   8.000 -1.5224  1.6959 -1.6552
   32CHL1   C23 2353   1.439   3.803   8.079 -0.5214  0.5077 -0.1692
   32CHL1  H23A 2354   1.356   3.828   8.148  0.6483  1.4985  0.9292
   32CHL1  H23B 2355   1.415   3.708   8.026 -0.6274  0.4847 -0.0790
   32CHL1   C24 2356   1.574   3.782   8.154 -0.7025  0.7597  1.0387
   32CHL1  H24A 2357   1.657   3.781   8.080 -0.1384 -3.2439  1.4872
   32CHL1  H24B 2358   1.580   3.879   8.207  0.9315  1.2449  0.0339
   32CHL1   C25 2359   1.576   3.664   8.247 -0.7476  0.0630  0.5388
   32CHL1   H25 2360   1.531   3.571   8.204  2.0995 -2.0183  1.7214
   32CHL1   C26 2361   1.717   3.628   8.280  0.1342  0.1956 -0.6779
   32CHL1  H26A 2362   1.697   3.546   8.352 -5.4823  1.2226 -0.6294
   32CHL1  H26B 2363   1.789   3.592   8.203  2.3912  1.0232  0.9370
   32CHL1  H26C 2364   1.767   3.714   8.330  0.0806  0.2140 -0.6552
   32CHL1   C27 2365   1.504   3.697   8.372  0.2722 -0.6397 -0.3540
   32CHL1  H27A 2366   1.554   3.776   8.433 -1.9424 -0.9685  2.0779
   32CHL1  H27B 2367   1.406   3.735   8.334  1.7895  1.7054 -2.1790
   32CHL1  H27C 2368   1.486   3.609   8.437 -2.4974 -0.8020 -1.2149
   33CHL1    C3 2369   3.089   4.051   6.748 -0.0895  0.3532  0.1882
   33CHL1    H3 2370   3.126   3.975   6.821  1.4438  1.8195  1.0228
   33CHL1    O3 2371   3.118   4.014   6.619 -0.0111  0.0945 -0.3419
   33CHL1   H3' 2372   3.208   3.981   6.619 -0.9346 -2.7097 -1.2560
   33CHL1    C4 2373   2.936   4.059   6.770  0.2567 -0.4147 -0.5179
   33CHL1   H4A 2374   2.886   4.121   6.693 -2.7887 -1.8281  0.1379
   33CHL1   H4B 2375   2.894   3.958   6.747 -0.1657 -0.9051  2.0583
   33CHL1    C5 2376   2.912   4.101   6.914  0.0377 -0.1485  0.8498
   33CHL1    C6 2377   2.856   4.014   6.997  0.1484 -0.1751 -0.3701
   33CHL1    H6 2378   2.820   3.922   6.949 -2.5070  1.2168 -1.2582
   33CHL1    C7 2379   2.851   4.028   7.151  0.0434 -0.2179  0.5452
   33CHL1   H7A 2380   2.751   4.002   7.190 -1.0596  0.4125 -1.7136
   33CHL1   H7B 2381   2.936   3.972   7.198  1.5961  1.8821  0.3893
   33CHL1    C8 2382   2.877   4.175   7.189 -0.3156 -0.1689 -0.2410
   33CHL1    H8 2383   2.790   4.241   7.173  0.4001  1.2807  1.4233
   33CHL1   C14 2384   2.896   4.181   7.342 -0.4938  0.0357 -0.6705
   33CHL1   H14 2385   2.981   4.114   7.367 -0.4988 -0.4054 -1.8195
   33CHL1   C15 2386   2.791   4.118   7.430  0.2895  0.2944 -0.1436
   33CHL1  H15A 2387   2.698   4.163   7.389 -1.4196 -0.3695  2.7132
   33CHL1  H15B 2388   2.784   4.007   7.432  2.1524  0.1516  0.6297
   33CHL1   C16 2389   2.825   4.177   7.568 -0.4707 -0.6428 -0.2900
   33CHL1  H16A 2390   2.732   4.214   7.615 -0.0126  0.1082  0.0471
   33CHL1  H16B 2391   2.869   4.102   7.636 -1.0654 -2.0937 -1.4511
   33CHL1   C17 2392   2.924   4.296   7.551  0.0367  0.2543  0.2002
   33CHL1   H17 2393   3.023   4.247   7.565 -0.9106 -2.5844 -2.0979
   33CHL1   C13 2394   2.920   4.317   7.401 -0.2006  0.1024  0.3640
   33CHL1   C18 2395   2.801   4.417   7.383 -0.4775  0.3288 -0.1668
   33CHL1  H18A 2396   2.706   4.393   7.435 -1.4961  1.6771 -1.3567
   33CHL1  H18B 2397   2.837   4.513   7.425 -3.7622  1.7951 -0.4178
   33CHL1  H18C 2398   2.774   4.431   7.277  1.7209  0.6270 -0.7357
   33CHL1   C12 2399   3.047   4.366   7.337  0.7495 -0.2319  0.6083
   33CHL1  H12A 2400   3.066   4.475   7.349  1.9386  0.0560 -2.8192
   33CHL1  H12B 2401   3.137   4.314   7.377  2.0480 -0.2313 -2.0794
   33CHL1   C11 2402   3.059   4.348   7.183  0.7862 -0.8530 -0.3297
   33CHL1  H11A 2403   3.006   4.437   7.143  0.2955 -0.3465  1.3704
   33CHL1  H11B 2404   3.167   4.354   7.155  1.4412 -0.0965  2.0608
   33CHL1    C9 2405   3.004   4.220   7.124 -0.6860  0.2121  0.2796
   33CHL1    H9 2406   3.075   4.141   7.157 -0.2479  0.5803  0.2248
   33CHL1   C10 2407   2.996   4.223   6.972  0.1766  0.5676  0.9626
   33CHL1   C19 2408   2.925   4.353   6.919 -0.4516 -0.1677 -0.4282
   33CHL1  H19A 2409   2.977   4.450   6.938 -0.2460 -0.3006 -0.3152
   33CHL1  H19B 2410   2.911   4.346   6.810  1.1724 -3.0826 -0.5230
   33CHL1  H19C 2411   2.829   4.344   6.974  0.3537 -1.7307  0.7796
   33CHL1    C1 2412   3.139   4.226   6.914 -0.0395  0.3896  0.0097
   33CHL1   H1A 2413   3.160   4.335   6.916 -0.7393  0.5287  0.1249
   33CHL1   H1B 2414   3.211   4.175   6.981 -0.3609 -1.7268 -1.1599
   33CHL1    C2 2415   3.149   4.185   6.773  0.1697 -0.3687  0.3535
   33CHL1   H2A 2416   3.250   4.183   6.727  0.4875  1.9722  0.8217
   33CHL1   H2B 2417   3.104   4.260   6.705 -0.6137 -0.9273  0.2512
   33CHL1   C20 2418   2.912   4.408   7.653  0.3753 -0.4706 -0.4530
   33CHL1   H20 2419   2.812   4.455   7.636  1.0035  0.6378 -1.2320
   33CHL1   C21 2420   3.020   4.515   7.636  0.9372 -0.2434 -0.6501
   33CHL1  H21A 2421   3.009   4.574   7.543  1.6252  0.0357 -0.5654
   33CHL1  H21B 2422   3.119   4.465   7.630 -0.8091 -4.0774 -0.4380
   33CHL1  H21C 2423   3.017   4.586   7.722 -0.1475 -1.9904  0.8418
   33CHL1   C22 2424   2.917   4.356   7.801  0.8246 -0.7398  0.5890
   33CHL1  H22A 2425   2.918   4.442   7.871 -0.8427  2.5707 -3.0681
   33CHL1  H22B 2426   2.821   4.301   7.814 -0.0716 -0.1842 -2.7807
   33CHL1   C23 2427   3.032   4.258   7.827 -0.1471 -0.1924 -0.3697
   33CHL1  H23A 2428   3.029   4.163   7.770  1.9441  1.1468 -2.9021
   33CHL1  H23B 2429   3.127   4.294   7.783  1.2461 -1.6089  1.3401
   33CHL1   C24 2430   3.055   4.234   7.977  0.1588 -0.3555 -0.6582
   33CHL1  H24A 2431   3.114   4.141   7.989  1.9854  0.6430 -1.3324
   33CHL1  H24B 2432   3.115   4.322   8.011 -1.5887  0.4409  0.5305
   33CHL1   C25 2433   2.932   4.219   8.070 -1.3811 -0.0791 -0.0221
   33CHL1   H25 2434   2.869   4.310   8.055 -0.4536  0.4102 -1.0872
   33CHL1   C26 2435   2.849   4.099   8.024 -0.1426 -0.6342  0.1773
   33CHL1  H26A 2436   2.915   4.012   8.044  0.2292 -0.6527 -1.0836
   33CHL1  H26B 2437   2.768   4.091   8.100  0.3441 -1.4209  0.6243
   33CHL1  H26C 2438   2.813   4.105   7.919  0.4075  0.2382  0.0204
   33CHL1   C27 2439   2.978   4.211   8.224 -0.3361 -0.4505  0.5584
   33CHL1  H27A 2440   3.022   4.312   8.239  1.5272 -1.2425  0.7349
   33CHL1  H27B 2441   2.886   4.192   8.284 -0.6793 -1.1537 -0.1757
   33CHL1  H27C 2442   3.057   4.133   8.231 -0.2936 -0.2606  3.7451
   34CHL1    C3 2443   3.311   0.163   7.024  0.6679  0.1070 -0.5196
   34CHL1    H3 2444   3.258   0.065   7.028 -0.3627  0.5561 -2.2007
   34CHL1    O3 2445   3.370   0.160   6.898 -0.5428  0.2166 -0.1394
   34CHL1   H3' 2446   3.384   0.254   6.881 -1.3856  0.0619 -1.9481
   34CHL1    C4 2447   3.215   0.284   7.038  0.1601 -0.3421  0.3140
   34CHL1   H4A 2448   3.262   0.384   7.024  2.6095 -1.2896  1.1275
   34CHL1   H4B 2449   3.132   0.288   6.964  1.9534  1.6275 -1.7670
   34CHL1    C5 2450   3.160   0.289   7.177  0.0185 -0.3480  0.8198
   34CHL1    C6 2451   3.030   0.305   7.202 -0.1019 -0.2886  0.0365
   34CHL1    H6 2452   2.958   0.325   7.122 -0.3625 -1.7894 -0.1487
   34CHL1    C7 2453   2.968   0.319   7.337  0.2427  0.1305 -0.1600
   34CHL1   H7A 2454   2.911   0.412   7.358  0.3802  0.0244  0.7531
   34CHL1   H7B 2455   2.909   0.228   7.360  2.6090 -1.4732 -0.1069
   34CHL1    C8 2456   3.075   0.338   7.451  0.2462 -0.0929 -1.2360
   34CHL1    H8 2457   3.109   0.444   7.459  0.3160 -0.2502  1.1833
   34CHL1   C14 2458   3.011   0.306   7.587 -1.3629  0.9506  0.1577
   34CHL1   H14 2459   2.994   0.196   7.592  1.4773  0.3733 -1.0423
   34CHL1   C15 2460   2.880   0.365   7.617  0.8020  0.0091 -0.7833
   34CHL1  H15A 2461   2.876   0.474   7.594 -1.8429  0.4547  1.1831
   34CHL1  H15B 2462   2.797   0.314   7.564 -0.3745 -0.2473  1.2056
   34CHL1   C16 2463   2.869   0.352   7.770 -0.1500  0.1147  0.4285
   34CHL1  H16A 2464   2.871   0.448   7.826  0.9348  0.5526 -0.3070
   34CHL1  H16B 2465   2.780   0.290   7.792  0.8882 -1.7777 -0.4691
   34CHL1   C17 2466   3.003   0.284   7.812 -0.3439  0.0677  0.5594
   34CHL1   H17 2467   2.971   0.179   7.798  1.4976 -0.2721 -1.6552
   34CHL1   C13 2468   3.111   0.321   7.706  0.1461  0.3731 -0.2528
   34CHL1   C18 2469   3.159   0.471   7.738 -0.4522 -0.1065 -0.0363
   34CHL1  H18A 2470   3.179   0.529   7.646  2.2906 -1.2805 -0.2827
   34CHL1  H18B 2471   3.076   0.522   7.791  2.8637  4.9654  0.9854
   34CHL1  H18C 2472   3.244   0.465   7.810  0.2557 -0.4152 -0.8872
   34CHL1   C12 2473   3.224   0.228   7.685 -0.2877  0.4402 -0.2148
   34CHL1  H12A 2474   3.308   0.239   7.757  1.4518 -0.9091 -1.9295
   34CHL1  H12B 2475   3.191   0.122   7.693  2.3388 -0.3224  2.3838
   34CHL1   C11 2476   3.293   0.260   7.547 -0.8216 -0.9781  0.1046
   34CHL1  H11A 2477   3.341   0.360   7.556  1.0715 -1.6552 -1.6023
   34CHL1  H11B 2478   3.381   0.193   7.533 -1.2386 -1.2938 -1.0405
   34CHL1    C9 2479   3.198   0.248   7.430 -0.0584  0.1345  0.7258
   34CHL1    H9 2480   3.150   0.149   7.414 -0.2578  0.2516  0.5954
   34CHL1   C10 2481   3.263   0.265   7.286  0.4934  0.1252  0.0466
   34CHL1   C19 2482   3.338   0.398   7.297 -0.5462 -0.0202 -0.3476
   34CHL1  H19A 2483   3.418   0.394   7.374 -0.8245 -1.4994 -0.1001
   34CHL1  H19B 2484   3.396   0.406   7.203 -2.4996 -1.3152 -1.7137
   34CHL1  H19C 2485   3.281   0.491   7.314  0.8979  1.0355 -1.0514
   34CHL1    C1 2486   3.355   0.145   7.262 -0.8289  0.2424  0.7253
   34CHL1   H1A 2487   3.440   0.140   7.333 -0.5472  1.9322  0.5564
   34CHL1   H1B 2488   3.300   0.049   7.271 -0.3062 -0.1991 -0.5827
   34CHL1    C2 2489   3.427   0.161   7.125  0.5721 -0.5479 -0.5267
   34CHL1   H2A 2490   3.501   0.080   7.106  0.0247 -1.0454 -0.5835
   34CHL1   H2B 2491   3.484   0.255   7.108 -0.0923 -0.4554 -2.4696
   34CHL1   C20 2492   3.044   0.308   7.954  0.2814  0.2040  0.4910
   34CHL1   H20 2493   3.045   0.418   7.965 -1.1397  0.2932 -0.0427
   34CHL1   C21 2494   3.180   0.246   7.993 -0.1869  0.8650  0.0046
   34CHL1  H21A 2495   3.166   0.214   8.099 -0.4660 -0.7812 -0.5043
   34CHL1  H21B 2496   3.254   0.328   7.983  0.3419  0.5492  1.0716
   34CHL1  H21C 2497   3.196   0.153   7.935 -1.3887 -0.0234  1.0272
   34CHL1   C22 2498   2.929   0.274   8.054  0.0282  0.1145  0.2463
   34CHL1  H22A 2499   2.831   0.312   8.018  0.6265  0.5051 -1.0518
   34CHL1  H22B 2500   2.927   0.164   8.065  0.1204 -0.0859 -1.4179
   34CHL1   C23 2501   2.951   0.347   8.185 -0.6155  0.1541  0.5537
   34CHL1  H23A 2502   3.055   0.346   8.224 -0.6764  0.5480  0.7306
   34CHL1  H23B 2503   2.927   0.454   8.168 -0.0154  0.1203 -0.5953
   34CHL1   C24 2504   2.864   0.300   8.302  0.4366 -0.6046  0.0436
   34CHL1  H24A 2505   2.762   0.279   8.266 -0.2832 -0.7148  2.0639
   34CHL1  H24B 2506   2.909   0.204   8.334  0.8648 -0.0847  1.0393
   34CHL1   C25 2507   2.852   0.404   8.426  0.3261 -0.6971  0.4147
   34CHL1   H25 2508   2.791   0.490   8.391 -0.4182 -1.7175 -0.8908
   34CHL1   C26 2509   2.769   0.336   8.532 -0.1209 -0.5790 -0.3517
   34CHL1  H26A 2510   2.664   0.301   8.520 -0.2897 -0.0940 -0.3153
   34CHL1  H26B 2511   2.813   0.238   8.559 -2.7091 -1.3893  1.3343
   34CHL1  H26C 2512   2.766   0.397   8.624  1.0764 -2.5025  1.0506
   34CHL1   C27 2513   2.986   0.452   8.481 -0.0681 -0.5189 -0.1230
   34CHL1  H27A 2514   3.060   0.371   8.500  0.9260 -0.1517 -2.1798
   34CHL1  H27B 2515   3.023   0.532   8.414  1.7970 -0.5971  0.7605
   34CHL1  H27C 2516   2.972   0.507   8.577  0.3917 -0.0171 -0.3441
   35CHL1    C3 2517   5.234   1.744   7.425  0.3545  0.0286 -0.0552
   35CHL1    H3 2518   5.227   1.854   7.435 -0.8133 -0.1127  0.9700
   35CHL1    O3 2519   5.230   1.708   7.286 -0.2562  0.1495  0.4117
   35CHL1   H3' 2520   5.215   1.787   7.234 -1.5313  0.1752  0.7822
   35CHL1    C4 2521   5.362   1.702   7.491  0.7033 -0.7343 -0.1607
   35CHL1   H4A 2522   5.387   1.600   7.454 -0.0345 -1.8014  2.0880
   35CHL1   H4B 2523   5.432   1.774   7.444 -0.3189  0.3485 -0.0708
   35CHL1    C5 2524   5.375   1.722   7.638 -0.6445  0.5275  0.3692
   35CHL1    C6 2525   5.476   1.788   7.696  0.7425 -0.2679  0.1043
   35CHL1    H6 2526   5.554   1.841   7.639 -0.3878  2.8188  1.2055
   35CHL1    C7 2527   5.486   1.818   7.846  0.1449  0.3242  0.3247
   35CHL1   H7A 2528   5.588   1.810   7.889  0.2315  2.1831  0.5132
   35CHL1   H7B 2529   5.458   1.924   7.862  0.4014  0.3536  0.5835
   35CHL1    C8 2530   5.392   1.733   7.932 -0.4963 -0.5320 -0.6797
   35CHL1    H8 2531   5.455   1.642   7.942  3.0748  1.6066 -1.7096
   35CHL1   C14 2532   5.366   1.785   8.076 -0.8097  0.4922 -0.5146
   35CHL1   H14 2533   5.305   1.878   8.069 -1.1217  0.2230 -1.6066
   35CHL1   C15 2534   5.497   1.806   8.148  0.1556 -0.7575 -0.8169
   35CHL1  H15A 2535   5.557   1.713   8.133 -0.6513 -1.5457  0.6468
   35CHL1  H15B 2536   5.560   1.890   8.113  2.9662 -2.3663  0.0693
   35CHL1   C16 2537   5.450   1.818   8.296  0.2317  0.7496 -0.0777
   35CHL1  H16A 2538   5.520   1.771   8.368  0.4602  1.0113 -0.1261
   35CHL1  H16B 2539   5.443   1.923   8.332 -2.8707  0.2039  1.2342
   35CHL1   C17 2540   5.311   1.747   8.291 -0.0129 -0.3561  1.1867
   35CHL1   H17 2541   5.241   1.833   8.300  2.9774  2.3254  1.0214
   35CHL1   C13 2542   5.291   1.685   8.160 -0.1264  0.2403  0.2309
   35CHL1   C18 2543   5.341   1.534   8.144 -0.1598  0.1039 -0.7256
   35CHL1  H18A 2544   5.279   1.459   8.198 -4.3477  2.5146 -1.7934
   35CHL1  H18B 2545   5.350   1.487   8.044 -1.4137  0.4557 -1.0188
   35CHL1  H18C 2546   5.442   1.547   8.189 -0.8699 -0.4732  1.1588
   35CHL1   C12 2547   5.153   1.686   8.103 -0.1358  0.4107  0.0157
   35CHL1  H12A 2548   5.092   1.614   8.162  1.4150 -1.3992 -0.5287
   35CHL1  H12B 2549   5.098   1.783   8.112  0.1619  0.6888 -1.0459
   35CHL1   C11 2550   5.151   1.647   7.948  0.1067  0.4485  0.7706
   35CHL1  H11A 2551   5.171   1.538   7.938 -1.6574  0.2013 -0.6262
   35CHL1  H11B 2552   5.045   1.668   7.919  0.6481  1.0010 -0.9079
   35CHL1    C9 2553   5.257   1.722   7.859  0.2984  0.0905 -0.0515
   35CHL1    H9 2554   5.231   1.829   7.843  1.9595  0.7865  1.4966
   35CHL1   C10 2555   5.258   1.667   7.714 -0.2523  0.2814 -0.5212
   35CHL1   C19 2556   5.276   1.506   7.703 -0.4027  0.0080 -0.3281
   35CHL1  H19A 2557   5.364   1.478   7.765  1.1173  3.0685 -0.9058
   35CHL1  H19B 2558   5.185   1.451   7.734 -0.0007 -0.9028 -0.7469
   35CHL1  H19C 2559   5.303   1.470   7.602 -0.5636 -1.0999  0.0126
   35CHL1    C1 2560   5.124   1.702   7.648  0.1115 -0.2180  0.4588
   35CHL1   H1A 2561   5.035   1.651   7.691 -0.6401 -0.5538 -1.3579
   35CHL1   H1B 2562   5.123   1.813   7.644  2.2113 -0.2010 -1.2079
   35CHL1    C2 2563   5.122   1.667   7.492  0.5058  0.1487 -0.3052
   35CHL1   H2A 2564   5.024   1.695   7.450 -0.3682 -2.0378  0.1338
   35CHL1   H2B 2565   5.129   1.558   7.475  0.1615 -0.4374  2.6491
   35CHL1   C20 2566   5.262   1.671   8.409 -0.1704 -0.4431 -0.5453
   35CHL1   H20 2567   5.161   1.626   8.399 -0.3500 -0.6035  1.5210
   35CHL1   C21 2568   5.248   1.770   8.524  0.0195 -0.9064 -0.2366
   35CHL1  H21A 2569   5.162   1.841   8.519 -0.5159 -1.2966  2.4225
   35CHL1  H21B 2570   5.342   1.827   8.532 -0.6430  0.2057 -0.1492
   35CHL1  H21C 2571   5.249   1.712   8.618 -0.2212 -2.6041 -1.2305
   35CHL1   C22 2572   5.349   1.555   8.461  0.3522  0.0514 -0.2675
   35CHL1  H22A 2573   5.431   1.531   8.390  1.7865  0.5907  1.1350
   35CHL1  H22B 2574   5.414   1.590   8.544  3.6464 -3.5646 -1.0279
   35CHL1   C23 2575   5.277   1.422   8.480 -0.4069 -0.0882  0.2594
   35CHL1  H23A 2576   5.228   1.422   8.580  0.1792 -0.7059  0.5522
   35CHL1  H23B 2577   5.192   1.406   8.410 -1.2217 -0.3181  1.2652
   35CHL1   C24 2578   5.370   1.300   8.454  0.0896 -0.3391  0.0315
   35CHL1  H24A 2579   5.391   1.310   8.346  0.8790  2.6163  0.3821
   35CHL1  H24B 2580   5.461   1.306   8.518 -1.0718 -0.0572  1.7125
   35CHL1   C25 2581   5.311   1.158   8.483 -0.8568  0.0867  0.5059
   35CHL1   H25 2582   5.213   1.158   8.430 -0.6333  1.5902  0.0423
   35CHL1   C26 2583   5.405   1.052   8.416  0.5761  0.1112  0.0278
   35CHL1  H26A 2584   5.423   1.081   8.310  2.3041  2.1609  0.8025
   35CHL1  H26B 2585   5.501   1.046   8.471 -1.2400  0.0976  3.5154
   35CHL1  H26C 2586   5.346   0.958   8.418 -1.4136  1.2163 -1.7342
   35CHL1   C27 2587   5.301   1.133   8.633  0.0344 -0.7313 -0.0343
   35CHL1  H27A 2588   5.403   1.117   8.674  0.6478  2.1260 -0.2595
   35CHL1  H27B 2589   5.244   1.037   8.639  0.0828 -0.9180 -1.9291
   35CHL1  H27C 2590   5.239   1.212   8.681 -0.4711 -1.5592  0.7199
   36CHL1    C3 2591   5.458   1.029   7.112 -0.0049 -0.4625 -0.0225
   36CHL1    H3 2592   5.562   0.992   7.098  0.2648 -0.8770  2.5251
   36CHL1    O3 2593   5.385   1.040   6.986  0.5559  0.1376  0.4234
   36CHL1   H3' 2594   5.292   1.026   7.006 -0.3824  1.1652 -2.5843
   36CHL1    C4 2595   5.392   0.935   7.213  0.6546 -0.4812  0.0188
   36CHL1   H4A 2596   5.284   0.962   7.222  0.9848  0.6158  0.8857
   36CHL1   H4B 2597   5.407   0.832   7.173  1.6559 -0.9677  1.5639
   36CHL1    C5 2598   5.444   0.950   7.357  0.0041 -0.0803  0.3169
   36CHL1    C6 2599   5.481   0.847   7.435  0.3138 -0.1410  0.7762
   36CHL1    H6 2600   5.478   0.743   7.399  1.1241  0.2051 -0.3554
   36CHL1    C7 2601   5.526   0.855   7.579  0.1731 -0.1210  0.0417
   36CHL1   H7A 2602   5.492   0.766   7.636 -2.4109 -0.2140 -1.4900
   36CHL1   H7B 2603   5.637   0.845   7.573  0.5727  2.6951  1.2532
   36CHL1    C8 2604   5.490   0.999   7.642 -0.0787 -0.0313  0.1855
   36CHL1    H8 2605   5.379   0.995   7.652 -0.2129 -0.4444 -1.2218
   36CHL1   C14 2606   5.567   1.021   7.771 -0.4393 -0.0555  0.8341
   36CHL1   H14 2607   5.671   1.024   7.731 -0.9135 -0.3431 -0.4544
   36CHL1   C15 2608   5.563   0.905   7.874  0.6576  0.4300  0.4411
   36CHL1  H15A 2609   5.456   0.882   7.897  1.0699 -1.2929  0.8221
   36CHL1  H15B 2610   5.622   0.812   7.857 -1.3477 -1.0962  1.3670
   36CHL1   C16 2611   5.631   0.973   8.000 -0.3544  0.7249  0.5831
   36CHL1  H16A 2612   5.563   0.954   8.086 -0.1674 -1.2926  0.3112
   36CHL1  H16B 2613   5.725   0.921   8.027 -0.1581  0.6568 -0.2170
   36CHL1   C17 2614   5.656   1.126   7.956  0.6318  0.0999  0.5020
   36CHL1   H17 2615   5.760   1.129   7.917  0.4492  2.8676  0.0648
   36CHL1   C13 2616   5.555   1.152   7.843  0.2351  0.0308 -0.2385
   36CHL1   C18 2617   5.415   1.167   7.907 -0.5304  0.0931  0.6503
   36CHL1  H18A 2618   5.394   1.097   7.990  2.0087 -1.3208  0.1981
   36CHL1  H18B 2619   5.394   1.271   7.939  0.5455  0.3069  0.6985
   36CHL1  H18C 2620   5.344   1.159   7.822 -0.2421  1.2008  0.2841
   36CHL1   C12 2621   5.591   1.262   7.744 -0.0496  0.9501 -0.3122
   36CHL1  H12A 2622   5.560   1.361   7.782 -1.6931  0.4301 -0.2411
   36CHL1  H12B 2623   5.702   1.266   7.732 -0.0204  1.2302  0.0530
   36CHL1   C11 2624   5.516   1.249   7.610 -0.3119  0.2669 -0.0554
   36CHL1  H11A 2625   5.411   1.271   7.641 -0.1888 -0.0150  0.5855
   36CHL1  H11B 2626   5.546   1.328   7.538  0.6714  0.0235  0.0783
   36CHL1    C9 2627   5.527   1.109   7.544 -0.1968  0.5915  0.3617
   36CHL1    H9 2628   5.631   1.099   7.508 -1.2878  1.2533 -3.4047
   36CHL1   C10 2629   5.455   1.095   7.407  1.0228 -0.0982  0.5040
   36CHL1   C19 2630   5.309   1.148   7.435 -0.0202  0.1814 -0.0237
   36CHL1  H19A 2631   5.246   1.151   7.343 -1.3655  2.2090  0.9057
   36CHL1  H19B 2632   5.265   1.081   7.511 -2.0862 -0.0178 -1.3180
   36CHL1  H19C 2633   5.312   1.248   7.482 -1.1975 -0.1683  0.8339
   36CHL1    C1 2634   5.519   1.184   7.301  0.7426 -0.0499  0.1914
   36CHL1   H1A 2635   5.525   1.292   7.327 -0.6261  0.6005 -1.9162
   36CHL1   H1B 2636   5.628   1.162   7.300  0.1867 -3.4047  1.5980
   36CHL1    C2 2637   5.461   1.172   7.160  0.7849  0.7029  0.0514
   36CHL1   H2A 2638   5.510   1.232   7.080 -0.7311  0.7346 -0.9057
   36CHL1   H2B 2639   5.357   1.212   7.162 -0.3371 -1.9349 -0.5630
   36CHL1   C20 2640   5.656   1.215   8.083  0.0474  0.1462  0.0693
   36CHL1   H20 2641   5.555   1.197   8.125  0.3961 -1.8387  0.1792
   36CHL1   C21 2642   5.681   1.362   8.045 -0.3339 -0.7381  0.0657
   36CHL1  H21A 2643   5.612   1.404   7.970  0.4948  1.1240  0.2895
   36CHL1  H21B 2644   5.783   1.388   8.011  0.0098  0.3424  1.7893
   36CHL1  H21C 2645   5.651   1.422   8.134  0.3212 -0.3185  0.0082
   36CHL1   C22 2646   5.758   1.170   8.200  0.5043 -0.0080  0.0642
   36CHL1  H22A 2647   5.752   1.061   8.217  2.1909 -0.2169 -0.4407
   36CHL1  H22B 2648   5.862   1.205   8.180  1.0168  0.8852  3.5614
   36CHL1   C23 2649   5.721   1.237   8.336 -0.2902 -0.1465  0.6093
   36CHL1  H23A 2650   5.723   1.346   8.311  0.7788 -0.6548 -1.7896
   36CHL1  H23B 2651   5.612   1.221   8.348 -0.9054  1.2451 -2.1157
   36CHL1   C24 2652   5.805   1.189   8.451 -0.0206  0.5770 -0.2778
   36CHL1  H24A 2653   5.752   1.235   8.537  0.0800  1.6777 -0.7870
   36CHL1  H24B 2654   5.807   1.079   8.466  1.1655  0.9094  2.5116
   36CHL1   C25 2655   5.952   1.232   8.455 -0.5604 -0.2431 -0.4474
   36CHL1   H25 2656   6.006   1.197   8.364  2.2310  1.1802  0.5375
   36CHL1   C26 2657   5.960   1.389   8.438  0.4881 -0.1923 -0.5235
   36CHL1  H26A 2658   5.897   1.430   8.519  0.6617 -2.1428  0.6706
   36CHL1  H26B 2659   6.065   1.422   8.448 -0.2892  2.5304 -0.6239
   36CHL1  H26C 2660   5.920   1.427   8.342 -0.3203 -2.5282 -1.1943
   36CHL1   C27 2661   6.018   1.187   8.582 -0.2346 -1.4470 -0.1084
   36CHL1  H27A 2662   5.991   1.242   8.675  1.9287 -0.4113 -0.0327
   36CHL1  H27B 2663   5.995   1.079   8.596  0.1511 -1.4035  0.9507
   36CHL1  H27C 2664   6.128   1.203   8.579 -0.2411 -0.8265  1.6099
   37CHL1    C3 2665   3.296   2.520   7.008  0.4040  0.4937 -0.3763
   37CHL1    H3 2666   3.191   2.542   6.979 -0.0111  0.6423  1.1593
   37CHL1    O3 2667   3.388   2.521   6.896 -0.0909 -0.5035  0.0058
   37CHL1   H3' 2668   3.385   2.433   6.860 -1.2432 -0.2073 -0.6877
   37CHL1    C4 2669   3.337   2.639   7.087  0.0988  0.1227  0.7304
   37CHL1   H4A 2670   3.447   2.628   7.105  0.3857 -2.1875 -1.8222
   37CHL1   H4B 2671   3.336   2.732   7.026  0.2521 -1.9027 -2.6004
   37CHL1    C5 2672   3.262   2.658   7.217 -0.1908 -0.1572  1.2050
   37CHL1    C6 2673   3.189   2.766   7.240  0.1439  0.7251 -0.2743
   37CHL1    H6 2674   3.168   2.843   7.164  1.7711  1.3236 -0.1625
   37CHL1    C7 2675   3.103   2.802   7.361  0.0288 -0.0970 -0.7588
   37CHL1   H7A 2676   3.118   2.909   7.387  0.0607 -0.6036  1.4697
   37CHL1   H7B 2677   2.998   2.772   7.337 -0.3716 -1.0950  1.9040
   37CHL1    C8 2678   3.141   2.712   7.480 -0.2350 -0.2519  0.0462
   37CHL1    H8 2679   3.243   2.742   7.511  0.7560 -2.7121 -0.6025
   37CHL1   C14 2680   3.043   2.730   7.599 -0.2793 -0.1280 -0.4772
   37CHL1   H14 2681   2.947   2.704   7.551 -0.8372 -0.8906  0.9787
   37CHL1   C15 2682   3.011   2.868   7.653  0.7585  0.4702  0.2727
   37CHL1  H15A 2683   3.107   2.916   7.680  1.5979 -0.3203 -1.1633
   37CHL1  H15B 2684   2.967   2.929   7.571  3.6930 -0.8289 -2.4633
   37CHL1   C16 2685   2.927   2.842   7.776 -0.4276  0.3444 -0.1334
   37CHL1  H16A 2686   2.963   2.903   7.862  2.1074  0.9144 -1.5051
   37CHL1  H16B 2687   2.818   2.862   7.766 -0.1825  1.2665 -1.1681
   37CHL1   C17 2688   2.953   2.691   7.812  0.9658  0.5928 -0.2744
   37CHL1   H17 2689   2.856   2.647   7.781  0.7633  0.9342 -0.1341
   37CHL1   C13 2690   3.070   2.642   7.721 -0.0006  0.0855  0.2903
   37CHL1   C18 2691   3.200   2.685   7.788 -0.1878  0.4929  0.1014
   37CHL1  H18A 2692   3.183   2.787   7.827 -0.0255  0.9833 -1.0709
   37CHL1  H18B 2693   3.215   2.618   7.875  2.3057  1.0027  0.1295
   37CHL1  H18C 2694   3.294   2.676   7.731  0.0829  1.1836  0.4324
   37CHL1   C12 2695   3.062   2.496   7.665 -0.1900  0.4617 -0.0741
   37CHL1  H12A 2696   3.072   2.423   7.749  3.2932 -0.6951 -1.3128
   37CHL1  H12B 2697   2.962   2.489   7.618 -1.2507 -1.0448  2.1893
   37CHL1   C11 2698   3.164   2.466   7.552  0.3277 -0.4290 -0.2690
   37CHL1  H11A 2699   3.265   2.473   7.598 -0.4207 -1.3681  1.6625
   37CHL1  H11B 2700   3.158   2.360   7.518  1.2584  0.3138 -2.9638
   37CHL1    C9 2701   3.153   2.566   7.434 -0.4996  0.7187 -0.2363
   37CHL1    H9 2702   3.056   2.549   7.382  0.2632 -3.3658 -0.6490
   37CHL1   C10 2703   3.265   2.542   7.319  0.1912 -0.3594 -0.8201
   37CHL1   C19 2704   3.403   2.524   7.378 -0.0122 -0.1928 -0.6086
   37CHL1  H19A 2705   3.490   2.528   7.309  0.9720 -1.2736  0.5139
   37CHL1  H19B 2706   3.422   2.595   7.461  3.2917 -1.7771  0.1624
   37CHL1  H19C 2707   3.418   2.424   7.424  1.4753  0.1304 -0.3560
   37CHL1    C1 2708   3.228   2.413   7.239  0.2146 -0.1751 -0.2927
   37CHL1   H1A 2709   3.240   2.328   7.310 -0.8062  1.4687  1.9660
   37CHL1   H1B 2710   3.120   2.426   7.218 -0.4564 -2.7211  1.1873
   37CHL1    C2 2711   3.299   2.392   7.100 -0.1535  0.2746 -0.2141
   37CHL1   H2A 2712   3.253   2.313   7.039  1.7208 -1.7838  0.8867
   37CHL1   H2B 2713   3.404   2.365   7.127 -0.4146  0.0279  0.5957
   37CHL1   C20 2714   2.951   2.659   7.966  0.3102  0.2692  0.5526
   37CHL1   H20 2715   3.051   2.688   8.005  0.0445  1.6421  0.2636
   37CHL1   C21 2716   2.937   2.508   7.981  0.3592 -0.8659 -0.7022
   37CHL1  H21A 2717   2.850   2.460   7.932  0.4904 -2.1307  0.2607
   37CHL1  H21B 2718   2.917   2.494   8.089 -1.4574  0.7225 -0.7731
   37CHL1  H21C 2719   3.039   2.470   7.962  1.5572  1.4274  0.6660
   37CHL1   C22 2720   2.839   2.741   8.044 -0.3474 -0.9882  0.1417
   37CHL1  H22A 2721   2.856   2.848   8.020  0.7223 -1.0529  0.5582
   37CHL1  H22B 2722   2.739   2.730   7.997 -0.3981  2.0826 -0.6406
   37CHL1   C23 2723   2.843   2.732   8.196  0.3105 -0.4244  0.4183
   37CHL1  H23A 2724   2.814   2.632   8.234  1.1435 -1.3670 -1.3068
   37CHL1  H23B 2725   2.946   2.754   8.230  0.6815  0.1678 -1.0148
   37CHL1   C24 2726   2.730   2.824   8.254 -0.3399  0.3701 -0.0166
   37CHL1  H24A 2727   2.743   2.934   8.241 -1.1662  0.4939  0.1930
   37CHL1  H24B 2728   2.635   2.795   8.205 -0.7366  0.2628  0.8061
   37CHL1   C25 2729   2.709   2.806   8.413 -0.2621 -0.0279 -0.9946
   37CHL1   H25 2730   2.659   2.708   8.430  0.5360 -0.2829 -0.0465
   37CHL1   C26 2731   2.845   2.809   8.485 -0.8342  0.8934 -0.5080
   37CHL1  H26A 2732   2.845   2.769   8.589 -3.3969  0.0868 -0.7482
   37CHL1  H26B 2733   2.921   2.748   8.431 -0.8134 -2.5351  2.9145
   37CHL1  H26C 2734   2.878   2.915   8.486 -1.1515  1.0047 -1.2437
   37CHL1   C27 2735   2.608   2.910   8.469  0.1235 -0.1530  0.4258
   37CHL1  H27A 2736   2.595   2.906   8.579 -2.4239 -0.2859  0.1776
   37CHL1  H27B 2737   2.653   3.007   8.442  1.2225 -0.6258  0.5229
   37CHL1  H27C 2738   2.510   2.896   8.418 -0.8883  1.6460  1.7601
   38CHL1    C3 2739   4.608   5.704   6.540  1.2301  0.3363 -0.1869
   38CHL1    H3 2740   4.612   5.812   6.565  0.1680  0.0393  1.4223
   38CHL1    O3 2741   4.580   5.675   6.399  0.5230 -0.2058  0.0590
   38CHL1   H3' 2742   4.540   5.588   6.406 -2.3230  0.9645 -0.1096
   38CHL1    C4 2743   4.736   5.630   6.587 -0.3742  0.2589  0.1108
   38CHL1   H4A 2744   4.735   5.522   6.560  2.9420  0.1255  0.1693
   38CHL1   H4B 2745   4.803   5.679   6.513 -2.5817 -0.9803 -2.9367
   38CHL1    C5 2746   4.758   5.639   6.739  0.1531  0.5776  0.0139
   38CHL1    C6 2747   4.865   5.698   6.792 -0.3647  0.8996 -0.7575
   38CHL1    H6 2748   4.947   5.742   6.732 -0.6524  3.6912  0.7187
   38CHL1    C7 2749   4.891   5.700   6.939 -0.6221 -0.5983  0.2399
   38CHL1   H7A 2750   4.995   5.673   6.967  0.1722  2.8851  1.1729
   38CHL1   H7B 2751   4.893   5.806   6.972 -0.3441 -0.7082  0.5787
   38CHL1    C8 2752   4.793   5.620   7.028 -1.5051 -0.1689  0.1832
   38CHL1    H8 2753   4.822   5.514   7.017 -0.4402  0.2347 -1.2134
   38CHL1   C14 2754   4.800   5.675   7.170  0.1094  0.0476 -0.0822
   38CHL1   H14 2755   4.773   5.783   7.169  1.3239  0.3678 -1.2113
   38CHL1   C15 2756   4.941   5.683   7.237 -0.6682  0.4138  0.0060
   38CHL1  H15A 2757   5.000   5.590   7.221 -1.4287 -0.1420  0.3923
   38CHL1  H15B 2758   5.002   5.769   7.203 -0.5224 -0.3254 -1.7014
   38CHL1   C16 2759   4.905   5.670   7.384 -0.3497  0.2673  0.1192
   38CHL1  H16A 2760   4.955   5.593   7.446 -0.4608  0.2828  0.2282
   38CHL1  H16B 2761   4.942   5.764   7.431 -0.8693  0.0418  0.9934
   38CHL1   C17 2762   4.753   5.661   7.401 -0.0792 -0.5078  0.1193
   38CHL1   H17 2763   4.716   5.766   7.397  0.8332 -0.2083 -1.4551
   38CHL1   C13 2764   4.705   5.602   7.268  0.3141 -0.7112  0.4826
   38CHL1   C18 2765   4.740   5.455   7.263  0.3453  0.3907 -0.5907
   38CHL1  H18A 2766   4.713   5.405   7.168  2.4679 -0.4189 -0.8286
   38CHL1  H18B 2767   4.849   5.442   7.282  0.0399 -2.5412 -0.4378
   38CHL1  H18C 2768   4.688   5.395   7.341  1.0696 -0.4152 -0.7127
   38CHL1   C12 2769   4.557   5.632   7.211  0.2181  0.5612 -0.2660
   38CHL1  H12A 2770   4.478   5.591   7.278 -0.8906  1.5103 -0.9428
   38CHL1  H12B 2771   4.550   5.742   7.223  1.7693  0.7847 -1.1643
   38CHL1   C11 2772   4.536   5.592   7.065  0.2072  0.5137  0.2161
   38CHL1  H11A 2773   4.538   5.481   7.062  1.6549  0.4840  0.9660
   38CHL1  H11B 2774   4.435   5.623   7.032  0.1026 -1.0151 -0.9911
   38CHL1    C9 2775   4.656   5.639   6.975  0.5091 -0.4924 -0.4698
   38CHL1    H9 2776   4.652   5.750   6.976  1.7872 -0.4196  1.7940
   38CHL1   C10 2777   4.641   5.594   6.829  0.2363 -0.6624  0.0998
   38CHL1   C19 2778   4.630   5.438   6.833 -0.4615  0.6823 -0.2944
   38CHL1  H19A 2779   4.528   5.412   6.868 -0.0025 -0.0968  0.5300
   38CHL1  H19B 2780   4.620   5.408   6.726  0.9327 -3.0726  0.4635
   38CHL1  H19C 2781   4.708   5.387   6.894 -1.0013  1.4745  1.1019
   38CHL1    C1 2782   4.512   5.651   6.766  0.0943 -1.0996  0.1002
   38CHL1   H1A 2783   4.422   5.605   6.811  0.0470 -1.0350  0.0731
   38CHL1   H1B 2784   4.512   5.758   6.797 -0.4418 -0.6656 -1.2765
   38CHL1    C2 2785   4.491   5.636   6.610  0.1622  0.7757  0.2652
   38CHL1   H2A 2786   4.390   5.673   6.580 -0.0044 -0.2291 -0.4705
   38CHL1   H2B 2787   4.500   5.531   6.577  1.6738  0.7876  0.5725
   38CHL1   C20 2788   4.719   5.605   7.543 -0.2859  0.1774  0.5267
   38CHL1   H20 2789   4.773   5.508   7.550  0.1264  0.3074 -0.5633
   38CHL1   C21 2790   4.568   5.584   7.558  0.2719 -0.2581  0.6629
   38CHL1  H21A 2791   4.515   5.681   7.552 -1.4051 -1.1978 -1.6814
   38CHL1  H21B 2792   4.544   5.539   7.657  2.1808 -0.4573  1.0679
   38CHL1  H21C 2793   4.530   5.512   7.481  1.9019 -0.9222  0.4413
   38CHL1   C22 2794   4.774   5.685   7.664  0.1840  0.0582 -0.6185
   38CHL1  H22A 2795   4.885   5.694   7.654  0.3607 -1.9681 -1.0696
   38CHL1  H22B 2796   4.732   5.787   7.669  0.4274  0.0995  1.0277
   38CHL1   C23 2797   4.749   5.619   7.800  0.2324 -0.1486 -0.4880
   38CHL1  H23A 2798   4.640   5.604   7.817 -0.0605 -0.3353 -2.2973
   38CHL1  H23B 2799   4.784   5.513   7.807 -2.7308 -1.1073  2.3539
   38CHL1   C24 2800   4.806   5.709   7.910 -0.3005 -0.9126  0.6246
   38CHL1  H24A 2801   4.915   5.691   7.904  0.3677  2.5415  0.2621
   38CHL1  H24B 2802   4.800   5.817   7.884 -0.8767 -1.1426 -0.2599
   38CHL1   C25 2803   4.751   5.678   8.048  0.5155  0.5380  0.4655
   38CHL1   H25 2804   4.640   5.679   8.042  0.5091  2.0396  0.5356
   38CHL1   C26 2805   4.812   5.549   8.106 -0.5052  0.0974 -0.6426
   38CHL1  H26A 2806   4.775   5.454   8.062 -0.1820  0.1656 -1.0751
   38CHL1  H26B 2807   4.923   5.557   8.096 -0.6658  1.7592 -1.6172
   38CHL1  H26C 2808   4.795   5.544   8.215  0.5384  2.3054 -0.3233
   38CHL1   C27 2809   4.783   5.797   8.140 -0.2498 -0.6205 -0.1283
   38CHL1  H27A 2810   4.740   5.794   8.242 -1.3884 -2.6439 -0.6074
   38CHL1  H27B 2811   4.890   5.796   8.167 -0.3453  2.3417  0.6816
   38CHL1  H27C 2812   4.761   5.894   8.089 -0.4881 -0.2690  0.6325
   39CHL1    C3 2813   5.151   5.261   6.662  0.1007 -0.3163 -0.0175
   39CHL1    H3 2814   5.197   5.362   6.664 -0.9406  0.2653 -2.0387
   39CHL1    O3 2815   5.129   5.211   6.534  0.4166 -0.2298  0.8907
   39CHL1   H3' 2816   5.045   5.163   6.538  1.1049 -1.4008  1.8035
   39CHL1    C4 2817   5.259   5.177   6.735  0.0435  0.0306 -0.0333
   39CHL1   H4A 2818   5.224   5.071   6.733 -2.4397  0.8047 -0.7705
   39CHL1   H4B 2819   5.354   5.177   6.677 -1.3789  0.7562 -2.5424
   39CHL1    C5 2820   5.279   5.214   6.884  1.0290  1.4215  0.3771
   39CHL1    C6 2821   5.402   5.233   6.935  0.2277  0.5140  0.3186
   39CHL1    H6 2822   5.488   5.231   6.867 -0.3114  1.1130 -0.3960
   39CHL1    C7 2823   5.434   5.267   7.073 -0.0084 -1.4035  0.0493
   39CHL1   H7A 2824   5.521   5.212   7.115  1.0951 -0.1875 -0.5718
   39CHL1   H7B 2825   5.461   5.375   7.077 -2.0995 -0.6254 -3.2557
   39CHL1    C8 2826   5.317   5.237   7.163 -0.1740 -0.3453 -0.1141
   39CHL1    H8 2827   5.312   5.128   7.184  2.2416 -0.5326 -0.2362
   39CHL1   C14 2828   5.341   5.305   7.300  0.0452 -0.2397  0.6748
   39CHL1   H14 2829   5.335   5.414   7.279  0.4604 -0.5011 -0.9663
   39CHL1   C15 2830   5.478   5.285   7.368 -0.0032  0.4902  0.4419
   39CHL1  H15A 2831   5.519   5.182   7.366 -2.4794 -0.6594  2.1989
   39CHL1  H15B 2832   5.560   5.346   7.326  2.3575 -1.1833  2.3343
   39CHL1   C16 2833   5.453   5.324   7.516  0.1955  0.1049 -0.4125
   39CHL1  H16A 2834   5.470   5.233   7.579  0.7174 -1.4304 -2.6456
   39CHL1  H16B 2835   5.526   5.402   7.546 -0.1329  0.6501 -1.0071
   39CHL1   C17 2836   5.295   5.357   7.524 -0.8399 -0.1591  0.3003
   39CHL1   H17 2837   5.293   5.463   7.494  1.1548  0.0660  0.8093
   39CHL1   C13 2838   5.238   5.284   7.409  0.0158  0.0797 -0.1247
   39CHL1   C18 2839   5.221   5.145   7.454 -0.1018  0.3759  0.7182
   39CHL1  H18A 2840   5.201   5.082   7.365  0.8443  0.3556  0.5176
   39CHL1  H18B 2841   5.317   5.101   7.486 -0.3665 -2.7408 -2.2041
   39CHL1  H18C 2842   5.142   5.116   7.528 -0.0134  0.3195  0.7915
   39CHL1   C12 2843   5.106   5.338   7.350  1.4365 -0.7143  0.5583
   39CHL1  H12A 2844   5.022   5.334   7.422  1.0903 -1.1293  0.1357
   39CHL1  H12B 2845   5.113   5.446   7.322 -3.3788 -0.0960  0.8845
   39CHL1   C11 2846   5.070   5.264   7.221  0.0321  0.0791  0.9120
   39CHL1  H11A 2847   5.067   5.155   7.242 -1.1695 -0.2225 -0.6087
   39CHL1  H11B 2848   4.967   5.289   7.187  0.7817  1.8865 -0.2155
   39CHL1    C9 2849   5.179   5.275   7.108  0.1238 -0.2285  0.0365
   39CHL1    H9 2850   5.178   5.386   7.095 -0.1746 -0.1435  0.7167
   39CHL1   C10 2851   5.146   5.217   6.970  0.4038 -0.0719  0.2358
   39CHL1   C19 2852   5.090   5.073   6.996 -0.0326  0.4475 -0.1006
   39CHL1  H19A 2853   5.173   5.013   7.040  1.5627  1.9081 -1.0222
   39CHL1  H19B 2854   5.001   5.061   7.061  1.7296 -2.7181  1.9933
   39CHL1  H19C 2855   5.078   5.020   6.899  0.5228  0.4248 -0.1558
   39CHL1    C1 2856   5.043   5.299   6.899 -0.2082  0.8115  0.6934
   39CHL1   H1A 2857   4.948   5.309   6.956 -1.5862  0.6606 -1.4588
   39CHL1   H1B 2858   5.084   5.402   6.887  4.3547 -0.9327 -0.5476
   39CHL1    C2 2859   5.020   5.258   6.747 -0.0392  0.1865 -0.5779
   39CHL1   H2A 2860   4.949   5.332   6.706  1.1646  1.1613 -0.9591
   39CHL1   H2B 2861   4.971   5.158   6.742 -0.2650  0.3589 -3.3890
   39CHL1   C20 2862   5.229   5.348   7.665  0.2947 -0.0394 -0.2070
   39CHL1   H20 2863   5.222   5.241   7.694  0.5558  0.3477  1.4387
   39CHL1   C21 2864   5.101   5.422   7.659  0.6003  0.1921  0.0264
   39CHL1  H21A 2865   5.009   5.366   7.632 -0.9277  2.4594  0.2667
   39CHL1  H21B 2866   5.107   5.507   7.587  3.9236 -2.3798 -3.0952
   39CHL1  H21C 2867   5.083   5.457   7.763  1.8866 -1.0154  0.6873
   39CHL1   C22 2868   5.318   5.408   7.775 -0.4935  0.1519  0.5770
   39CHL1  H22A 2869   5.420   5.365   7.768  0.2701  2.0340 -0.5943
   39CHL1  H22B 2870   5.327   5.518   7.762  0.1500  0.1413  0.8693
   39CHL1   C23 2871   5.283   5.381   7.916  0.8769 -0.1562 -0.5074
   39CHL1  H23A 2872   5.174   5.383   7.937  0.6935 -0.8714 -1.3501
   39CHL1  H23B 2873   5.308   5.274   7.931  0.0992 -0.6470 -2.3388
   39CHL1   C24 2874   5.374   5.465   8.005  0.1589 -0.9393 -0.3063
   39CHL1  H24A 2875   5.480   5.449   7.973  0.2975 -0.4887 -0.0861
   39CHL1  H24B 2876   5.339   5.569   7.987  0.9208 -0.7260 -0.6219
   39CHL1   C25 2877   5.363   5.439   8.160  0.2514 -0.0606  0.3488
   39CHL1   H25 2878   5.389   5.336   8.190  0.0109  0.4977  2.6350
   39CHL1   C26 2879   5.456   5.541   8.218  0.1251 -0.3282  0.7048
   39CHL1  H26A 2880   5.560   5.541   8.178 -0.3317  2.0738 -0.7022
   39CHL1  H26B 2881   5.412   5.643   8.218 -2.0425 -1.1200 -2.1663
   39CHL1  H26C 2882   5.469   5.516   8.325  1.8534  0.6475  0.7785
   39CHL1   C27 2883   5.223   5.449   8.207  0.4590 -0.3123 -0.3245
   39CHL1  H27A 2884   5.163   5.540   8.185  1.7624  1.0226  1.4152
   39CHL1  H27B 2885   5.167   5.366   8.158  0.4795  0.2898 -1.3994
   39CHL1  H27C 2886   5.222   5.430   8.317 -0.3073  0.9445 -0.0907
   40CHL1    C3 2887   1.582   3.184   6.681  0.4299 -0.4052 -0.8838
   40CHL1    H3 2888   1.677   3.225   6.721  2.4183 -2.7210 -2.9342
   40CHL1    O3 2889   1.597   3.148   6.548  0.4205 -0.3703  0.1594
   40CHL1   H3' 2890   1.642   3.220   6.504 -0.1517  0.5909  1.0939
   40CHL1    C4 2891   1.561   3.062   6.760 -0.1080  0.2550 -0.3107
   40CHL1   H4A 2892   1.475   3.011   6.713 -0.4616  0.2591  0.3209
   40CHL1   H4B 2893   1.649   2.997   6.738 -0.3148 -0.3254  0.5366
   40CHL1    C5 2894   1.535   3.086   6.907 -0.5106  0.7833 -0.2192
   40CHL1    C6 2895   1.604   3.024   7.003 -0.6011  0.0501  0.9280
   40CHL1    H6 2896   1.671   2.941   6.975 -1.2771  0.1454 -1.1429
   40CHL1    C7 2897   1.587   3.030   7.148 -0.2489  0.2761 -0.1204
   40CHL1   H7A 2898   1.594   2.932   7.199  2.2203  1.4716  2.0529
   40CHL1   H7B 2899   1.675   3.075   7.199 -1.0955 -0.0731  1.7194
   40CHL1    C8 2900   1.469   3.107   7.190  0.3790 -0.5806  0.0463
   40CHL1    H8 2901   1.378   3.045   7.181 -0.4564  0.3668  1.4378
   40CHL1   C14 2902   1.486   3.158   7.334  0.1851  0.1004 -0.5021
   40CHL1   H14 2903   1.566   3.235   7.331  0.8195 -0.5637 -3.1884
   40CHL1   C15 2904   1.525   3.052   7.443 -0.1714 -0.4051 -0.1260
   40CHL1  H15A 2905   1.493   2.954   7.401 -2.7808  0.7035 -0.9548
   40CHL1  H15B 2906   1.633   3.070   7.457 -0.8523  3.5085  1.4406
   40CHL1   C16 2907   1.452   3.092   7.570 -0.3536 -0.9539 -0.1846
   40CHL1  H16A 2908   1.372   3.017   7.584 -2.0298  0.5732 -1.1007
   40CHL1  H16B 2909   1.509   3.092   7.665  2.6483 -1.2544 -1.8598
   40CHL1   C17 2910   1.395   3.232   7.535 -0.2253  0.5848 -0.0971
   40CHL1   H17 2911   1.490   3.290   7.544  0.4960 -0.6258  0.3390
   40CHL1   C13 2912   1.361   3.221   7.389  0.1558  0.8293 -1.0890
   40CHL1   C18 2913   1.242   3.131   7.378  0.6896  0.4306 -0.7803
   40CHL1  H18A 2914   1.158   3.179   7.432  1.2702  0.9642 -0.3433
   40CHL1  H18B 2915   1.212   3.125   7.271 -0.3804 -1.8487 -0.4324
   40CHL1  H18C 2916   1.255   3.028   7.418 -0.5193  0.7017  0.4097
   40CHL1   C12 2917   1.340   3.350   7.301 -0.4061  0.0919 -0.8357
   40CHL1  H12A 2918   1.238   3.390   7.320 -1.2776 -1.0403 -2.7936
   40CHL1  H12B 2919   1.432   3.407   7.326  1.4921 -3.5599  1.3723
   40CHL1   C11 2920   1.345   3.326   7.147  0.0262 -0.1976 -0.1115
   40CHL1  H11A 2921   1.243   3.302   7.110 -0.4426  1.1174  0.2719
   40CHL1  H11B 2922   1.366   3.423   7.097 -1.1786  0.0140 -0.2295
   40CHL1    C9 2923   1.449   3.229   7.096 -0.0526  0.1356 -0.6480
   40CHL1    H9 2924   1.545   3.286   7.098  0.8133 -1.1170 -2.9204
   40CHL1   C10 2925   1.432   3.198   6.946  0.3761  0.1591  0.8826
   40CHL1   C19 2926   1.293   3.130   6.918 -0.2007 -1.1431 -0.1590
   40CHL1  H19A 2927   1.207   3.174   6.973  0.4573 -1.5735  1.2793
   40CHL1  H19B 2928   1.275   3.109   6.811  0.3910 -0.7809 -0.3369
   40CHL1  H19C 2929   1.286   3.030   6.965 -0.5195 -1.1286 -0.1772
   40CHL1    C1 2930   1.458   3.324   6.860  0.2936  0.2362  0.0966
   40CHL1   H1A 2931   1.369   3.389   6.865  0.2790  0.3368 -1.1884
   40CHL1   H1B 2932   1.552   3.374   6.893  0.4189  1.0435 -1.3727
   40CHL1    C2 2933   1.478   3.295   6.709  0.7922  0.6097  0.2168
   40CHL1   H2A 2934   1.489   3.392   6.655  0.0137  1.1338  0.9877
   40CHL1   H2B 2935   1.382   3.259   6.666  0.7996 -0.6084  1.1794
   40CHL1   C20 2936   1.301   3.293   7.637  0.1193  0.0766 -0.1691
   40CHL1   H20 2937   1.199   3.250   7.622  0.8359 -1.6594 -0.3527
   40CHL1   C21 2938   1.285   3.447   7.612 -0.3323  1.0952 -0.3737
   40CHL1  H21A 2939   1.376   3.505   7.638  0.4732  0.4139 -1.5911
   40CHL1  H21B 2940   1.199   3.480   7.675  0.3429  0.4984  0.9090
   40CHL1  H21C 2941   1.260   3.480   7.509 -1.9090  0.9564 -0.0681
   40CHL1   C22 2942   1.334   3.254   7.784  0.1169  0.3506  0.1692
   40CHL1  H22A 2943   1.338   3.144   7.797 -1.6266  0.3905  1.2959
   40CHL1  H22B 2944   1.428   3.299   7.824 -0.7059  2.1834  0.1050
   40CHL1   C23 2945   1.223   3.309   7.871  1.0555 -0.0702  0.1072
   40CHL1  H23A 2946   1.217   3.420   7.871 -0.4107 -0.0601  2.8218
   40CHL1  H23B 2947   1.125   3.271   7.834  1.0019  0.1200  0.0517
   40CHL1   C24 2948   1.229   3.284   8.020  0.5449 -0.1428 -0.0083
   40CHL1  H24A 2949   1.232   3.176   8.049 -0.1434  0.3827  2.1617
   40CHL1  H24B 2950   1.319   3.328   8.069 -0.5469  0.8749  1.1357
   40CHL1   C25 2951   1.112   3.362   8.095 -0.3384 -0.6164 -0.3634
   40CHL1   H25 2952   1.018   3.351   8.036 -0.6001  2.6609 -0.7442
   40CHL1   C26 2953   1.097   3.297   8.235  0.0314  0.2495 -0.0336
   40CHL1  H26A 2954   1.188   3.239   8.261 -0.6948 -1.3341 -0.8569
   40CHL1  H26B 2955   1.077   3.381   8.304  1.5210  1.5758 -1.1322
   40CHL1  H26C 2956   1.013   3.224   8.243  1.7917 -1.6906  2.4533
   40CHL1   C27 2957   1.150   3.514   8.102  0.1765 -0.4836  0.0426
   40CHL1  H27A 2958   1.252   3.525   8.144  0.8929  1.0934 -1.9725
   40CHL1  H27B 2959   1.157   3.562   8.002 -0.9182  1.5156  0.8520
   40CHL1  H27C 2960   1.084   3.577   8.167 -1.2716 -0.0318 -1.7716
   41CHL1    C3 2961   1.876   1.715   7.117  0.2001 -0.0713  0.6791
   41CHL1    H3 2962   1.968   1.770   7.145  0.8378 -0.2293 -1.0111
   41CHL1    O3 2963   1.866   1.684   6.981 -0.4448 -0.3394  0.4057
   41CHL1   H3' 2964   1.777   1.649   6.975 -0.2369 -1.1276  1.5590
   41CHL1    C4 2965   1.874   1.580   7.189  0.3261  0.4076 -0.4292
   41CHL1   H4A 2966   1.774   1.533   7.179  1.3813 -2.5551  1.6612
   41CHL1   H4B 2967   1.947   1.508   7.147  0.0060 -1.1548  1.5525
   41CHL1    C5 2968   1.898   1.602   7.339 -0.0803 -0.0821  0.2067
   41CHL1    C6 2969   2.008   1.551   7.401  0.2467 -0.0034  0.0204
   41CHL1    H6 2970   2.081   1.494   7.341 -0.1727  0.7696 -1.2572
   41CHL1    C7 2971   2.041   1.568   7.548 -0.7122 -0.4181 -0.7180
   41CHL1   H7A 2972   2.060   1.476   7.607  1.1389  0.2827 -0.1492
   41CHL1   H7B 2973   2.132   1.631   7.558 -0.3393 -0.7752 -1.7245
   41CHL1    C8 2974   1.920   1.634   7.625  0.4782  0.0032  0.6619
   41CHL1    H8 2975   1.842   1.555   7.636  0.2086  0.2710  0.6753
   41CHL1   C14 2976   1.961   1.676   7.762  0.3955 -0.3000 -0.9794
   41CHL1   H14 2977   2.042   1.749   7.741  0.4519 -0.1633 -0.2950
   41CHL1   C15 2978   2.036   1.575   7.853  0.0249  0.0705  0.0643
   41CHL1  H15A 2979   1.974   1.484   7.853 -2.6539  1.7987 -0.6769
   41CHL1  H15B 2980   2.142   1.556   7.823  0.2550  0.6350  0.4768
   41CHL1   C16 2981   2.026   1.639   7.992  0.3323  0.4857  0.2778
   41CHL1  H16A 2982   1.980   1.562   8.056 -0.0486  0.2299 -0.2935
   41CHL1  H16B 2983   2.124   1.664   8.038  1.6627 -0.1333 -1.9989
   41CHL1   C17 2984   1.924   1.760   7.983  0.4340 -0.4358 -0.2941
   41CHL1   H17 2985   1.984   1.851   7.960 -2.3674  1.2784 -1.2615
   41CHL1   C13 2986   1.850   1.734   7.847  0.6755  0.1956 -0.9145
   41CHL1   C18 2987   1.739   1.622   7.872 -0.1570 -0.2994 -0.0718
   41CHL1  H18A 2988   1.671   1.676   7.942  0.5181  0.4142  0.0413
   41CHL1  H18B 2989   1.680   1.593   7.783  1.2323  0.7803 -1.3855
   41CHL1  H18C 2990   1.778   1.530   7.921 -0.5442 -0.0467  0.7376
   41CHL1   C12 2991   1.795   1.858   7.782  0.2904  0.2179 -0.4183
   41CHL1  H12A 2992   1.710   1.902   7.839  0.3406  1.1414 -1.0306
   41CHL1  H12B 2993   1.878   1.932   7.782  1.4733 -1.0564  0.6642
   41CHL1   C11 2994   1.746   1.828   7.641  0.2507  0.1642  0.5356
   41CHL1  H11A 2995   1.650   1.774   7.648  0.7006 -0.6147  0.7996
   41CHL1  H11B 2996   1.719   1.925   7.593  1.5370  0.2077 -0.1494
   41CHL1    C9 2997   1.855   1.751   7.550  0.6938  0.1083  0.5470
   41CHL1    H9 2998   1.934   1.826   7.529 -0.1349  0.5882 -0.9720
   41CHL1   C10 2999   1.797   1.702   7.408 -0.5584  0.1515 -0.0388
   41CHL1   C19 3000   1.660   1.635   7.417 -0.6104 -0.3066  0.2175
   41CHL1  H19A 3001   1.590   1.711   7.455  0.3347  0.8321 -0.2517
   41CHL1  H19B 3002   1.605   1.606   7.325 -2.4112 -2.6627  1.8960
   41CHL1  H19C 3003   1.654   1.552   7.491 -0.6402 -2.4563 -2.0245
   41CHL1    C1 3004   1.786   1.830   7.318  0.6107  0.0510 -0.4227
   41CHL1   H1A 3005   1.701   1.873   7.375  0.6273 -0.0948 -0.2846
   41CHL1   H1B 3006   1.869   1.902   7.337 -1.5277  2.3488  0.8053
   41CHL1    C2 3007   1.763   1.806   7.165 -0.0048 -0.2807  0.2287
   41CHL1   H2A 3008   1.753   1.905   7.116 -2.1188 -1.8116 -2.7729
   41CHL1   H2B 3009   1.664   1.759   7.146  0.0680 -0.6079  0.6223
   41CHL1   C20 3010   1.845   1.779   8.121 -0.2127  0.0246 -0.1797
   41CHL1   H20 3011   1.779   1.690   8.134  0.0840 -0.1886 -0.1337
   41CHL1   C21 3012   1.756   1.902   8.112 -0.1260 -0.1178 -0.2505
   41CHL1  H21A 3013   1.715   1.937   8.209  3.1554 -3.2710  2.5810
   41CHL1  H21B 3014   1.675   1.894   8.037 -2.0662 -2.4869  1.9524
   41CHL1  H21C 3015   1.820   1.985   8.073  0.8677 -1.0788 -0.7288
   41CHL1   C22 3016   1.943   1.774   8.244 -0.3788 -0.4544  0.7386
   41CHL1  H22A 3017   1.986   1.672   8.252 -0.3760 -0.5030  0.1648
   41CHL1  H22B 3018   2.036   1.830   8.219 -0.7069 -0.6418 -1.0199
   41CHL1   C23 3019   1.898   1.819   8.388 -0.8493  0.3187 -0.1401
   41CHL1  H23A 3020   1.861   1.923   8.377  0.6168  0.6944 -1.9990
   41CHL1  H23B 3021   1.825   1.746   8.429  1.0337 -1.1135  0.8426
   41CHL1   C24 3022   2.014   1.817   8.494  0.4800  0.0867 -0.0371
   41CHL1  H24A 3023   2.095   1.877   8.448  0.0083 -0.4678 -1.6546
   41CHL1  H24B 3024   1.976   1.870   8.584  0.7381 -1.5010  1.0489
   41CHL1   C25 3025   2.060   1.674   8.525  0.5360 -0.2483  0.5491
   41CHL1   H25 3026   2.079   1.627   8.426  0.7176  0.9912 -0.0197
   41CHL1   C26 3027   2.204   1.682   8.579 -0.0745 -0.0332 -0.1010
   41CHL1  H26A 3028   2.258   1.754   8.514 -1.3304  1.6384  0.6449
   41CHL1  H26B 3029   2.207   1.722   8.683  0.4261 -1.1931  0.3468
   41CHL1  H26C 3030   2.252   1.582   8.573 -1.8264 -0.9806  0.8824
   41CHL1   C27 3031   1.955   1.592   8.600 -0.0941 -0.2198 -0.0530
   41CHL1  H27A 3032   1.950   1.628   8.705  0.9060 -0.8626  0.2284
   41CHL1  H27B 3033   1.862   1.584   8.540  0.2185 -1.8233 -0.3618
   41CHL1  H27C 3034   1.997   1.490   8.608 -1.2690 -0.5709  2.4052
   42CHL1    C3 3035   3.188   5.242   6.973  0.4914  0.2655  0.1188
   42CHL1    H3 3036   3.156   5.348   6.985 -1.9130 -0.3400 -0.2697
   42CHL1    O3 3037   3.161   5.191   6.843 -0.2014  0.3120 -0.3430
   42CHL1   H3' 3038   3.218   5.114   6.834 -1.0055 -0.5167  1.2309
   42CHL1    C4 3039   3.337   5.212   6.995 -0.4032  0.5117 -0.3258
   42CHL1   H4A 3040   3.358   5.109   6.961 -1.8118  1.0968 -3.3329
   42CHL1   H4B 3041   3.396   5.274   6.925  1.3629 -1.3035 -0.5258
   42CHL1    C5 3042   3.381   5.233   7.141 -0.0938  0.1399  0.3804
   42CHL1    C6 3043   3.487   5.307   7.170 -0.1384 -0.4740 -0.6412
   42CHL1    H6 3044   3.538   5.360   7.088  0.2972 -1.8720 -1.3097
   42CHL1    C7 3045   3.542   5.332   7.304 -0.6788 -0.0848 -0.6019
   42CHL1   H7A 3046   3.653   5.328   7.297 -0.6340 -2.7155  0.5122
   42CHL1   H7B 3047   3.519   5.438   7.328  1.7426  1.0386 -2.7482
   42CHL1    C8 3048   3.487   5.227   7.407  0.0972  0.0041  0.4710
   42CHL1    H8 3049   3.547   5.134   7.397  2.8488  1.7918 -0.8861
   42CHL1   C14 3050   3.524   5.274   7.544 -0.1127 -0.3094  0.1853
   42CHL1   H14 3051   3.468   5.368   7.561  1.1795  0.6623 -0.6997
   42CHL1   C15 3052   3.669   5.319   7.577  0.2079  0.2582 -0.2830
   42CHL1  H15A 3053   3.733   5.235   7.543  1.0558 -0.4119  2.6822
   42CHL1  H15B 3054   3.697   5.410   7.519  0.2740 -0.0438 -0.7287
   42CHL1   C16 3055   3.673   5.330   7.727 -0.6147  0.3587 -0.5834
   42CHL1  H16A 3056   3.750   5.257   7.761 -0.9935  0.3391  0.2838
   42CHL1  H16B 3057   3.687   5.433   7.766 -2.8567  1.3473 -2.2053
   42CHL1   C17 3058   3.542   5.258   7.777  0.3400  0.4283  0.0269
   42CHL1   H17 3059   3.474   5.344   7.797  0.8087  1.2257 -1.6245
   42CHL1   C13 3060   3.478   5.184   7.660 -0.4455  0.4226  0.2425
   42CHL1   C18 3061   3.552   5.053   7.651  0.1095  0.0468  0.2386
   42CHL1  H18A 3062   3.661   5.054   7.674  0.4665  0.1887 -1.3364
   42CHL1  H18B 3063   3.513   4.980   7.725  1.5717 -0.6089  0.3948
   42CHL1  H18C 3064   3.545   5.002   7.552  1.1383 -1.2843  0.8131
   42CHL1   C12 3065   3.323   5.174   7.650  0.4960 -0.1094  0.1657
   42CHL1  H12A 3066   3.280   5.091   7.709  1.7446  0.7150  2.3452
   42CHL1  H12B 3067   3.289   5.277   7.673  1.4028  0.1982  0.1762
   42CHL1   C11 3068   3.274   5.125   7.505 -0.0493  0.2997 -0.8657
   42CHL1  H11A 3069   3.309   5.021   7.494  1.9613  0.8173  0.2145
   42CHL1  H11B 3070   3.163   5.133   7.503 -0.1496 -0.4700  0.5108
   42CHL1    C9 3071   3.333   5.210   7.394 -0.2713  0.6526 -0.1316
   42CHL1    H9 3072   3.291   5.313   7.403 -3.7153 -0.5983 -0.3694
   42CHL1   C10 3073   3.299   5.152   7.252 -0.2985 -1.1829 -0.5965
   42CHL1   C19 3074   3.329   5.004   7.240  0.6186 -0.0778  0.0273
   42CHL1  H19A 3075   3.343   4.979   7.133  1.5523 -1.2091  0.3845
   42CHL1  H19B 3076   3.413   4.966   7.303 -1.5603 -1.0114  2.5494
   42CHL1  H19C 3077   3.248   4.946   7.289  1.7022 -0.4804  1.4038
   42CHL1    C1 3078   3.145   5.184   7.226 -0.3229  0.1580 -1.1276
   42CHL1   H1A 3079   3.089   5.112   7.289  1.4745  0.3174  0.7617
   42CHL1   H1B 3080   3.121   5.286   7.263 -0.8041  0.0389 -1.1119
   42CHL1    C2 3081   3.101   5.164   7.080 -0.3420 -0.2141  0.2587
   42CHL1   H2A 3082   2.995   5.184   7.053  0.6659  2.3583 -2.4145
   42CHL1   H2B 3083   3.112   5.055   7.060 -0.9111 -0.1293 -0.6014
   42CHL1   C20 3084   3.556   5.191   7.915 -0.3393 -0.1553  0.5881
   42CHL1   H20 3085   3.616   5.098   7.923  0.4529  0.2977  0.1018
   42CHL1   C21 3086   3.415   5.154   7.961  0.2988  0.1150 -0.5408
   42CHL1  H21A 3087   3.365   5.079   7.896  1.1865 -1.8142  0.9221
   42CHL1  H21B 3088   3.358   5.247   7.982 -1.0770 -0.4327 -1.6676
   42CHL1  H21C 3089   3.433   5.100   8.056  2.3155 -0.8160 -1.4011
   42CHL1   C22 3090   3.618   5.294   8.015  0.7270  0.7712 -0.1657
   42CHL1  H22A 3091   3.726   5.304   7.989  0.6604 -0.9136 -1.2129
   42CHL1  H22B 3092   3.558   5.386   7.999 -0.5796 -0.4838 -3.3627
   42CHL1   C23 3093   3.633   5.247   8.156 -0.1135 -0.6757  0.2204
   42CHL1  H23A 3094   3.531   5.244   8.200  0.5751 -2.0173  1.8467
   42CHL1  H23B 3095   3.687   5.149   8.154 -1.4643 -1.4501  0.4794
   42CHL1   C24 3096   3.713   5.329   8.254 -0.3849 -0.7698 -0.4655
   42CHL1  H24A 3097   3.819   5.325   8.221  0.6457 -1.0340  2.5739
   42CHL1  H24B 3098   3.680   5.435   8.259 -0.9404 -0.9317 -0.5286
   42CHL1   C25 3099   3.704   5.272   8.395 -0.0304 -0.7092 -0.0833
   42CHL1   H25 3100   3.707   5.162   8.381 -1.4861 -0.8084  0.1850
   42CHL1   C26 3101   3.818   5.322   8.480 -0.0086 -0.8349  0.4914
   42CHL1  H26A 3102   3.915   5.297   8.432 -1.1201 -1.9052 -1.3566
   42CHL1  H26B 3103   3.810   5.431   8.499  1.1007 -0.8134  0.8990
   42CHL1  H26C 3104   3.820   5.273   8.580 -1.8153 -2.0970 -0.0369
   42CHL1   C27 3105   3.580   5.303   8.474  0.0986  0.7756  0.2797
   42CHL1  H27A 3106   3.491   5.263   8.421  1.5510 -0.8138 -1.0961
   42CHL1  H27B 3107   3.582   5.411   8.498  0.4243  1.3888 -2.1708
   42CHL1  H27C 3108   3.585   5.239   8.564 -0.3299  0.0829 -0.1756
   43CHL1    C3 3109   3.655   3.635   7.209  0.5562  0.3381  0.1525
   43CHL1    H3 3110   3.544   3.645   7.213  0.4172 -0.3887 -1.2130
   43CHL1    O3 3111   3.687   3.679   7.082 -0.2805  0.3392  0.2637
   43CHL1   H3' 3112   3.663   3.611   7.019  2.7072  1.0099 -1.8173
   43CHL1    C4 3113   3.717   3.736   7.306  0.1764  0.0939  0.5322
   43CHL1   H4A 3114   3.827   3.745   7.292  0.4260  0.9453  2.6366
   43CHL1   H4B 3115   3.670   3.834   7.280  0.2045  0.5415  2.0490
   43CHL1    C5 3116   3.685   3.696   7.451  0.1047  0.0477  0.1943
   43CHL1    C6 3117   3.626   3.777   7.540 -0.2580 -0.3670  0.1594
   43CHL1    H6 3118   3.581   3.868   7.496  2.0887  0.8816  0.1803
   43CHL1    C7 3119   3.614   3.753   7.686  0.6373  0.1247 -0.4776
   43CHL1   H7A 3120   3.631   3.844   7.748 -1.4552  0.7459 -0.7504
   43CHL1   H7B 3121   3.508   3.726   7.707  0.1239  2.6258  0.6121
   43CHL1    C8 3122   3.713   3.639   7.732 -0.2483  0.3223  0.3126
   43CHL1    H8 3123   3.819   3.668   7.729 -0.5076  1.3096  0.5275
   43CHL1   C14 3124   3.680   3.595   7.870  0.0534  0.4643 -0.9340
   43CHL1   H14 3125   3.569   3.592   7.877 -0.0462  1.0987 -2.1194
   43CHL1   C15 3126   3.703   3.698   7.987 -0.4883  0.0174  0.5370
   43CHL1  H15A 3127   3.802   3.748   7.975  0.2479 -1.8667 -2.3321
   43CHL1  H15B 3128   3.626   3.778   7.986 -1.2898 -0.6683 -1.8770
   43CHL1   C16 3129   3.713   3.612   8.113 -0.0835  0.1682  0.0743
   43CHL1  H16A 3130   3.807   3.644   8.162 -0.8278  1.8936  0.4419
   43CHL1  H16B 3131   3.629   3.628   8.184 -0.2714 -0.7890  0.0916
   43CHL1   C17 3132   3.696   3.462   8.068  0.3061 -0.9835  0.0685
   43CHL1   H17 3133   3.587   3.442   8.059  0.2617 -0.6107 -0.2531
   43CHL1   C13 3134   3.742   3.462   7.922  0.1951 -0.0707  0.0960
   43CHL1   C18 3135   3.897   3.466   7.922 -0.1849 -0.0072  0.1997
   43CHL1  H18A 3136   3.940   3.367   7.948 -2.4442 -1.2702 -0.5928
   43CHL1  H18B 3137   3.944   3.497   7.827  0.6363 -0.0850  0.5730
   43CHL1  H18C 3138   3.933   3.544   7.993  1.3689  0.0960 -0.6617
   43CHL1   C12 3139   3.701   3.350   7.827 -0.2413 -0.8398 -0.1276
   43CHL1  H12A 3140   3.765   3.263   7.852  0.9491  0.4812  1.6766
   43CHL1  H12B 3141   3.592   3.328   7.829 -0.6918  1.0172 -1.6834
   43CHL1   C11 3142   3.738   3.382   7.682 -0.6026 -0.0981  0.0087
   43CHL1  H11A 3143   3.849   3.373   7.681 -0.3704  2.1400 -0.0790
   43CHL1  H11B 3144   3.698   3.311   7.607  0.9078 -1.6226  0.5549
   43CHL1    C9 3145   3.686   3.523   7.640  0.5868  0.0815 -0.5090
   43CHL1    H9 3146   3.575   3.520   7.633  0.4993  2.5959 -1.4031
   43CHL1   C10 3147   3.730   3.560   7.495  0.1651 -0.7415 -0.5167
   43CHL1   C19 3148   3.890   3.560   7.485  0.1995 -0.0746 -0.8141
   43CHL1  H19A 3149   3.930   3.629   7.563 -2.7286  0.4425  0.3975
   43CHL1  H19B 3150   3.926   3.457   7.507  1.4618  0.8092  1.6909
   43CHL1  H19C 3151   3.934   3.575   7.385  4.0329 -0.3484  0.6622
   43CHL1    C1 3152   3.679   3.465   7.385 -0.0907  0.1362 -1.0022
   43CHL1   H1A 3153   3.723   3.367   7.414 -0.5350  0.1862 -0.1239
   43CHL1   H1B 3154   3.574   3.447   7.415  0.9075  0.1973  3.1321
   43CHL1    C2 3155   3.701   3.496   7.237  0.4114  0.2067  0.0936
   43CHL1   H2A 3156   3.644   3.429   7.169 -1.1313  0.7557  0.7813
   43CHL1   H2B 3157   3.808   3.485   7.209  1.4223  1.0241  3.2012
   43CHL1   C20 3158   3.758   3.355   8.160 -0.4244  0.0443  0.8824
   43CHL1   H20 3159   3.772   3.266   8.095  0.2084  0.3123  0.6449
   43CHL1   C21 3160   3.653   3.315   8.258  0.0321  0.5638  0.5297
   43CHL1  H21A 3161   3.674   3.221   8.314 -1.8392 -0.7456 -0.8552
   43CHL1  H21B 3162   3.553   3.292   8.215 -0.0690 -0.2241  1.1569
   43CHL1  H21C 3163   3.633   3.385   8.342 -1.2869 -0.8611  1.4581
   43CHL1   C22 3164   3.881   3.394   8.244  0.0617 -0.2801  0.5886
   43CHL1  H22A 3165   3.959   3.434   8.176 -1.3831  1.7181  0.0225
   43CHL1  H22B 3166   3.856   3.475   8.317 -1.7273  1.9412 -2.2681
   43CHL1   C23 3167   3.936   3.274   8.325 -0.5260 -0.2676 -0.4138
   43CHL1  H23A 3168   3.867   3.256   8.410 -0.7251 -1.9433 -0.8900
   43CHL1  H23B 3169   3.932   3.185   8.258 -1.9656 -0.6126  0.0923
   43CHL1   C24 3170   4.087   3.279   8.373  0.3032 -0.1028  0.0711
   43CHL1  H24A 3171   4.146   3.278   8.280 -0.4698  0.8188 -0.4436
   43CHL1  H24B 3172   4.117   3.376   8.417  2.3269  0.8827 -3.1655
   43CHL1   C25 3173   4.128   3.165   8.466  0.0382 -0.2736  0.1423
   43CHL1   H25 3174   4.095   3.064   8.436  1.8233 -1.0546  0.6497
   43CHL1   C26 3175   4.284   3.149   8.455  0.3202 -0.2755  0.4800
   43CHL1  H26A 3176   4.313   3.071   8.529 -0.7191 -0.1083  1.0818
   43CHL1  H26B 3177   4.314   3.137   8.349  1.3701  2.5348  0.3628
   43CHL1  H26C 3178   4.336   3.240   8.492 -1.5252  1.9142 -1.9186
   43CHL1   C27 3179   4.086   3.189   8.613 -0.3943 -0.0020 -0.0833
   43CHL1  H27A 3180   4.127   3.103   8.670 -0.5728 -0.4088 -0.5561
   43CHL1  H27B 3181   4.121   3.281   8.663  0.9787  0.2219 -1.3848
   43CHL1  H27C 3182   3.975   3.197   8.624 -0.6641 -0.9550 -1.7958
   44CHL1    C3 3183   2.619   0.471   6.963  0.2157  0.3402  0.2666
   44CHL1    H3 3184   2.642   0.365   6.988 -1.8739 -0.1647  0.2749
   44CHL1    O3 3185   2.642   0.498   6.825  0.3378  0.9642  0.2590
   44CHL1   H3' 3186   2.655   0.593   6.828  1.3843  0.8414 -0.0317
   44CHL1    C4 3187   2.473   0.515   6.995  0.9707  0.5976 -0.1018
   44CHL1   H4A 3188   2.458   0.623   6.974  0.3661  1.0018  2.1167
   44CHL1   H4B 3189   2.394   0.453   6.947  0.2003  0.3806  1.3592
   44CHL1    C5 3190   2.440   0.511   7.139 -0.3828  0.5685  0.5161
   44CHL1    C6 3191   2.334   0.439   7.186 -0.1915  0.5822  0.4780
   44CHL1    H6 3192   2.282   0.380   7.108  3.9285 -0.8288 -1.4756
   44CHL1    C7 3193   2.287   0.441   7.326  0.1831 -0.1088  0.0094
   44CHL1   H7A 3194   2.179   0.464   7.328  0.1579 -0.2008 -0.2143
   44CHL1   H7B 3195   2.296   0.341   7.375  2.6686  0.4236  0.8089
   44CHL1    C8 3196   2.358   0.552   7.415  0.0856 -0.3848  0.2365
   44CHL1    H8 3197   2.315   0.650   7.384 -1.3518 -1.2455 -0.6066
   44CHL1   C14 3198   2.340   0.536   7.564 -0.1553 -0.3585  1.0500
   44CHL1   H14 3199   2.388   0.439   7.589 -0.0716 -0.4748  0.4402
   44CHL1   C15 3200   2.194   0.520   7.625 -0.5598 -0.3103 -0.2131
   44CHL1  H15A 3201   2.131   0.600   7.581 -1.1372  1.0151  2.7314
   44CHL1  H15B 3202   2.154   0.417   7.610 -0.9093 -0.3313  0.7482
   44CHL1   C16 3203   2.215   0.547   7.774  0.7914  0.4164  0.4458
   44CHL1  H16A 3204   2.134   0.614   7.810 -0.1321  0.4664 -1.5492
   44CHL1  H16B 3205   2.210   0.452   7.830  0.0128 -0.3901 -0.9223
   44CHL1   C17 3206   2.357   0.606   7.793  0.3776 -0.1881  0.2182
   44CHL1   H17 3207   2.421   0.521   7.823 -0.8596 -1.0063  0.5967
   44CHL1   C13 3208   2.402   0.648   7.649 -0.6355  1.2455  0.0760
   44CHL1   C18 3209   2.359   0.797   7.618  0.2276  0.2822  0.2208
   44CHL1  H18A 3210   2.390   0.828   7.516 -2.7640  0.2697 -0.7951
   44CHL1  H18B 3211   2.250   0.816   7.624  0.5973  2.0459  2.7817
   44CHL1  H18C 3212   2.413   0.866   7.687  0.0600  1.9045 -1.1903
   44CHL1   C12 3213   2.557   0.634   7.621  0.4591 -0.0009  0.4945
   44CHL1  H12A 3214   2.616   0.707   7.681 -1.6649  2.4064 -0.1667
   44CHL1  H12B 3215   2.592   0.534   7.655 -0.3278 -0.5385 -0.2415
   44CHL1   C11 3216   2.590   0.652   7.471  0.3301  0.3318  0.1701
   44CHL1  H11A 3217   2.568   0.757   7.445  1.7657  0.5707 -0.2112
   44CHL1  H11B 3218   2.695   0.631   7.439  0.7321  1.9610  0.3437
   44CHL1    C9 3219   2.509   0.557   7.381 -0.4294  0.2374  0.3431
   44CHL1    H9 3220   2.550   0.455   7.397  1.3341  0.4340 -2.3568
   44CHL1   C10 3221   2.539   0.584   7.236  0.7823  0.2031  0.8686
   44CHL1   C19 3222   2.529   0.734   7.199 -0.4389  0.2254 -0.0556
   44CHL1  H19A 3223   2.623   0.778   7.238 -0.7662  0.4907  0.4487
   44CHL1  H19B 3224   2.534   0.751   7.090 -0.6839  0.8560  0.0299
   44CHL1  H19C 3225   2.440   0.789   7.238 -0.8389 -0.4796  0.0645
   44CHL1    C1 3226   2.685   0.542   7.200 -0.0722 -0.5579  0.2941
   44CHL1   H1A 3227   2.761   0.596   7.260  0.4886 -0.4073 -0.5253
   44CHL1   H1B 3228   2.702   0.435   7.221  0.0878 -0.4943  0.4900
   44CHL1    C2 3229   2.719   0.561   7.047  0.0568 -0.0208 -0.1871
   44CHL1   H2A 3230   2.825   0.532   7.028  0.3879  1.5662 -0.8423
   44CHL1   H2B 3231   2.712   0.666   7.012  2.1362  0.0413 -0.5476
   44CHL1   C20 3232   2.357   0.707   7.906 -0.5652 -0.4124  0.2585
   44CHL1   H20 3233   2.308   0.801   7.874  4.3673  2.1287 -0.8633
   44CHL1   C21 3234   2.496   0.762   7.931 -0.6627  0.1814 -0.2277
   44CHL1  H21A 3235   2.558   0.670   7.934 -1.4155 -0.4057 -1.5861
   44CHL1  H21B 3236   2.505   0.812   8.030  0.8914 -3.2048  1.5315
   44CHL1  H21C 3237   2.531   0.824   7.845  0.5712  0.2499  0.2958
   44CHL1   C22 3238   2.290   0.660   8.037 -0.5323  1.3445 -0.2166
   44CHL1  H22A 3239   2.228   0.569   8.022  3.3959 -1.6300 -0.2744
   44CHL1  H22B 3240   2.363   0.615   8.108 -0.8492  0.7182 -0.2808
   44CHL1   C23 3241   2.225   0.773   8.102  0.3123  0.0840  0.1768
   44CHL1  H23A 3242   2.299   0.849   8.136  0.3578 -0.2248  0.7682
   44CHL1  H23B 3243   2.163   0.822   8.024  1.5089  4.2409  1.5827
   44CHL1   C24 3244   2.152   0.746   8.231  0.0983 -0.3619 -0.0204
   44CHL1  H24A 3245   2.221   0.693   8.299 -1.3843 -1.7267  0.4853
   44CHL1  H24B 3246   2.130   0.842   8.283  0.1448 -1.9423  3.2060
   44CHL1   C25 3247   2.009   0.678   8.222 -0.5988 -0.0987 -0.1638
   44CHL1   H25 3248   2.026   0.574   8.186  0.8894 -0.1786  0.7088
   44CHL1   C26 3249   1.937   0.654   8.362 -0.5856 -1.1209  0.4482
   44CHL1  H26A 3250   2.011   0.613   8.434  0.4039  0.7291  0.5269
   44CHL1  H26B 3251   1.896   0.750   8.398  0.3761 -0.3429 -0.4701
   44CHL1  H26C 3252   1.855   0.583   8.337 -0.4858 -0.8189 -0.8318
   44CHL1   C27 3253   1.915   0.758   8.136  0.7183 -0.2283 -0.0092
   44CHL1  H27A 3254   1.811   0.719   8.138  0.4333  0.2256 -2.2624
   44CHL1  H27B 3255   1.918   0.863   8.172  1.7803 -1.0498  2.5107
   44CHL1  H27C 3256   1.945   0.752   8.029 -0.9126  0.6852 -0.5542
   45CHL1    C3 3257   6.203   1.274   6.999 -0.3171 -0.4486 -0.4038
   45CHL1    H3 3258   6.210   1.167   7.028  0.9904  0.0942  1.4815
   45CHL1    O3 3259   6.199   1.278   6.857 -0.2739 -0.3110  0.1463
   45CHL1   H3' 3260   6.260   1.208   6.834  1.8343  1.5521 -0.2708
   45CHL1    C4 3261   6.081   1.347   7.055  0.3642 -0.0163 -0.8246
   45CHL1   H4A 3262   6.064   1.455   7.036 -3.1975  0.0843  1.9241
   45CHL1   H4B 3263   5.983   1.306   7.022 -0.5840  0.1577  1.5817
   45CHL1    C5 3264   6.088   1.325   7.208 -0.2301 -0.1033 -0.4488
   45CHL1    C6 3265   5.996   1.262   7.285  0.6292 -0.5854  0.1377
   45CHL1    H6 3266   5.900   1.245   7.234  1.1536  0.9631 -1.4654
   45CHL1    C7 3267   5.991   1.252   7.439 -0.2078 -0.3833 -0.4443
   45CHL1   H7A 3268   5.893   1.294   7.470  0.1807  0.2965 -0.1081
   45CHL1   H7B 3269   5.988   1.145   7.469 -0.1702  0.2502  2.0355
   45CHL1    C8 3270   6.110   1.329   7.497  0.2404 -0.1889  0.6348
   45CHL1    H8 3271   6.076   1.435   7.497 -1.5191 -0.7140  0.6258
   45CHL1   C14 3272   6.134   1.285   7.642 -0.0478 -0.4571 -0.3866
   45CHL1   H14 3273   6.164   1.178   7.632  2.4105  0.2645 -1.6777
   45CHL1   C15 3274   6.009   1.304   7.731  0.4785 -0.3338  0.3306
   45CHL1  H15A 3275   5.959   1.403   7.723 -0.4485 -0.7839  0.4293
   45CHL1  H15B 3276   5.935   1.222   7.716 -0.2812  0.4747 -0.4618
   45CHL1   C16 3277   6.075   1.302   7.876  0.4785 -0.2021  0.3005
   45CHL1  H16A 3278   6.049   1.392   7.935  1.5725  0.1252  0.3038
   45CHL1  H16B 3279   6.033   1.221   7.939 -1.5506  0.7041  0.2090
   45CHL1   C17 3280   6.236   1.295   7.856  0.4485 -0.1383  0.1349
   45CHL1   H17 3281   6.258   1.186   7.849 -3.2303 -1.0752  0.9215
   45CHL1   C13 3282   6.253   1.359   7.714  0.2208 -0.2070 -0.6236
   45CHL1   C18 3283   6.229   1.512   7.731 -0.4112 -0.3669 -0.1833
   45CHL1  H18A 3284   6.146   1.530   7.803  0.9391 -2.0606  1.9327
   45CHL1  H18B 3285   6.317   1.557   7.782  0.1704 -2.5531  0.8555
   45CHL1  H18C 3286   6.204   1.562   7.635 -0.8166 -3.1017 -1.6014
   45CHL1   C12 3287   6.375   1.328   7.628  0.4853  0.0293  0.7170
   45CHL1  H12A 3288   6.463   1.366   7.684  0.1228 -1.3086  2.2650
   45CHL1  H12B 3289   6.383   1.217   7.620 -1.4368 -0.0564 -0.8695
   45CHL1   C11 3290   6.358   1.375   7.490  0.5472  0.2176 -0.6329
   45CHL1  H11A 3291   6.344   1.486   7.487 -0.8725  0.1888  2.0118
   45CHL1  H11B 3292   6.459   1.365   7.445  0.3917  1.5877 -1.3483
   45CHL1    C9 3293   6.235   1.313   7.413 -0.4207  0.2051 -0.7728
   45CHL1    H9 3294   6.259   1.206   7.401  1.9250  0.6729 -0.7744
   45CHL1   C10 3295   6.224   1.366   7.273  0.3327  0.1752  0.4622
   45CHL1   C19 3296   6.230   1.522   7.276  0.2101  0.3730 -0.4529
   45CHL1  H19A 3297   6.146   1.559   7.339 -0.4672 -1.1945 -0.3911
   45CHL1  H19B 3298   6.333   1.557   7.299  0.6090  1.2426 -3.0945
   45CHL1  H19C 3299   6.214   1.567   7.175  2.2177 -0.1455 -1.0395
   45CHL1    C1 3300   6.346   1.305   7.198  0.2367 -0.0779 -0.0296
   45CHL1   H1A 3301   6.440   1.349   7.236 -1.0108  3.2259 -0.4406
   45CHL1   H1B 3302   6.348   1.195   7.212 -0.8901 -0.3609 -1.7589
   45CHL1    C2 3303   6.334   1.333   7.045  0.2702 -0.2096  0.2822
   45CHL1   H2A 3304   6.415   1.280   6.991 -0.3221 -1.4239  0.5479
   45CHL1   H2B 3305   6.343   1.442   7.029 -2.0141 -0.0311 -0.0853
   45CHL1   C20 3306   6.321   1.339   7.980  0.0378  0.3548  0.6467
   45CHL1   H20 3307   6.308   1.450   7.983 -1.1642  0.3384 -1.6309
   45CHL1   C21 3308   6.467   1.315   7.952 -0.3655  0.8492  0.5605
   45CHL1  H21A 3309   6.509   1.400   7.893 -1.0606  1.1917  0.5462
   45CHL1  H21B 3310   6.476   1.219   7.896  0.7161  2.2297 -1.8179
   45CHL1  H21C 3311   6.530   1.309   8.043  0.5019 -1.3142 -0.1297
   45CHL1   C22 3312   6.258   1.286   8.116  0.1484  0.0222  0.4095
   45CHL1  H22A 3313   6.156   1.322   8.141  0.5154  0.4423  1.3470
   45CHL1  H22B 3314   6.240   1.179   8.093  2.5071 -0.0499 -1.5499
   45CHL1   C23 3315   6.346   1.301   8.237 -0.4657  0.4392  0.1265
   45CHL1  H23A 3316   6.288   1.263   8.324 -0.3860  3.4497  1.6133
   45CHL1  H23B 3317   6.437   1.237   8.235  0.1261  1.1803  1.6523
   45CHL1   C24 3318   6.383   1.447   8.278  0.2355  0.3200  0.2424
   45CHL1  H24A 3319   6.429   1.500   8.192 -0.7835  1.2718  0.2545
   45CHL1  H24B 3320   6.289   1.500   8.307  0.1368  0.0947  0.3435
   45CHL1   C25 3321   6.470   1.446   8.409  0.0661 -0.2047  0.7836
   45CHL1   H25 3322   6.471   1.555   8.431 -0.5179  0.3344 -1.6026
   45CHL1   C26 3323   6.403   1.380   8.525 -0.1020  0.0722  0.4929
   45CHL1  H26A 3324   6.308   1.432   8.547 -1.1742 -1.6724  0.1531
   45CHL1  H26B 3325   6.395   1.271   8.503 -1.2810  0.1306  0.5942
   45CHL1  H26C 3326   6.470   1.380   8.614  2.0633  0.1016 -1.0373
   45CHL1   C27 3327   6.616   1.393   8.401 -0.4869 -0.2997  0.3353
   45CHL1  H27A 3328   6.618   1.283   8.382  0.6558 -0.0848 -1.0185
   45CHL1  H27B 3329   6.683   1.445   8.329 -0.6143 -0.2412  0.2596
   45CHL1  H27C 3330   6.667   1.409   8.498 -1.5018 -1.1191  1.0214
   46CHL1    C3 3331   4.732   0.153   7.159  0.2568  0.1250 -0.1464
   46CHL1    H3 3332   4.779   0.054   7.171 -3.6549 -1.8308  0.6846
   46CHL1    O3 3333   4.701   0.157   7.018 -0.1578 -0.0155 -0.3737
   46CHL1   H3' 3334   4.665   0.246   7.017  2.1523  0.9805 -1.0280
   46CHL1    C4 3335   4.604   0.151   7.238  0.1660  0.0587  0.7559
   46CHL1   H4A 3336   4.549   0.242   7.205  1.8743  1.3268  1.2824
   46CHL1   H4B 3337   4.534   0.072   7.204  1.7865 -1.1327  0.1040
   46CHL1    C5 3338   4.625   0.142   7.385 -0.3762  0.0498 -0.8297
   46CHL1    C6 3339   4.574   0.042   7.472 -0.6726 -0.6365 -0.0855
   46CHL1    H6 3340   4.507  -0.030   7.423 -1.4478  1.4032 -2.2505
   46CHL1    C7 3341   4.593   0.052   7.616 -0.4493 -0.0237  0.0713
   46CHL1   H7A 3342   4.491   0.038   7.659  0.6618  0.7195  3.1795
   46CHL1   H7B 3343   4.648  -0.034   7.659 -0.7878 -0.1234  0.3120
   46CHL1    C8 3344   4.661   0.180   7.675 -0.6676  0.5898 -0.3362
   46CHL1    H8 3345   4.595   0.269   7.675 -0.7305  0.5601  0.9435
   46CHL1   C14 3346   4.716   0.147   7.815  0.3537 -0.7602  0.3758
   46CHL1   H14 3347   4.783   0.059   7.816 -0.3287 -1.3164 -0.8556
   46CHL1   C15 3348   4.616   0.105   7.924 -0.7516  0.7475  0.4502
   46CHL1  H15A 3349   4.518   0.158   7.913 -1.0837 -0.0096 -0.3561
   46CHL1  H15B 3350   4.599  -0.003   7.905  1.4649  0.2193  1.1894
   46CHL1   C16 3351   4.686   0.130   8.055  0.1136  0.2513 -0.1273
   46CHL1  H16A 3352   4.632   0.204   8.119 -0.8227 -0.5846  0.0608
   46CHL1  H16B 3353   4.705   0.038   8.114  1.2033 -0.6652 -1.8537
   46CHL1   C17 3354   4.819   0.198   8.023 -0.2176 -0.0278 -0.8106
   46CHL1   H17 3355   4.889   0.114   8.006 -1.3392 -0.9589 -0.8985
   46CHL1   C13 3356   4.795   0.260   7.883  0.0617  0.8497 -0.5683
   46CHL1   C18 3357   4.706   0.389   7.897 -0.2395  0.7183  0.2807
   46CHL1  H18A 3358   4.662   0.427   7.803 -1.8049 -0.9864  0.2771
   46CHL1  H18B 3359   4.617   0.364   7.959 -0.7066 -2.1912 -1.3714
   46CHL1  H18C 3360   4.775   0.459   7.950  2.5484 -2.3232  1.0492
   46CHL1   C12 3361   4.919   0.287   7.793 -0.0143 -0.0084  0.3831
   46CHL1  H12A 3362   4.980   0.368   7.838  2.7250 -0.6609 -1.8788
   46CHL1  H12B 3363   4.970   0.189   7.785  0.8196  0.5057 -0.7721
   46CHL1   C11 3364   4.873   0.324   7.655  0.0320  0.1618  0.1735
   46CHL1  H11A 3365   4.842   0.431   7.646  1.9553  0.7134 -0.4517
   46CHL1  H11B 3366   4.965   0.333   7.593 -0.8001  0.3970 -1.0567
   46CHL1    C9 3367   4.781   0.220   7.584 -0.1054  0.3850  0.2777
   46CHL1    H9 3368   4.838   0.127   7.564 -0.3864 -0.0963  1.5840
   46CHL1   C10 3369   4.735   0.249   7.440  1.0255  0.9982 -0.5342
   46CHL1   C19 3370   4.681   0.395   7.433  0.3131 -0.0162  0.0629
   46CHL1  H19A 3371   4.759   0.474   7.436  1.0727 -0.6832 -1.4350
   46CHL1  H19B 3372   4.637   0.405   7.331  0.1445 -0.7022  0.0647
   46CHL1  H19C 3373   4.609   0.417   7.515  1.0088  1.7000  0.2435
   46CHL1    C1 3374   4.867   0.250   7.352 -0.6247 -1.0033 -0.1014
   46CHL1   H1A 3375   4.935   0.329   7.391 -1.5748 -0.2238  0.0104
   46CHL1   H1B 3376   4.922   0.154   7.367 -1.4128 -1.7812 -1.9204
   46CHL1    C2 3377   4.838   0.260   7.197 -0.5448 -0.4836  0.2772
   46CHL1   H2A 3378   4.934   0.231   7.148 -1.1105 -0.7572 -0.7020
   46CHL1   H2B 3379   4.821   0.367   7.172  0.0386 -0.6864 -1.0476
   46CHL1   C20 3380   4.877   0.282   8.140  0.3464  0.4834  0.0240
   46CHL1   H20 3381   4.815   0.374   8.147 -1.6952 -0.9376  1.6344
   46CHL1   C21 3382   5.025   0.316   8.110 -0.3791  0.4291 -0.1722
   46CHL1  H21A 3383   5.017   0.402   8.040 -1.7351  1.0300  0.6734
   46CHL1  H21B 3384   5.076   0.227   8.068  0.9610  2.4763 -3.3031
   46CHL1  H21C 3385   5.072   0.344   8.206  1.0468 -1.9699 -0.1011
   46CHL1   C22 3386   4.864   0.204   8.274 -0.8969  0.6333  0.1893
   46CHL1  H22A 3387   4.764   0.158   8.288 -1.7732  2.6352  0.8098
   46CHL1  H22B 3388   4.940   0.123   8.266  0.1702  1.7476 -1.7750
   46CHL1   C23 3389   4.875   0.296   8.395  0.0313  0.1479  0.8256
   46CHL1  H23A 3390   4.957   0.367   8.371 -0.6343  0.3710 -0.9233
   46CHL1  H23B 3391   4.779   0.352   8.398 -0.2962 -0.3772  0.3695
   46CHL1   C24 3392   4.903   0.226   8.528  0.0555 -0.2972  0.6898
   46CHL1  H24A 3393   4.808   0.179   8.560  0.2905 -0.1143  1.6865
   46CHL1  H24B 3394   4.974   0.148   8.494 -0.9292 -0.8536 -0.1440
   46CHL1   C25 3395   4.963   0.308   8.633 -0.3016 -0.5470  0.2222
   46CHL1   H25 3396   5.063   0.350   8.607 -1.3446  1.7079 -0.4046
   46CHL1   C26 3397   4.888   0.434   8.672 -0.2389 -1.1334  0.2690
   46CHL1  H26A 3398   4.784   0.409   8.702 -0.8968  0.2773 -0.6759
   46CHL1  H26B 3399   4.940   0.503   8.742 -1.1722  0.2309 -0.3256
   46CHL1  H26C 3400   4.872   0.503   8.586 -2.9557  1.5119  2.6305
   46CHL1   C27 3401   4.983   0.225   8.764  0.5093 -0.5448 -1.0840
   46CHL1  H27A 3402   4.886   0.216   8.817  1.4336 -0.8531  0.6374
   46CHL1  H27B 3403   5.012   0.127   8.720 -0.8689 -1.5976  0.2532
   46CHL1  H27C 3404   5.062   0.273   8.825 -1.7057  0.2394  1.3475
   47CHL1    C3 3405   3.141   1.509   6.757  0.0310  0.0810 -0.3752
   47CHL1    H3 3406   3.162   1.617   6.773 -0.9207 -0.0303  2.2261
   47CHL1    O3 3407   3.120   1.481   6.620  0.1474  0.0304  0.0034
   47CHL1   H3' 3408   3.198   1.507   6.570  1.5927 -3.6286  0.0156
   47CHL1    C4 3409   3.247   1.420   6.822  0.6788 -0.1803  0.5748
   47CHL1   H4A 3410   3.217   1.315   6.801 -0.9225 -0.1029  2.1796
   47CHL1   H4B 3411   3.344   1.442   6.773  1.6799 -0.9395  2.1352
   47CHL1    C5 3412   3.263   1.438   6.972 -0.5171 -0.4263 -0.5724
   47CHL1    C6 3413   3.377   1.472   7.027  0.2420 -0.2304  0.5195
   47CHL1    H6 3414   3.464   1.482   6.962  0.4064 -1.1660  0.5881
   47CHL1    C7 3415   3.403   1.494   7.168  0.6878  0.9884 -0.3129
   47CHL1   H7A 3416   3.500   1.447   7.197 -0.0609  0.4457  1.4870
   47CHL1   H7B 3417   3.410   1.603   7.186 -1.0484  1.0101  0.3838
   47CHL1    C8 3418   3.286   1.455   7.264  0.2035 -0.0403  0.0291
   47CHL1    H8 3419   3.303   1.347   7.285  1.2904  0.1703  0.2729
   47CHL1   C14 3420   3.284   1.537   7.397  0.3728 -0.6953  0.2981
   47CHL1   H14 3421   3.269   1.642   7.362  0.3602 -0.4623  0.9937
   47CHL1   C15 3422   3.411   1.546   7.484 -0.2373 -0.0496  0.5862
   47CHL1  H15A 3423   3.461   1.447   7.491  1.1654  0.7440  3.0286
   47CHL1  H15B 3424   3.480   1.620   7.439 -0.1788 -0.1290  0.5466
   47CHL1   C16 3425   3.355   1.591   7.627  0.3182  0.7701 -0.0097
   47CHL1  H16A 3426   3.394   1.514   7.698  0.0313  1.6528  1.1463
   47CHL1  H16B 3427   3.397   1.690   7.653 -0.9438  1.2176  0.4072
   47CHL1   C17 3428   3.200   1.588   7.616 -0.0553 -0.3796 -0.2402
   47CHL1   H17 3429   3.169   1.693   7.597  2.6836  0.8296  1.3952
   47CHL1   C13 3430   3.167   1.499   7.491 -0.2399  0.1614 -0.6276
   47CHL1   C18 3431   3.179   1.343   7.537 -0.2310 -0.5699  0.0479
   47CHL1  H18A 3432   3.094   1.312   7.601 -0.4453  1.8278  1.0135
   47CHL1  H18B 3433   3.168   1.281   7.445  2.6014  0.2365 -0.9686
   47CHL1  H18C 3434   3.282   1.323   7.575 -0.2628  1.2065  1.1795
   47CHL1   C12 3435   3.039   1.536   7.414 -0.7499 -0.2275 -0.4193
   47CHL1  H12A 3436   2.944   1.537   7.471 -0.3970 -0.3641  0.1841
   47CHL1  H12B 3437   3.050   1.642   7.379  0.1642 -0.1942 -0.0631
   47CHL1   C11 3438   3.023   1.447   7.290 -0.2683  0.6173 -0.0119
   47CHL1  H11A 3439   3.017   1.338   7.312  0.5171  0.3032 -1.2749
   47CHL1  H11B 3440   2.923   1.476   7.250 -0.0985  0.4248 -0.5775
   47CHL1    C9 3441   3.145   1.482   7.197  0.1685  0.1652  0.5782
   47CHL1    H9 3442   3.144   1.592   7.181 -2.6246  0.2598  0.9495
   47CHL1   C10 3443   3.140   1.423   7.056 -0.2914  0.9232 -0.1156
   47CHL1   C19 3444   3.116   1.265   7.069  0.3156  1.1387  0.1270
   47CHL1  H19A 3445   3.193   1.225   7.138  0.9035  1.9289 -0.0655
   47CHL1  H19B 3446   3.018   1.234   7.112 -0.3007 -1.9788 -3.0283
   47CHL1  H19C 3447   3.140   1.222   6.970 -0.4575  1.1137 -0.0594
   47CHL1    C1 3448   3.020   1.489   6.983 -0.5781  0.7364  0.0818
   47CHL1   H1A 3449   2.926   1.459   7.035 -1.7621  2.4941 -0.9508
   47CHL1   H1B 3450   3.025   1.592   7.022 -1.5419 -0.2551  3.0997
   47CHL1    C2 3451   3.008   1.475   6.827  0.0082 -0.0065 -0.0211
   47CHL1   H2A 3452   2.920   1.522   6.778  0.9548 -0.2335 -2.0127
   47CHL1   H2B 3453   2.988   1.366   6.824 -0.0974 -0.0199  0.8771
   47CHL1   C20 3454   3.130   1.559   7.747  0.0182  0.3743  0.2309
   47CHL1   H20 3455   3.166   1.466   7.796  1.0846  0.6081 -0.0711
   47CHL1   C21 3456   2.981   1.560   7.737 -0.0644  0.3252 -0.4733
   47CHL1  H21A 3457   2.934   1.552   7.838 -0.3627  0.4983 -0.5943
   47CHL1  H21B 3458   2.933   1.483   7.673 -0.5653  1.9636 -2.1422
   47CHL1  H21C 3459   2.942   1.655   7.694 -1.6480 -0.4548 -0.8524
   47CHL1   C22 3460   3.162   1.676   7.844 -0.4193 -0.1587  0.3913
   47CHL1  H22A 3461   3.270   1.701   7.844 -0.7124  1.2612  1.5985
   47CHL1  H22B 3462   3.106   1.769   7.820  0.8538  0.6902  0.6607
   47CHL1   C23 3463   3.125   1.647   7.986 -0.1264  1.0130 -0.1405
   47CHL1  H23A 3464   3.038   1.579   8.001 -0.5836  1.7024  0.3943
   47CHL1  H23B 3465   3.210   1.594   8.035 -0.2944  1.3466  0.5194
   47CHL1   C24 3466   3.105   1.779   8.064  0.2173 -0.0380 -1.0944
   47CHL1  H24A 3467   3.189   1.850   8.049  1.9880 -1.3333  1.7963
   47CHL1  H24B 3468   3.018   1.835   8.022 -0.9709 -2.4320 -2.0358
   47CHL1   C25 3469   3.083   1.757   8.213 -0.0905  0.3670 -0.4193
   47CHL1   H25 3470   3.022   1.666   8.229 -0.6438  1.0394  1.7519
   47CHL1   C26 3471   3.207   1.750   8.294 -0.1389  0.3346 -0.9109
   47CHL1  H26A 3472   3.267   1.844   8.297  1.8017 -0.8842  0.5752
   47CHL1  H26B 3473   3.183   1.722   8.399 -0.6650 -1.7538 -1.5626
   47CHL1  H26C 3474   3.277   1.675   8.253 -0.2277 -0.9155  1.0840
   47CHL1   C27 3475   2.994   1.870   8.269 -0.0259  0.3280 -0.7463
   47CHL1  H27A 3476   2.973   1.862   8.378  2.8709  2.8753  0.1531
   47CHL1  H27B 3477   3.049   1.966   8.261  2.0921 -0.7480  0.2455
   47CHL1  H27C 3478   2.893   1.869   8.223 -0.9880  2.3786  1.1325
   48CHL1    C3 3479   6.389   4.721   6.379  0.2299 -0.0336  0.2554
   48CHL1    H3 3480   6.323   4.644   6.426 -0.6767  0.7987  0.3665
   48CHL1    O3 3481   6.417   4.690   6.247 -0.0067  0.2352  0.3826
   48CHL1   H3' 3482   6.340   4.701   6.191  0.2789 -1.3397 -0.3614
   48CHL1    C4 3483   6.333   4.863   6.386  0.5168 -0.1218 -0.1221
   48CHL1   H4A 3484   6.417   4.921   6.343  1.8627 -0.1935  2.2479
   48CHL1   H4B 3485   6.240   4.880   6.328 -0.7703  0.4103  1.9816
   48CHL1    C5 3486   6.324   4.917   6.528  0.1260  0.0409 -0.6448
   48CHL1    C6 3487   6.210   4.972   6.577  0.5836  0.4063  0.1084
   48CHL1    H6 3488   6.124   4.963   6.510 -0.9335 -0.4924  2.0734
   48CHL1    C7 3489   6.183   5.037   6.706  0.6446 -0.1579 -0.5467
   48CHL1   H7A 3490   6.147   5.142   6.699  4.3785  1.1894 -1.9731
   48CHL1   H7B 3491   6.112   4.982   6.772  2.1534  0.1082  1.3810
   48CHL1    C8 3492   6.311   5.064   6.781 -1.0180  0.6021 -0.1852
   48CHL1    H8 3493   6.357   5.156   6.740 -0.0598 -0.2140 -1.0162
   48CHL1   C14 3494   6.289   5.070   6.931  1.2211  0.1650 -0.3568
   48CHL1   H14 3495   6.257   4.968   6.959  0.1569  0.9779  1.6437
   48CHL1   C15 3496   6.171   5.164   6.973 -0.0693 -0.1534 -0.3045
   48CHL1  H15A 3497   6.178   5.256   6.912 -0.9518  1.3811  1.7802
   48CHL1  H15B 3498   6.072   5.112   6.973  0.0981 -0.6076  2.1546
   48CHL1   C16 3499   6.203   5.189   7.124  0.1622  0.1048  0.1696
   48CHL1  H16A 3500   6.220   5.296   7.146  3.0640 -0.0244 -0.9061
   48CHL1  H16B 3501   6.128   5.152   7.197 -0.2076  2.4231  1.0536
   48CHL1   C17 3502   6.341   5.117   7.154  0.6556 -0.5875  0.4517
   48CHL1   H17 3503   6.302   5.017   7.184 -1.5199 -0.5982 -2.0883
   48CHL1   C13 3504   6.414   5.103   7.017 -0.5807  0.1546  0.0413
   48CHL1   C18 3505   6.484   5.231   6.967  0.1141 -0.0014 -0.9740
   48CHL1  H18A 3506   6.415   5.318   6.973  0.1974 -0.0073  0.8207
   48CHL1  H18B 3507   6.562   5.249   7.044 -0.7018 -0.8040  0.0787
   48CHL1  H18C 3508   6.514   5.209   6.863 -1.9715 -1.0283 -1.4286
   48CHL1   C12 3509   6.497   4.972   7.003 -0.1076  0.1308  0.0709
   48CHL1  H12A 3510   6.593   4.977   7.059  0.7960  2.7215 -1.5394
   48CHL1  H12B 3511   6.425   4.897   7.043 -0.0249  0.8108  1.5605
   48CHL1   C11 3512   6.536   4.945   6.851 -0.6781 -0.3057 -0.2999
   48CHL1  H11A 3513   6.612   5.022   6.827 -0.2622 -0.4938  0.3688
   48CHL1  H11B 3514   6.591   4.849   6.859  0.2509  0.1835 -0.7102
   48CHL1    C9 3515   6.410   4.941   6.758  0.2449  0.0692  0.0993
   48CHL1    H9 3516   6.363   4.848   6.797  1.9572 -0.2798  1.4478
   48CHL1   C10 3517   6.451   4.915   6.615 -0.2308  0.1545 -0.1113
   48CHL1   C19 3518   6.552   5.022   6.570  0.1329 -0.4910 -0.2200
   48CHL1  H19A 3519   6.562   5.022   6.459  0.8914 -0.3122 -0.1579
   48CHL1  H19B 3520   6.529   5.128   6.592 -0.2426 -0.3428 -1.2534
   48CHL1  H19C 3521   6.654   5.002   6.610 -0.1450 -2.3291 -0.3293
   48CHL1    C1 3522   6.513   4.772   6.604 -0.5741 -0.1957  0.7908
   48CHL1   H1A 3523   6.612   4.767   6.654  0.9902  0.8896 -1.9964
   48CHL1   H1B 3524   6.446   4.702   6.659 -0.8813  1.0766  2.1155
   48CHL1    C2 3525   6.516   4.709   6.461  0.0859 -0.0072  0.3254
   48CHL1   H2A 3526   6.552   4.604   6.466 -1.4876 -0.5244  1.7616
   48CHL1   H2B 3527   6.597   4.770   6.414  0.9272  0.1209  1.8799
   48CHL1   C20 3528   6.418   5.168   7.266 -0.3776 -0.3676 -0.0984
   48CHL1   H20 3529   6.451   5.269   7.234 -0.9148 -0.4799 -1.0548
   48CHL1   C21 3530   6.532   5.080   7.300 -0.3478  1.0445 -0.1203
   48CHL1  H21A 3531   6.617   5.095   7.230 -0.9753  0.9784 -0.9111
   48CHL1  H21B 3532   6.499   4.975   7.288  0.6757  0.9443 -2.4923
   48CHL1  H21C 3533   6.577   5.084   7.402 -1.0365 -0.1342  0.2555
   48CHL1   C22 3534   6.320   5.197   7.380  0.1371  0.5535 -0.6885
   48CHL1  H22A 3535   6.240   5.268   7.349 -0.8582 -0.6045 -0.8710
   48CHL1  H22B 3536   6.266   5.103   7.405  0.5670  0.6571  0.6920
   48CHL1   C23 3537   6.379   5.243   7.516 -0.5705  0.4778  0.2566
   48CHL1  H23A 3538   6.472   5.185   7.536  0.1370  0.6543 -2.2418
   48CHL1  H23B 3539   6.423   5.345   7.510 -1.2185  0.8828  1.8063
   48CHL1   C24 3540   6.267   5.238   7.618  0.1264  0.4318  0.4784
   48CHL1  H24A 3541   6.186   5.307   7.585 -0.0064  0.9846  1.9051
   48CHL1  H24B 3542   6.217   5.139   7.613  0.6435  0.2097 -2.8737
   48CHL1   C25 3543   6.322   5.260   7.757  0.6937 -0.1124  0.0993
   48CHL1   H25 3544   6.386   5.350   7.755  0.2326  0.2091 -0.9311
   48CHL1   C26 3545   6.209   5.289   7.859  0.1906  0.7615  0.0645
   48CHL1  H26A 3546   6.178   5.395   7.853  1.7873  1.2049 -1.6031
   48CHL1  H26B 3547   6.122   5.222   7.842 -0.0731  0.4451  2.3199
   48CHL1  H26C 3548   6.242   5.251   7.958 -2.2235 -1.3391  0.1617
   48CHL1   C27 3549   6.409   5.142   7.805  0.0488  0.1796 -0.3711
   48CHL1  H27A 3550   6.492   5.125   7.733  0.1024  1.5724 -0.6626
   48CHL1  H27B 3551   6.458   5.149   7.905  0.9209  2.7076 -0.9151
   48CHL1  H27C 3552   6.354   5.046   7.800  1.4941 -0.7074  0.0769
   49CHL1    C3 3553   4.808   6.267   6.718 -1.1480  0.5880  0.2386
   49CHL1    H3 3554   4.903   6.273   6.775 -1.8451  0.0724  1.5217
   49CHL1    O3 3555   4.839   6.247   6.586  0.1021  0.2036  0.2186
   49CHL1   H3' 3556   4.836   6.153   6.571  3.0353 -0.1521  1.2520
   49CHL1    C4 3557   4.724   6.143   6.764  0.0037  0.1088 -0.0874
   49CHL1   H4A 3558   4.631   6.145   6.703 -1.1042 -0.7697  1.5028
   49CHL1   H4B 3559   4.779   6.048   6.743 -1.2645 -0.9432  1.1176
   49CHL1    C5 3560   4.685   6.161   6.907  0.5521 -0.5206  0.2019
   49CHL1    C6 3561   4.717   6.062   6.993  0.6694 -0.2862  0.6040
   49CHL1    H6 3562   4.774   5.979   6.950  0.6410  0.3849 -0.7611
   49CHL1    C7 3563   4.679   6.071   7.136 -0.1932 -0.0056 -0.8392
   49CHL1   H7A 3564   4.632   5.974   7.166  0.1706  0.7258  2.5248
   49CHL1   H7B 3565   4.769   6.084   7.200 -1.1031  2.6676  0.0337
   49CHL1    C8 3566   4.575   6.186   7.172 -1.4087  0.7634 -0.9335
   49CHL1    H8 3567   4.474   6.150   7.142 -1.2865  0.7275 -1.3060
   49CHL1   C14 3568   4.587   6.220   7.319  0.4862 -0.5207  0.1567
   49CHL1   H14 3569   4.686   6.266   7.341  0.6157 -0.9961  0.5778
   49CHL1   C15 3570   4.585   6.095   7.410  0.2033  0.1600  0.2508
   49CHL1  H15A 3571   4.507   6.025   7.374 -1.3802  1.4589  0.9824
   49CHL1  H15B 3572   4.677   6.034   7.411 -0.7147 -1.3114 -1.1209
   49CHL1   C16 3573   4.541   6.152   7.547 -0.3597 -0.1594  0.6041
   49CHL1  H16A 3574   4.450   6.094   7.572 -0.8623  0.2232 -0.2794
   49CHL1  H16B 3575   4.631   6.133   7.609 -0.6882  1.8748  1.7819
   49CHL1   C17 3576   4.522   6.302   7.524 -0.0023 -0.4506  0.5076
   49CHL1   H17 3577   4.617   6.352   7.552  2.0036 -2.7874 -1.6784
   49CHL1   C13 3578   4.490   6.323   7.376 -0.3975 -0.1681 -0.2584
   49CHL1   C18 3579   4.344   6.283   7.343  0.2550 -0.0693 -0.1383
   49CHL1  H18A 3580   4.308   6.198   7.405 -1.9866  0.0004 -1.2157
   49CHL1  H18B 3581   4.272   6.359   7.381 -0.0968  0.9757 -2.6602
   49CHL1  H18C 3582   4.334   6.274   7.233  0.7502  0.5627 -0.2391
   49CHL1   C12 3583   4.524   6.459   7.311  0.4070 -0.4306 -0.3713
   49CHL1  H12A 3584   4.455   6.537   7.349 -1.4230 -2.3983  0.5593
   49CHL1  H12B 3585   4.624   6.490   7.349 -0.8708  1.0093  2.0577
   49CHL1   C11 3586   4.528   6.443   7.159  0.7176  0.2239  0.0304
   49CHL1  H11A 3587   4.422   6.468   7.136  0.3080  3.2039  4.0087
   49CHL1  H11B 3588   4.589   6.530   7.126 -0.0747  1.7649  2.3582
   49CHL1    C9 3589   4.610   6.316   7.107  0.1659  1.0211  0.4586
   49CHL1    H9 3590   4.714   6.333   7.141  0.5636 -2.6502  1.5176
   49CHL1   C10 3591   4.611   6.293   6.949 -0.2613 -0.2953  0.1302
   49CHL1   C19 3592   4.466   6.282   6.892 -0.3285 -0.3960 -0.5395
   49CHL1  H19A 3593   4.419   6.382   6.884 -0.3174 -0.2812  0.6332
   49CHL1  H19B 3594   4.468   6.241   6.789  1.4131 -0.7590 -0.4000
   49CHL1  H19C 3595   4.403   6.214   6.953 -0.1232  1.1882  1.5439
   49CHL1    C1 3596   4.683   6.415   6.883  0.3422 -0.0795  0.6530
   49CHL1   H1A 3597   4.600   6.489   6.888 -0.5724 -1.1086  1.0097
   49CHL1   H1B 3598   4.771   6.446   6.943  0.8284 -0.5415  0.1906
   49CHL1    C2 3599   4.728   6.401   6.737 -0.3502 -0.0396  0.6854
   49CHL1   H2A 3600   4.788   6.490   6.710  2.9752 -2.3930 -0.3494
   49CHL1   H2B 3601   4.651   6.396   6.657  0.1940  1.3188  0.0394
   49CHL1   C20 3602   4.419   6.347   7.626  1.1001 -0.2144 -0.2844
   49CHL1   H20 3603   4.317   6.312   7.601 -0.2839  1.8178  2.0484
   49CHL1   C21 3604   4.415   6.497   7.632  0.0285  0.4274  0.0368
   49CHL1  H21A 3605   4.518   6.536   7.616  0.1790  0.0537  0.0836
   49CHL1  H21B 3606   4.365   6.556   7.712 -0.3555 -0.5149  0.4932
   49CHL1  H21C 3607   4.361   6.527   7.540  0.1415  2.1493  0.4851
   49CHL1   C22 3608   4.438   6.285   7.764  0.9809 -0.0409 -0.4010
   49CHL1  H22A 3609   4.366   6.335   7.833 -0.0641 -0.3373 -1.2611
   49CHL1  H22B 3610   4.403   6.180   7.766 -2.0155  0.8518  0.3961
   49CHL1   C23 3611   4.580   6.313   7.832  1.2310 -0.2044  0.1235
   49CHL1  H23A 3612   4.653   6.256   7.772 -0.4709 -1.4163 -0.8739
   49CHL1  H23B 3613   4.591   6.424   7.828 -1.3066  0.0814 -0.5999
   49CHL1   C24 3614   4.595   6.252   7.970  0.5731 -0.7566 -0.3695
   49CHL1  H24A 3615   4.503   6.259   8.031 -0.1275 -1.8692 -1.2646
   49CHL1  H24B 3616   4.602   6.143   7.950  0.1868 -1.3398  2.3638
   49CHL1   C25 3617   4.717   6.287   8.038  0.3539 -0.2301 -0.4852
   49CHL1   H25 3618   4.806   6.294   7.971  1.2926  0.7204  0.8068
   49CHL1   C26 3619   4.703   6.427   8.096 -0.1095  0.4665 -0.0102
   49CHL1  H26A 3620   4.798   6.464   8.140  0.0369 -0.6453  0.6376
   49CHL1  H26B 3621   4.683   6.509   8.024 -0.9207  0.8262  0.6164
   49CHL1  H26C 3622   4.630   6.423   8.179  1.1810  1.6560  1.2575
   49CHL1   C27 3623   4.755   6.187   8.141  0.1937  0.4510 -0.0670
   49CHL1  H27A 3624   4.763   6.087   8.094  1.1679  0.0229  0.9443
   49CHL1  H27B 3625   4.861   6.218   8.157  1.1182 -2.2645 -0.4888
   49CHL1  H27C 3626   4.691   6.189   8.232 -0.2973  1.6507 -0.4185
   50CHL1    C3 3627   0.358   0.446   7.001 -0.2312  0.6932 -0.0456
   50CHL1    H3 3628   0.267   0.395   7.039  1.5081 -1.5518  1.3479
   50CHL1    O3 3629   0.319   0.546   6.908  0.3600 -0.0848  0.1919
   50CHL1   H3' 3630   0.390   0.544   6.843  0.4499 -1.1079  0.2971
   50CHL1    C4 3631   0.443   0.512   7.108 -0.1064 -0.9639  0.4746
   50CHL1   H4A 3632   0.516   0.582   7.062  0.0329  0.7518  3.0616
   50CHL1   H4B 3633   0.369   0.578   7.160 -0.6849 -0.6371 -0.7369
   50CHL1    C5 3634   0.503   0.417   7.202 -0.1000 -0.3687 -0.4680
   50CHL1    C6 3635   0.486   0.432   7.339  0.3280  0.3251 -0.3556
   50CHL1    H6 3636   0.428   0.512   7.386  1.6040  1.0005  0.1017
   50CHL1    C7 3637   0.548   0.335   7.437 -0.2705  0.0099  0.2418
   50CHL1   H7A 3638   0.596   0.398   7.515 -1.8121  2.8575 -0.9568
   50CHL1   H7B 3639   0.466   0.274   7.480  2.1713 -2.0495  2.2868
   50CHL1    C8 3640   0.666   0.250   7.375 -0.1584 -0.0132 -0.4560
   50CHL1    H8 3641   0.748   0.323   7.359 -2.0083  2.7021  1.4588
   50CHL1   C14 3642   0.716   0.134   7.468 -0.4544  0.2899 -0.1225
   50CHL1   H14 3643   0.620   0.078   7.471 -0.1142 -0.2887  2.6083
   50CHL1   C15 3644   0.762   0.174   7.613 -0.0136  0.9626 -0.0314
   50CHL1  H15A 3645   0.819   0.269   7.614  0.2542  0.8062 -0.3227
   50CHL1  H15B 3646   0.673   0.180   7.680  0.4207  1.7367  0.4884
   50CHL1   C16 3647   0.853   0.050   7.646 -0.7643 -0.0245 -0.9223
   50CHL1  H16A 3648   0.954   0.087   7.672 -1.3982  0.7858  0.5721
   50CHL1  H16B 3649   0.820   0.003   7.741 -0.4941  0.2708 -0.6796
   50CHL1   C17 3650   0.857  -0.039   7.522 -0.5978  0.3565  0.0387
   50CHL1   H17 3651   0.771  -0.110   7.526  1.1063 -1.8623 -0.2877
   50CHL1   C13 3652   0.826   0.049   7.404 -0.1719 -0.2194  0.0758
   50CHL1   C18 3653   0.948   0.142   7.385 -0.7233 -0.2404  0.2051
   50CHL1  H18A 3654   0.995   0.189   7.474  1.7249 -0.8088 -0.7283
   50CHL1  H18B 3655   1.029   0.078   7.345  0.0134 -2.1288  4.2359
   50CHL1  H18C 3656   0.907   0.212   7.309 -2.6546 -2.5958 -1.0722
   50CHL1   C12 3657   0.772  -0.014   7.281  0.3789  0.2986  0.2985
   50CHL1  H12A 3658   0.844  -0.076   7.224 -1.1981  0.1466 -1.6841
   50CHL1  H12B 3659   0.684  -0.077   7.305 -0.7394  1.7269  0.0938
   50CHL1   C11 3660   0.731   0.098   7.177 -0.6379 -0.1141  0.8943
   50CHL1  H11A 3661   0.822   0.150   7.140 -1.5474  1.7703  1.2211
   50CHL1  H11B 3662   0.690   0.053   7.084  1.2481  0.4841 -0.2799
   50CHL1    C9 3663   0.625   0.194   7.237  0.3072 -0.0740  0.0720
   50CHL1    H9 3664   0.540   0.125   7.252  0.4144  0.1964  2.3551
   50CHL1   C10 3665   0.579   0.305   7.138  0.9579 -0.7517  0.8221
   50CHL1   C19 3666   0.706   0.363   7.083 -1.2144 -0.2714  0.4838
   50CHL1  H19A 3667   0.752   0.294   7.009  0.7407 -0.8388  2.1363
   50CHL1  H19B 3668   0.686   0.458   7.030  1.4442 -0.6677 -1.4788
   50CHL1  H19C 3669   0.783   0.385   7.161 -0.3703 -2.7546  0.4404
   50CHL1    C1 3670   0.486   0.240   7.024  0.0717 -0.7016 -0.0844
   50CHL1   H1A 3671   0.538   0.158   6.970  0.6528  0.7175 -1.7857
   50CHL1   H1B 3672   0.405   0.184   7.075 -0.7622  0.4095 -0.1585
   50CHL1    C2 3673   0.434   0.343   6.926  0.4865  0.3284  0.4710
   50CHL1   H2A 3674   0.380   0.312   6.834  0.1875 -0.9564  1.0470
   50CHL1   H2B 3675   0.526   0.386   6.882 -0.1255  0.4751 -0.7062
   50CHL1   C20 3676   0.986  -0.124   7.526 -0.4588 -0.4775  0.5181
   50CHL1   H20 3677   1.080  -0.064   7.525  0.1271 -1.3525 -1.0924
   50CHL1   C21 3678   1.001  -0.224   7.409 -0.4721  0.2873 -0.3044
   50CHL1  H21A 3679   1.082  -0.298   7.423 -2.5967 -1.8961  1.2846
   50CHL1  H21B 3680   1.023  -0.168   7.316  1.6411 -3.0955 -2.0517
   50CHL1  H21C 3681   0.907  -0.281   7.391 -0.4249  0.7836 -2.4017
   50CHL1   C22 3682   0.997  -0.212   7.655 -0.3657  0.1881  0.1642
   50CHL1  H22A 3683   1.093  -0.268   7.654  0.2495  1.1984  0.2289
   50CHL1  H22B 3684   1.019  -0.143   7.739 -1.0319 -0.0786  0.5634
   50CHL1   C23 3685   0.885  -0.305   7.691  0.6757 -0.3861  0.5620
   50CHL1  H23A 3686   0.804  -0.237   7.723  2.8951  1.4203  2.8258
   50CHL1  H23B 3687   0.861  -0.352   7.593  1.3215 -1.0941  0.7321
   50CHL1   C24 3688   0.898  -0.406   7.806 -0.3879 -0.4787 -0.0776
   50CHL1  H24A 3689   0.810  -0.471   7.825  0.0920 -1.3792 -0.8380
   50CHL1  H24B 3690   0.978  -0.480   7.784  0.3708  0.3394 -0.1363
   50CHL1   C25 3691   0.924  -0.357   7.948 -0.2729 -0.3549 -0.3672
   50CHL1   H25 3692   1.022  -0.306   7.955 -1.0245  1.5647 -2.4166
   50CHL1   C26 3693   0.810  -0.264   7.995 -0.1738 -0.2677 -0.0020
   50CHL1  H26A 3694   0.821  -0.254   8.105  1.2705  0.2527 -0.1687
   50CHL1  H26B 3695   0.829  -0.168   7.942 -3.7472  1.0305  0.7987
   50CHL1  H26C 3696   0.710  -0.307   7.974  0.5491 -1.8796 -0.3484
   50CHL1   C27 3697   0.940  -0.471   8.052  0.5134  0.3650 -0.2374
   50CHL1  H27A 3698   0.929  -0.426   8.153 -0.7762 -2.0168  0.7630
   50CHL1  H27B 3699   0.869  -0.554   8.035  1.8578 -0.4638 -2.0723
   50CHL1  H27C 3700   1.042  -0.515   8.045 -0.5207 -2.1209 -0.5492
   51CHL1    C3 3701   6.723   0.032   6.996  0.5266 -0.5215  0.1037
   51CHL1    H3 3702   6.776  -0.063   7.018  0.6328 -0.1617  1.4713
   51CHL1    O3 3703   6.699   0.041   6.856  0.2720  0.6278  0.5345
   51CHL1   H3' 3704   6.648  -0.034   6.826 -2.3595  1.6897  2.0375
   51CHL1    C4 3705   6.593   0.026   7.073 -0.0637 -0.1709  0.9394
   51CHL1   H4A 3706   6.526   0.106   7.034  0.5733 -0.1014 -0.0463
   51CHL1   H4B 3707   6.545  -0.067   7.035 -0.3829  0.2496  0.2825
   51CHL1    C5 3708   6.612   0.032   7.220  0.6301  0.5877 -0.1902
   51CHL1    C6 3709   6.565  -0.065   7.304  0.8485  0.4157  0.2092
   51CHL1    H6 3710   6.513  -0.150   7.257  1.0281 -0.7253  1.9868
   51CHL1    C7 3711   6.585  -0.060   7.453  0.3686 -0.2556  0.2047
   51CHL1   H7A 3712   6.497  -0.085   7.515  0.8389  0.1381  1.0440
   51CHL1   H7B 3713   6.655  -0.135   7.496  2.4052  1.6603  0.4739
   51CHL1    C8 3714   6.624   0.086   7.510 -0.1297  0.2386  0.0507
   51CHL1    H8 3715   6.529   0.145   7.512 -0.0582  0.4361  3.3770
   51CHL1   C14 3716   6.664   0.078   7.657  0.3743 -0.5413 -0.1331
   51CHL1   H14 3717   6.741  -0.000   7.668 -0.4996 -1.3902  0.1261
   51CHL1   C15 3718   6.561   0.019   7.755  0.2002  0.1959  0.0787
   51CHL1  H15A 3719   6.459   0.060   7.740 -1.1589 -2.9681  0.0893
   51CHL1  H15B 3720   6.561  -0.091   7.746 -2.4629  0.0903  0.6809
   51CHL1   C16 3721   6.627   0.072   7.884  0.1781  0.0346 -0.7077
   51CHL1  H16A 3722   6.555   0.144   7.927  0.9704  1.1073 -1.1304
   51CHL1  H16B 3723   6.647  -0.000   7.966  0.5585  0.2862 -0.5744
   51CHL1   C17 3724   6.750   0.168   7.853 -0.2131  0.3457 -0.2214
   51CHL1   H17 3725   6.838   0.101   7.839  0.2137  0.8406  0.0362
   51CHL1   C13 3726   6.723   0.213   7.709  0.5947 -0.3122 -0.1109
   51CHL1   C18 3727   6.609   0.323   7.714 -0.1295  0.4433 -0.5543
   51CHL1  H18A 3728   6.639   0.419   7.762 -0.7342 -1.0801  3.3108
   51CHL1  H18B 3729   6.566   0.335   7.613  1.0348 -2.4725 -1.5154
   51CHL1  H18C 3730   6.530   0.284   7.781 -1.1994  1.2952 -1.2996
   51CHL1   C12 3731   6.835   0.251   7.623 -0.6310  0.6511 -1.0525
   51CHL1  H12A 3732   6.884   0.341   7.667  1.2293 -0.9392  0.3115
   51CHL1  H12B 3733   6.907   0.167   7.632 -0.1918  1.1548  0.4750
   51CHL1   C11 3734   6.793   0.270   7.481  1.5389 -0.3566  0.2616
   51CHL1  H11A 3735   6.718   0.351   7.482  0.7171 -1.0811 -0.3332
   51CHL1  H11B 3736   6.867   0.314   7.410 -0.8531 -1.1598 -2.9670
   51CHL1    C9 3737   6.737   0.140   7.420  0.3446 -1.0556 -0.5809
   51CHL1    H9 3738   6.817   0.063   7.427  1.6273  0.3409  1.9037
   51CHL1   C10 3739   6.695   0.146   7.271  0.4804  0.2579 -0.0703
   51CHL1   C19 3740   6.607   0.273   7.263  0.0942 -0.0056  0.1840
   51CHL1  H19A 3741   6.507   0.272   7.310  0.6012 -0.0877  1.2985
   51CHL1  H19B 3742   6.655   0.368   7.296 -1.8738  0.9596  0.3774
   51CHL1  H19C 3743   6.599   0.284   7.153 -0.2793  1.5847  0.3468
   51CHL1    C1 3744   6.824   0.155   7.186  0.2184  0.1404  0.3628
   51CHL1   H1A 3745   6.870   0.253   7.214 -0.6996  0.1310  2.0230
   51CHL1   H1B 3746   6.888   0.066   7.203  1.1474  0.8245  0.5276
   51CHL1    C2 3747   6.807   0.147   7.031 -0.2570 -0.3812 -0.1901
   51CHL1   H2A 3748   6.908   0.137   6.986 -0.0789 -0.5180  0.2287
   51CHL1   H2B 3749   6.769   0.241   6.985 -1.5443 -0.3820  0.7994
   51CHL1   C20 3750   6.785   0.270   7.965  0.1885 -0.3786 -0.1085
   51CHL1   H20 3751   6.698   0.339   7.969  1.1291  0.8238 -0.0569
   51CHL1   C21 3752   6.905   0.354   7.925  0.6652 -0.1645 -0.5293
   51CHL1  H21A 3753   6.961   0.305   7.843 -1.5153 -1.0797 -1.5596
   51CHL1  H21B 3754   6.971   0.387   8.008  0.0957 -0.1497 -0.0799
   51CHL1  H21C 3755   6.878   0.451   7.877  1.3445  0.7285  0.8087
   51CHL1   C22 3756   6.791   0.207   8.108  0.2261  0.2622 -0.6898
   51CHL1  H22A 3757   6.792   0.290   8.182 -0.5738  0.2168 -0.6232
   51CHL1  H22B 3758   6.704   0.140   8.123 -0.5310  0.7944 -2.4280
   51CHL1   C23 3759   6.913   0.121   8.123  0.2967 -0.3460 -1.2873
   51CHL1  H23A 3760   6.909   0.024   8.069  0.6989 -0.5748 -0.9154
   51CHL1  H23B 3761   7.002   0.170   8.079  0.1453  0.6324 -0.5260
   51CHL1   C24 3762   6.948   0.093   8.273  0.0604  0.3179  0.2511
   51CHL1  H24A 3763   7.057   0.070   8.280  0.2575  1.3218  0.7685
   51CHL1  H24B 3764   6.936   0.185   8.335  0.4888  0.6972 -0.2144
   51CHL1   C25 3765   6.863  -0.029   8.324  0.2194 -0.0313  0.6711
   51CHL1   H25 3766   6.755  -0.004   8.322 -0.2494 -1.7827  2.1645
   51CHL1   C26 3767   6.881  -0.172   8.258  0.3911 -0.3786 -0.7806
   51CHL1  H26A 3768   6.822  -0.242   8.321  1.3800 -0.1944  0.3951
   51CHL1  H26B 3769   6.858  -0.185   8.150  0.2343 -1.2903 -0.6475
   51CHL1  H26C 3770   6.983  -0.207   8.285  0.0695 -0.1380  0.8820
   51CHL1   C27 3771   6.880  -0.050   8.477  0.0956 -0.3804  0.2640
   51CHL1  H27A 3772   6.801  -0.125   8.499 -0.1013 -0.5463 -0.9454
   51CHL1  H27B 3773   6.981  -0.085   8.507 -0.0764 -0.4539  0.7685
   51CHL1  H27C 3774   6.855   0.043   8.532 -2.1008 -1.5303  1.3641
   52CHL1    C3 3775   1.668   5.515   7.207  0.2093 -0.2456  0.5057
   52CHL1    H3 3776   1.623   5.610   7.243  0.7867 -0.3058  1.4085
   52CHL1    O3 3777   1.662   5.519   7.064 -0.1911  0.0921  0.1151
   52CHL1   H3' 3778   1.709   5.442   7.033  0.7656  1.0966 -1.0558
   52CHL1    C4 3779   1.817   5.526   7.238 -0.4335  0.7207 -0.2300
   52CHL1   H4A 3780   1.865   5.435   7.194  1.0499  0.8684  1.0134
   52CHL1   H4B 3781   1.857   5.613   7.182  0.1346 -0.5856 -1.9639
   52CHL1    C5 3782   1.839   5.519   7.388 -0.7485 -0.2911 -0.6183
   52CHL1    C6 3783   1.910   5.611   7.452 -0.2868  0.1725 -0.1180
   52CHL1    H6 3784   1.936   5.700   7.393 -0.8188  1.3101  1.3130
   52CHL1    C7 3785   1.946   5.602   7.594 -0.5030 -0.2432 -0.7497
   52CHL1   H7A 3786   2.051   5.638   7.601 -0.8202  0.5675  0.1508
   52CHL1   H7B 3787   1.890   5.675   7.657 -0.7923 -0.7028 -0.4739
   52CHL1    C8 3788   1.923   5.460   7.661 -0.2168 -0.1327  0.0862
   52CHL1    H8 3789   2.005   5.397   7.620  0.0758 -0.2230  0.7972
   52CHL1   C14 3790   1.924   5.468   7.808  0.3041 -0.1955 -0.1622
   52CHL1   H14 3791   1.846   5.541   7.839  0.4129 -0.3282  0.4424
   52CHL1   C15 3792   2.049   5.527   7.866 -0.2537  0.1558  0.7772
   52CHL1  H15A 3793   2.132   5.470   7.819 -1.5796  0.2419 -1.8744
   52CHL1  H15B 3794   2.069   5.636   7.853  0.9435 -0.1996 -0.6270
   52CHL1   C16 3795   2.039   5.485   8.014  1.2402  0.0367  0.3947
   52CHL1  H16A 3796   2.125   5.417   8.034  0.4036 -1.2915 -0.3836
   52CHL1  H16B 3797   2.022   5.579   8.070 -0.1844 -0.4069  0.7592
   52CHL1   C17 3798   1.912   5.392   8.024  0.7573  0.3082 -0.6489
   52CHL1   H17 3799   1.832   5.466   8.047  0.9054  0.2038  0.2621
   52CHL1   C13 3800   1.892   5.345   7.881 -0.4223  0.4532 -0.9090
   52CHL1   C18 3801   1.992   5.227   7.854 -0.2752 -0.5109 -0.2953
   52CHL1  H18A 3802   2.087   5.228   7.911  0.9460 -0.3816 -2.2616
   52CHL1  H18B 3803   1.941   5.139   7.900 -0.2957 -0.0243  0.6247
   52CHL1  H18C 3804   2.008   5.203   7.747  2.3453  0.6007 -0.2132
   52CHL1   C12 3805   1.749   5.305   7.842  0.1213  0.1636  0.6055
   52CHL1  H12A 3806   1.705   5.214   7.888 -0.6792  1.1508  1.8650
   52CHL1  H12B 3807   1.690   5.397   7.864 -0.7990  0.4735 -2.6809
   52CHL1   C11 3808   1.728   5.286   7.690 -0.0572 -0.2693  0.1276
   52CHL1  H11A 3809   1.786   5.195   7.665 -1.2296 -0.9949 -0.0409
   52CHL1  H11B 3810   1.619   5.263   7.680  0.0420 -1.2147  1.0313
   52CHL1    C9 3811   1.781   5.410   7.611 -0.2798  0.3373 -0.1398
   52CHL1    H9 3812   1.708   5.489   7.638 -2.1369 -0.2192 -3.1507
   52CHL1   C10 3813   1.781   5.393   7.459 -0.2929 -0.0116  0.3840
   52CHL1   C19 3814   1.856   5.262   7.416 -0.7352  0.1180  0.1432
   52CHL1  H19A 3815   1.807   5.176   7.468  0.0662 -0.9685 -0.8539
   52CHL1  H19B 3816   1.853   5.251   7.306 -1.3710 -0.0012  0.1716
   52CHL1  H19C 3817   1.963   5.270   7.447 -1.1464 -0.8393  1.9685
   52CHL1    C1 3818   1.626   5.397   7.417 -0.5653  0.5622 -0.0404
   52CHL1   H1A 3819   1.576   5.301   7.440 -0.3160  0.3775 -0.2673
   52CHL1   H1B 3820   1.582   5.490   7.460 -0.7826  1.4048 -1.9496
   52CHL1    C2 3821   1.607   5.391   7.267 -0.3365 -0.2117 -0.5946
   52CHL1   H2A 3822   1.500   5.395   7.240 -0.5774 -0.4840  0.2944
   52CHL1   H2B 3823   1.646   5.300   7.215 -0.6307  0.1981 -1.5516
   52CHL1   C20 3824   1.911   5.286   8.145  0.1730  0.0438  0.4968
   52CHL1   H20 3825   1.929   5.184   8.105 -0.5342 -0.3314  1.1072
   52CHL1   C21 3826   1.770   5.293   8.208  0.1493 -0.1687  0.1833
   52CHL1  H21A 3827   1.693   5.286   8.128  0.9645  4.1431 -1.2417
   52CHL1  H21B 3828   1.763   5.392   8.258 -1.9767 -0.7954  1.2914
   52CHL1  H21C 3829   1.753   5.212   8.283 -1.4697 -0.7586 -0.7614
   52CHL1   C22 3830   2.009   5.315   8.261  0.0294 -0.8948 -0.1950
   52CHL1  H22A 3831   2.112   5.324   8.219 -0.3511  2.0164 -0.7382
   52CHL1  H22B 3832   1.980   5.410   8.311 -1.3602 -0.7313 -1.2477
   52CHL1   C23 3833   2.009   5.207   8.377 -0.1512  0.2836  0.5108
   52CHL1  H23A 3834   2.086   5.235   8.452  0.2057  0.0040  0.2550
   52CHL1  H23B 3835   1.907   5.199   8.420 -0.3114 -0.6579 -0.0254
   52CHL1   C24 3836   2.075   5.074   8.335  0.3753  0.5805  0.2555
   52CHL1  H24A 3837   1.998   5.013   8.282  0.8870  2.1114 -2.4392
   52CHL1  H24B 3838   2.154   5.092   8.259  0.0842 -0.0358 -0.2105
   52CHL1   C25 3839   2.144   4.996   8.450  0.4669 -0.0719  0.3682
   52CHL1   H25 3840   2.194   5.073   8.512 -0.0092  0.2505  0.3552
   52CHL1   C26 3841   2.050   4.930   8.549  0.0971 -0.7239  0.5255
   52CHL1  H26A 3842   1.992   5.005   8.607  0.1961  1.6337 -2.2462
   52CHL1  H26B 3843   1.991   4.851   8.499 -0.2237  0.6896 -1.4356
   52CHL1  H26C 3844   2.110   4.880   8.629 -0.0945 -0.3328  0.9161
   52CHL1   C27 3845   2.245   4.889   8.400  0.2225  0.3360  0.5084
   52CHL1  H27A 3846   2.192   4.804   8.353  0.7498 -0.1202  0.7307
   52CHL1  H27B 3847   2.301   4.936   8.316 -1.0402  1.2512  0.1339
   52CHL1  H27C 3848   2.310   4.857   8.484  1.2853  0.5758 -0.2059
   53CHL1    C3 3849   4.666   4.181   6.914 -0.4035  0.5073  0.4620
   53CHL1    H3 3850   4.710   4.274   6.955 -0.7745  1.7833 -1.8420
   53CHL1    O3 3851   4.636   4.187   6.781 -0.3879 -0.1476 -0.3938
   53CHL1   H3' 3852   4.615   4.098   6.753 -0.4798 -0.9592  2.0102
   53CHL1    C4 3853   4.770   4.061   6.930  0.0420 -0.0003 -0.0654
   53CHL1   H4A 3854   4.732   3.972   6.875  0.1592 -0.0233 -0.1100
   53CHL1   H4B 3855   4.861   4.091   6.874 -0.1113 -2.0581 -1.5545
   53CHL1    C5 3856   4.797   4.010   7.068 -0.2561  0.7688  0.9905
   53CHL1    C6 3857   4.925   4.002   7.110 -0.2236  1.6573  0.0869
   53CHL1    H6 3858   5.005   4.028   7.038  0.8418 -3.2006 -0.8265
   53CHL1    C7 3859   4.968   3.956   7.250  0.1236 -0.0332  0.4187
   53CHL1   H7A 3860   5.041   3.874   7.240  0.9422  0.7646 -0.3529
   53CHL1   H7B 3861   5.015   4.030   7.317 -1.4977  0.3169  1.2246
   53CHL1    C8 3862   4.837   3.896   7.315 -0.6105 -0.3444  0.3697
   53CHL1    H8 3863   4.816   3.801   7.261 -0.3125  0.8630 -2.0279
   53CHL1   C14 3864   4.866   3.869   7.464  0.7039  0.3064  0.6971
   53CHL1   H14 3865   4.857   3.970   7.511 -1.8664  0.2561  0.4234
   53CHL1   C15 3866   4.999   3.805   7.503 -0.2616  0.6627 -0.6477
   53CHL1  H15A 3867   5.034   3.729   7.430  0.0125  1.1485 -1.0283
   53CHL1  H15B 3868   5.080   3.882   7.505 -0.0247  0.4543  1.8879
   53CHL1   C16 3869   4.970   3.743   7.639  0.3642  0.0342  0.4089
   53CHL1  H16A 3870   4.970   3.632   7.640  0.6078  0.0185  2.3065
   53CHL1  H16B 3871   5.047   3.781   7.710  0.1065 -0.5544  1.0157
   53CHL1   C17 3872   4.824   3.790   7.681 -0.2140 -0.5710  0.1736
   53CHL1   H17 3873   4.847   3.888   7.727  0.5823 -0.6762  0.0245
   53CHL1   C13 3874   4.756   3.802   7.539 -0.1247 -0.2110 -1.1110
   53CHL1   C18 3875   4.728   3.662   7.478 -0.5787 -0.0162  0.0107
   53CHL1  H18A 3876   4.700   3.662   7.370 -0.0037  0.9915 -0.1551
   53CHL1  H18B 3877   4.821   3.601   7.481 -0.8316 -0.5001 -1.3699
   53CHL1  H18C 3878   4.645   3.624   7.541 -0.6454  0.3426  0.1402
   53CHL1   C12 3879   4.633   3.888   7.540 -0.2144 -0.8350 -0.0234
   53CHL1  H12A 3880   4.535   3.849   7.576 -0.6107 -0.2180 -0.3957
   53CHL1  H12B 3881   4.657   3.988   7.582 -0.6122 -0.8183  0.1657
   53CHL1   C11 3882   4.594   3.909   7.389  0.1126 -0.5096 -0.0386
   53CHL1  H11A 3883   4.555   3.814   7.347 -0.2865  0.2129 -1.3673
   53CHL1  H11B 3884   4.516   3.988   7.392  0.0394 -0.6156  0.9736
   53CHL1    C9 3885   4.704   3.973   7.300  0.6961 -0.1223  0.8381
   53CHL1    H9 3886   4.720   4.074   7.344 -0.5426 -0.0848  1.2491
   53CHL1   C10 3887   4.665   3.989   7.152  0.0321 -0.9399 -0.2466
   53CHL1   C19 3888   4.588   3.859   7.099  0.3606 -0.1149 -0.0159
   53CHL1  H19A 3889   4.653   3.773   7.125  0.7910  0.4073  0.6629
   53CHL1  H19B 3890   4.494   3.850   7.158  0.3426  1.6407  0.2954
   53CHL1  H19C 3891   4.565   3.872   6.991 -0.2285  0.2316  0.1414
   53CHL1    C1 3892   4.567   4.111   7.141 -0.8824 -0.7074 -0.0070
   53CHL1   H1A 3893   4.469   4.081   7.182 -1.2452 -1.9915 -1.6753
   53CHL1   H1B 3894   4.604   4.197   7.201  0.1832 -0.0993 -1.4501
   53CHL1    C2 3895   4.538   4.158   6.998  0.8042 -0.4549  0.5604
   53CHL1   H2A 3896   4.474   4.249   6.994 -0.0222 -1.0444 -2.3115
   53CHL1   H2B 3897   4.479   4.072   6.960 -0.5654 -0.6246  2.8572
   53CHL1   C20 3898   4.766   3.704   7.795 -0.7987 -0.4203  0.4255
   53CHL1   H20 3899   4.774   3.601   7.754 -2.2682 -0.2856 -0.2705
   53CHL1   C21 3900   4.630   3.755   7.817  0.2765  0.1796  0.0709
   53CHL1  H21A 3901   4.624   3.866   7.819 -0.1988  0.2903 -2.8335
   53CHL1  H21B 3902   4.596   3.707   7.911  0.4989  0.1810  0.1524
   53CHL1  H21C 3903   4.567   3.719   7.733  0.6036 -0.2014 -0.0113
   53CHL1   C22 3904   4.845   3.695   7.922 -0.0182  0.5473 -0.0822
   53CHL1  H22A 3905   4.824   3.597   7.971 -2.2887  0.1873 -1.6156
   53CHL1  H22B 3906   4.953   3.680   7.905 -0.0065 -2.4391  1.8200
   53CHL1   C23 3907   4.836   3.813   8.019 -0.3078  0.0524 -0.2443
   53CHL1  H23A 3908   4.875   3.906   7.972  0.2900  0.5391  1.1539
   53CHL1  H23B 3909   4.729   3.833   8.040 -0.2256 -1.0148  1.3580
   53CHL1   C24 3910   4.911   3.790   8.155 -0.1677 -0.1704  0.1988
   53CHL1  H24A 3911   4.884   3.686   8.182  1.8587 -0.9424 -0.5504
   53CHL1  H24B 3912   5.020   3.782   8.139 -0.4951 -3.5160 -1.2626
   53CHL1   C25 3913   4.882   3.892   8.267  0.7232  1.0400 -0.1450
   53CHL1   H25 3914   4.773   3.884   8.286  1.1601 -2.1915  1.7441
   53CHL1   C26 3915   4.946   3.851   8.410 -0.0766  0.0116  0.0909
   53CHL1  H26A 3916   5.053   3.820   8.401  0.2075  1.2129 -0.9826
   53CHL1  H26B 3917   4.942   3.936   8.481  1.6210  2.6045 -2.6409
   53CHL1  H26C 3918   4.897   3.758   8.446 -1.4567 -0.0983 -1.9270
   53CHL1   C27 3919   4.932   4.040   8.227  0.2912  0.3695  0.7638
   53CHL1  H27A 3920   4.881   4.066   8.132 -1.2049 -0.7360  1.2181
   53CHL1  H27B 3921   4.909   4.107   8.313 -1.8107  0.3255  0.2987
   53CHL1  H27C 3922   5.041   4.029   8.215  0.2044  1.2356 -1.3867
   54CHL1    C3 3923   3.744   4.234   7.010  0.7013  0.3343 -1.0881
   54CHL1    H3 3924   3.721   4.125   7.012  0.9194  0.2921 -0.7878
   54CHL1    O3 3925   3.763   4.284   6.880 -0.1837 -0.6906 -0.0179
   54CHL1   H3' 3926   3.757   4.379   6.890  0.7357 -0.4395 -1.6073
   54CHL1    C4 3927   3.621   4.314   7.069 -0.1631 -0.7077 -0.7984
   54CHL1   H4A 3928   3.644   4.422   7.074  0.1985 -0.8224  3.5086
   54CHL1   H4B 3929   3.526   4.303   7.013 -1.1845  0.0470  0.7362
   54CHL1    C5 3930   3.599   4.262   7.211  0.2021 -0.5641 -0.1895
   54CHL1    C6 3931   3.478   4.214   7.252 -0.8998  0.2000 -0.3448
   54CHL1    H6 3932   3.392   4.209   7.183 -2.2424  0.5657  1.2468
   54CHL1    C7 3933   3.449   4.168   7.390  0.3905 -0.8677 -0.0917
   54CHL1   H7A 3934   3.345   4.199   7.416 -0.9935 -4.3137 -0.9542
   54CHL1   H7B 3935   3.455   4.058   7.406  0.2649 -0.9279 -0.4601
   54CHL1    C8 3936   3.542   4.233   7.487 -0.1206 -0.2853 -0.4044
   54CHL1    H8 3937   3.513   4.341   7.495 -0.2056 -0.3940  1.0833
   54CHL1   C14 3938   3.515   4.165   7.625 -0.2027  1.1298 -0.6758
   54CHL1   H14 3939   3.530   4.055   7.613 -3.0192  0.4309  1.3089
   54CHL1   C15 3940   3.377   4.173   7.684  0.4555 -0.3113 -0.3090
   54CHL1  H15A 3941   3.334   4.273   7.661 -1.6161 -1.5904 -2.4597
   54CHL1  H15B 3942   3.303   4.096   7.655  1.1682 -0.5686 -1.5066
   54CHL1   C16 3943   3.409   4.169   7.841 -0.3875 -0.1318 -0.3059
   54CHL1  H16A 3944   3.390   4.276   7.863  0.7155  0.6845 -2.8544
   54CHL1  H16B 3945   3.344   4.090   7.884  0.7582  0.0987  1.9900
   54CHL1   C17 3946   3.556   4.143   7.858 -0.8806 -0.4582 -0.1782
   54CHL1   H17 3947   3.577   4.035   7.844  1.2094 -0.2881  1.1055
   54CHL1   C13 3948   3.616   4.206   7.732 -0.0277  0.3031 -0.2142
   54CHL1   C18 3949   3.620   4.359   7.748 -0.3812 -0.3278 -0.0464
   54CHL1  H18A 3950   3.525   4.404   7.785 -1.5811 -1.7525 -1.2236
   54CHL1  H18B 3951   3.703   4.384   7.816  0.4095 -1.5165 -0.5322
   54CHL1  H18C 3952   3.651   4.416   7.658  0.4856  2.2646  1.7911
   54CHL1   C12 3953   3.751   4.152   7.685  0.0806 -0.3359 -0.0430
   54CHL1  H12A 3954   3.841   4.166   7.749  0.6054 -0.2991 -0.7717
   54CHL1  H12B 3955   3.746   4.042   7.671  0.0760 -0.3269 -0.1131
   54CHL1   C11 3956   3.792   4.222   7.554 -0.1181 -0.3916 -0.0712
   54CHL1  H11A 3957   3.814   4.329   7.576 -1.8514 -0.1971  0.9339
   54CHL1  H11B 3958   3.878   4.161   7.518  0.0233 -0.6117  0.6218
   54CHL1    C9 3959   3.684   4.210   7.444  0.5637 -0.3334 -0.4632
   54CHL1    H9 3960   3.676   4.105   7.409 -0.0710  0.0374 -1.5154
   54CHL1   C10 3961   3.723   4.279   7.309  0.1112 -0.4642  0.8351
   54CHL1   C19 3962   3.740   4.434   7.339 -0.0191 -0.1707 -0.0248
   54CHL1  H19A 3963   3.649   4.472   7.389 -2.3256 -0.7345 -3.4689
   54CHL1  H19B 3964   3.834   4.454   7.396 -1.0196 -0.4491  1.7791
   54CHL1  H19C 3965   3.736   4.487   7.242 -0.0388  1.7128  0.9654
   54CHL1    C1 3966   3.851   4.221   7.235  0.0960  0.3170 -0.2717
   54CHL1   H1A 3967   3.932   4.249   7.306 -0.6409  1.1877  0.2469
   54CHL1   H1B 3968   3.838   4.111   7.243  0.4593 -0.0451 -3.4786
   54CHL1    C2 3969   3.869   4.263   7.096 -0.3457 -0.4715  0.7631
   54CHL1   H2A 3970   3.954   4.214   7.044 -1.3028 -0.3068 -0.9993
   54CHL1   H2B 3971   3.893   4.372   7.092  2.0758 -0.9413  0.8372
   54CHL1   C20 3972   3.593   4.197   8.000 -0.2601  0.0508  0.2778
   54CHL1   H20 3973   3.561   4.303   7.990 -0.4072 -0.1889 -2.7234
   54CHL1   C21 3974   3.742   4.187   8.034  0.2864 -0.2439 -0.0217
   54CHL1  H21A 3975   3.759   4.213   8.141  0.9592 -0.8004  0.0169
   54CHL1  H21B 3976   3.799   4.254   7.967 -0.3488 -1.9652 -2.3919
   54CHL1  H21C 3977   3.777   4.081   8.035  1.1269 -0.0156 -1.7889
   54CHL1   C22 3978   3.516   4.142   8.128  0.5570  0.1618  0.7840
   54CHL1  H22A 3979   3.414   4.106   8.102 -0.3118  4.1350 -2.3700
   54CHL1  H22B 3980   3.561   4.052   8.175 -1.3951 -1.3738 -0.1062
   54CHL1   C23 3981   3.500   4.246   8.243 -0.2655 -0.2271  0.3509
   54CHL1  H23A 3982   3.595   4.255   8.300 -0.9100  1.3605  1.2418
   54CHL1  H23B 3983   3.473   4.341   8.192 -0.5428  1.0396  2.7357
   54CHL1   C24 3984   3.389   4.201   8.343  0.4114 -0.7469 -0.0428
   54CHL1  H24A 3985   3.287   4.202   8.299 -0.1412 -2.5739  1.0982
   54CHL1  H24B 3986   3.414   4.097   8.373  0.9171 -0.9915 -1.2437
   54CHL1   C25 3987   3.389   4.274   8.474  0.0033 -0.3582 -0.2713
   54CHL1   H25 3988   3.497   4.269   8.501 -0.2943  0.0048  1.0353
   54CHL1   C26 3989   3.356   4.421   8.459  0.7684  0.2491 -0.0210
   54CHL1  H26A 3990   3.430   4.487   8.409  0.6687 -0.2227 -0.8094
   54CHL1  H26B 3991   3.261   4.425   8.402  0.5501  1.7459  0.4012
   54CHL1  H26C 3992   3.330   4.455   8.561  0.3014 -0.7435  0.1965
   54CHL1   C27 3993   3.294   4.210   8.575 -0.0280 -0.0928 -0.3194
   54CHL1  H27A 3994   3.337   4.115   8.613 -1.6704  0.3370  2.9967
   54CHL1  H27B 3995   3.277   4.271   8.666  0.0917 -0.2104 -0.2181
   54CHL1  H27C 3996   3.200   4.190   8.520 -1.4939 -0.1054  2.0657
   55CHL1    C3 3997   2.016   0.192   7.041 -0.2660 -0.2623 -0.1917
   55CHL1    H3 3998   2.109   0.248   7.067 -0.7294 -0.3680  1.8869
   55CHL1    O3 3999   2.009   0.169   6.902  0.4078  0.2381 -0.4159
   55CHL1   H3' 4000   1.921   0.198   6.879  0.6667  2.6029  1.2664
   55CHL1    C4 4001   2.023   0.063   7.115 -0.4325  1.0370  0.0859
   55CHL1   H4A 4002   1.925   0.014   7.098 -1.6234  3.1583  0.4241
   55CHL1   H4B 4003   2.103  -0.002   7.076 -1.0717 -0.0199  0.5060
   55CHL1    C5 4004   2.020   0.079   7.265  0.0314 -0.0481  0.0779
   55CHL1    C6 4005   2.113   0.026   7.339  0.2229 -0.1817  0.2466
   55CHL1    H6 4006   2.199  -0.033   7.303  1.0769  2.2002 -1.9321
   55CHL1    C7 4007   2.113   0.029   7.489 -0.0343 -0.4502 -0.8564
   55CHL1   H7A 4008   2.127  -0.068   7.541 -0.2521  0.9221  1.9606
   55CHL1   H7B 4009   2.197   0.096   7.516 -0.5655  0.5996 -1.7241
   55CHL1    C8 4010   1.984   0.093   7.552 -0.1311  0.3562 -0.0893
   55CHL1    H8 4011   1.903   0.017   7.549 -1.8280  2.1009 -1.2323
   55CHL1   C14 4012   2.010   0.133   7.700 -0.6714 -0.9701  0.8842
   55CHL1   H14 4013   2.081   0.219   7.695 -2.8125  0.9376  1.3232
   55CHL1   C15 4014   2.068   0.025   7.790 -0.6591  0.0756 -0.7932
   55CHL1  H15A 4015   2.022  -0.072   7.763  0.5569 -1.0544  0.9578
   55CHL1  H15B 4016   2.179   0.024   7.787 -0.4855  0.4566  2.2907
   55CHL1   C16 4017   2.037   0.078   7.926 -0.8124 -0.0848 -0.2773
   55CHL1  H16A 4018   1.980  -0.004   7.975  0.9182 -1.1914 -0.0372
   55CHL1  H16B 4019   2.133   0.104   7.975 -0.8823 -1.7187  0.8103
   55CHL1   C17 4020   1.951   0.209   7.905 -0.4335  0.5113 -0.3039
   55CHL1   H17 4021   2.029   0.286   7.888 -0.8296  0.5302 -2.1426
   55CHL1   C13 4022   1.892   0.191   7.765 -0.0274 -0.4320 -0.2238
   55CHL1   C18 4023   1.778   0.084   7.784 -0.1257  0.9556  0.7240
   55CHL1  H18A 4024   1.817  -0.008   7.832  1.1712  1.1382  0.0861
   55CHL1  H18B 4025   1.692   0.124   7.841 -0.3510 -0.2459  1.2561
   55CHL1  H18C 4026   1.741   0.058   7.683  0.7451  0.4177  0.5307
   55CHL1   C12 4027   1.847   0.315   7.685  0.1566 -0.4219 -0.1431
   55CHL1  H12A 4028   1.760   0.360   7.736  1.3095 -0.5027  2.0343
   55CHL1  H12B 4029   1.932   0.386   7.694  0.2217 -0.5644  0.4340
   55CHL1   C11 4030   1.807   0.284   7.543  0.4834  0.0091  0.2807
   55CHL1  H11A 4031   1.723   0.212   7.545  2.3027 -2.3591 -1.6547
   55CHL1  H11B 4032   1.788   0.374   7.482  1.0897  0.1208  0.2546
   55CHL1    C9 4033   1.922   0.207   7.469 -0.5833 -0.6699 -0.2588
   55CHL1    H9 4034   2.001   0.284   7.457 -3.1808  2.1858 -0.3845
   55CHL1   C10 4035   1.903   0.165   7.320 -0.0518 -0.0495  0.8621
   55CHL1   C19 4036   1.764   0.084   7.320  0.3098  0.3779 -0.1339
   55CHL1  H19A 4037   1.678   0.154   7.333 -0.4344  0.5377 -4.5184
   55CHL1  H19B 4038   1.752   0.028   7.225  1.4349 -0.4971  0.2306
   55CHL1  H19C 4039   1.752   0.011   7.403 -2.3593  1.2689  0.3896
   55CHL1    C1 4040   1.887   0.294   7.232  0.1392  0.8757  0.1622
   55CHL1   H1A 4041   1.795   0.342   7.271  0.5734 -0.6263  3.3400
   55CHL1   H1B 4042   1.970   0.368   7.239  0.6169  0.3980 -0.3338
   55CHL1    C2 4043   1.888   0.264   7.080  0.1524  0.0995 -0.1603
   55CHL1   H2A 4044   1.879   0.364   7.030 -1.3551  1.1928  2.1214
   55CHL1   H2B 4045   1.798   0.201   7.064 -0.8654  0.9328  1.8545
   55CHL1   C20 4046   1.864   0.244   8.021 -0.1113 -0.2941 -0.6396
   55CHL1   H20 4047   1.764   0.195   8.026 -0.7241  1.0045  2.2627
   55CHL1   C21 4048   1.833   0.397   8.005 -0.2655  0.2001  0.0413
   55CHL1  H21A 4049   1.805   0.444   8.102  1.5568  2.3347 -0.3919
   55CHL1  H21B 4050   1.759   0.424   7.926 -2.1536 -1.7206  1.0375
   55CHL1  H21C 4051   1.925   0.449   7.972 -0.5412  0.3400 -0.5334
   55CHL1   C22 4052   1.931   0.220   8.159  0.0202 -0.0968  0.0267
   55CHL1  H22A 4053   1.975   0.118   8.156 -2.1225 -1.0650 -1.2306
   55CHL1  H22B 4054   2.004   0.302   8.175 -0.2283  0.0279  0.5718
   55CHL1   C23 4055   1.827   0.228   8.277 -0.6618 -0.4802  0.6639
   55CHL1  H23A 4056   1.771   0.324   8.271  1.9064  1.0209 -3.1045
   55CHL1  H23B 4057   1.746   0.159   8.247 -0.9937  0.1453  0.0827
   55CHL1   C24 4058   1.887   0.202   8.414 -0.8158 -0.0174 -0.2734
   55CHL1  H24A 4059   1.919   0.095   8.421  0.3245  0.4287  2.6559
   55CHL1  H24B 4060   1.979   0.261   8.436 -0.6433  0.1284 -1.3006
   55CHL1   C25 4061   1.794   0.223   8.541 -0.2860  0.0088  0.8502
   55CHL1   H25 4062   1.698   0.174   8.516 -0.8766  0.9548  1.2207
   55CHL1   C26 4063   1.821   0.139   8.664  0.3320  0.0528  0.0460
   55CHL1  H26A 4064   1.916   0.170   8.713  0.7184 -1.9283  0.6327
   55CHL1  H26B 4065   1.737   0.148   8.737  1.1168 -1.4398  1.2032
   55CHL1  H26C 4066   1.820   0.033   8.632 -2.0346  0.1502 -0.3849
   55CHL1   C27 4067   1.779   0.367   8.571  0.1642  0.8305  0.3376
   55CHL1  H27A 4068   1.740   0.389   8.673 -1.9510  1.9137 -0.6394
   55CHL1  H27B 4069   1.877   0.417   8.554  2.2097 -2.6857  0.9987
   55CHL1  H27C 4070   1.717   0.415   8.492  0.7850 -1.2223 -1.4988
   56CHL1    C3 4071   4.095   5.457   6.909 -0.0326 -0.6846  0.2101
   56CHL1    H3 4072   4.168   5.541   6.906  0.6358 -1.1227  2.3022
   56CHL1    O3 4073   4.061   5.441   6.770  0.0579 -0.2064  0.2913
   56CHL1   H3' 4074   3.969   5.411   6.764  0.1543 -0.6296  0.7833
   56CHL1    C4 4075   4.167   5.337   6.962  0.3165  0.2319 -0.1761
   56CHL1   H4A 4076   4.112   5.244   6.935 -0.9375  1.8097 -3.6034
   56CHL1   H4B 4077   4.263   5.328   6.906  0.4247 -1.7183  0.2428
   56CHL1    C5 4078   4.189   5.322   7.112 -0.5402  0.6071 -0.6759
   56CHL1    C6 4079   4.306   5.281   7.159 -0.0297  0.5316 -0.4755
   56CHL1    H6 4080   4.395   5.269   7.095  1.0442  0.9413  0.8862
   56CHL1    C7 4081   4.339   5.266   7.309 -0.5559  0.1555  0.2086
   56CHL1   H7A 4082   4.395   5.173   7.332  0.9572  0.7510 -0.9139
   56CHL1   H7B 4083   4.400   5.354   7.339 -1.5863  0.8951  0.1665
   56CHL1    C8 4084   4.213   5.273   7.398  0.3704  0.3048  0.7337
   56CHL1    H8 4085   4.157   5.177   7.395  2.2931 -0.9087  1.5506
   56CHL1   C14 4086   4.256   5.306   7.541  0.2280 -0.7580 -0.4109
   56CHL1   H14 4087   4.294   5.410   7.533 -2.0884  0.2288  0.6249
   56CHL1   C15 4088   4.371   5.227   7.597 -0.4334  0.5609  0.4877
   56CHL1  H15A 4089   4.345   5.122   7.572  1.2434  0.3806 -0.6358
   56CHL1  H15B 4090   4.473   5.238   7.555  0.1973  0.1901  1.8465
   56CHL1   C16 4091   4.359   5.247   7.744 -0.8699  0.0967 -0.2849
   56CHL1  H16A 4092   4.355   5.145   7.789  0.1814  0.2819  0.2410
   56CHL1  H16B 4093   4.448   5.298   7.786 -1.8963  1.3774  0.4106
   56CHL1   C17 4094   4.229   5.331   7.765  0.1575 -0.5734  0.5630
   56CHL1   H17 4095   4.262   5.437   7.769  1.5311 -0.9824  0.3151
   56CHL1   C13 4096   4.140   5.307   7.643 -0.6166 -0.1011  0.4176
   56CHL1   C18 4097   4.068   5.165   7.654  0.1818  0.4802 -0.1240
   56CHL1  H18A 4098   3.976   5.180   7.716 -0.3498 -0.8635 -0.5675
   56CHL1  H18B 4099   4.034   5.138   7.552 -1.8275 -0.5740  0.7718
   56CHL1  H18C 4100   4.129   5.083   7.697  0.0163  1.2189  1.6232
   56CHL1   C12 4101   4.035   5.414   7.595 -0.9768 -0.0749 -0.2508
   56CHL1  H12A 4102   3.944   5.424   7.657 -0.6693 -2.0901  0.5893
   56CHL1  H12B 4103   4.095   5.507   7.591 -0.6583 -0.2967 -0.7394
   56CHL1   C11 4104   3.986   5.391   7.447  0.0803  0.2069  0.6386
   56CHL1  H11A 4105   3.924   5.298   7.447  2.1136 -1.2180  0.0235
   56CHL1  H11B 4106   3.934   5.480   7.407  1.5761  0.2797 -1.2882
   56CHL1    C9 4107   4.108   5.377   7.351 -0.1345 -0.2514 -1.0233
   56CHL1    H9 4108   4.157   5.476   7.365 -1.3547  0.2420  0.0338
   56CHL1   C10 4109   4.070   5.360   7.199 -0.3528  0.2633  0.3864
   56CHL1   C19 4110   3.955   5.265   7.187  0.8980  0.5594  0.4817
   56CHL1  H19A 4111   3.855   5.296   7.221  0.3207  0.3539 -0.9445
   56CHL1  H19B 4112   3.940   5.240   7.080 -1.4510 -0.4651  0.9898
   56CHL1  H19C 4113   3.982   5.170   7.238 -1.3189 -0.3622  0.0227
   56CHL1    C1 4114   4.020   5.500   7.152 -0.1957 -0.8166  0.2645
   56CHL1   H1A 4115   3.941   5.551   7.212 -0.4977  0.3881 -1.0944
   56CHL1   H1B 4116   4.098   5.577   7.167 -3.1218  2.8766 -1.8353
   56CHL1    C2 4117   3.978   5.510   6.998 -0.2266  0.7531 -0.3029
   56CHL1   H2A 4118   3.947   5.610   6.959  0.2580  1.6810  1.5607
   56CHL1   H2B 4119   3.886   5.448   6.989 -0.2603  0.9359 -1.2664
   56CHL1   C20 4120   4.168   5.312   7.903 -0.0363  0.9355  0.4659
   56CHL1   H20 4121   4.143   5.204   7.908 -1.1654  1.2404  1.8052
   56CHL1   C21 4122   4.030   5.380   7.925 -0.1059  0.0215 -0.0491
   56CHL1  H21A 4123   3.998   5.379   8.031 -0.2351  4.7041  0.1461
   56CHL1  H21B 4124   3.963   5.321   7.859  1.0780  0.6948 -1.9581
   56CHL1  H21C 4125   4.027   5.484   7.885  0.3023 -0.7191 -2.1366
   56CHL1   C22 4126   4.262   5.347   8.019 -0.1225  0.2937  0.2571
   56CHL1  H22A 4127   4.366   5.317   7.993 -0.1170 -0.5517  1.1919
   56CHL1  H22B 4128   4.271   5.457   8.031  3.1982  0.1924 -0.2950
   56CHL1   C23 4129   4.218   5.283   8.149 -0.5148 -1.0170 -0.2986
   56CHL1  H23A 4130   4.120   5.323   8.181  0.3112  1.6048 -0.8114
   56CHL1  H23B 4131   4.209   5.173   8.138 -0.3041 -1.0850  0.1500
   56CHL1   C24 4132   4.319   5.307   8.269 -0.1081  0.4033 -0.0510
   56CHL1  H24A 4133   4.329   5.416   8.289  0.8030  1.2472 -4.1892
   56CHL1  H24B 4134   4.275   5.248   8.351  3.1417 -0.1807  1.4497
   56CHL1   C25 4135   4.468   5.257   8.253 -0.0763  0.4611  0.5550
   56CHL1   H25 4136   4.513   5.311   8.167  0.4311  0.0554  0.5644
   56CHL1   C26 4137   4.555   5.271   8.388  0.0559 -0.7561 -0.6704
   56CHL1  H26A 4138   4.553   5.380   8.409  1.0856 -0.7276 -0.6849
   56CHL1  H26B 4139   4.660   5.237   8.378  0.0812 -0.7567 -0.4227
   56CHL1  H26C 4140   4.495   5.229   8.472  0.1668  1.9718  0.9087
   56CHL1   C27 4141   4.468   5.110   8.215 -0.5368  0.5703  0.8518
   56CHL1  H27A 4142   4.407   5.042   8.279 -1.6068 -0.4437 -1.1610
   56CHL1  H27B 4143   4.426   5.097   8.113  4.7671  0.2349 -1.6621
   56CHL1  H27C 4144   4.572   5.072   8.206 -0.5269  0.2074  2.2166
   57SAPC     N 4145   1.900   2.394  11.052 -0.4230  0.0733  0.5447
   57SAPC   C12 4146   1.773   2.340  10.992 -0.1365  0.1328  0.5279
   57SAPC  H12A 4147   1.753   2.244  11.038 -2.8271  0.6167  0.5256
   57SAPC  H12B 4148   1.797   2.318  10.889  0.8134 -2.6021  1.2283
   57SAPC   C13 4149   1.882   2.433  11.193 -1.2485 -0.1108  0.2296
   57SAPC  H13A 4150   1.849   2.354  11.259 -0.4381  1.5073  2.6985
   57SAPC  H13B 4151   1.973   2.470  11.236 -0.1202 -4.7860  2.5212
   57SAPC  H13C 4152   1.799   2.502  11.200 -2.3521 -1.1678 -1.4801
   57SAPC   C14 4153   2.003   2.293  11.048  0.2838  0.7374  0.1926
   57SAPC  H14A 4154   1.983   2.206  11.108 -0.4452  1.3782  0.9109
   57SAPC  H14B 4155   2.015   2.247  10.951  1.2486  0.7894  0.2749
   57SAPC  H14C 4156   2.089   2.344  11.090 -0.4349  0.1659  2.4979
   57SAPC   C15 4157   1.952   2.511  10.971  0.2586 -0.7476  0.4386
   57SAPC  H15A 4158   1.958   2.491  10.865 -0.8204 -1.9391  0.5719
   57SAPC  H15B 4159   1.887   2.596  10.985  0.2875 -0.0348 -2.9780
   57SAPC  H15C 4160   2.050   2.548  10.998  1.3450 -0.7971 -2.9472
   57SAPC   C11 4161   1.646   2.422  11.010 -0.2581  0.3695  0.2382
   57SAPC  H11A 4162   1.612   2.418  11.116  1.4004 -0.1401  0.7744
   57SAPC  H11B 4163   1.562   2.376  10.953 -1.3350  0.6433  1.5572
   57SAPC     P 4164   1.642   2.593  10.810 -0.1206  0.2037  0.0533
   57SAPC   O13 4165   1.518   2.665  10.789  0.2431  0.4935 -0.0660
   57SAPC   O14 4166   1.764   2.674  10.773  0.2460 -0.2138  0.6520
   57SAPC   O12 4167   1.660   2.560  10.969  0.1822  0.5061 -0.0959
   57SAPC   O11 4168   1.645   2.450  10.747  0.6217  0.0479 -0.1242
   57SAPC    C1 4169   1.690   2.442  10.611  0.4468 -0.0631  0.0324
   57SAPC    HA 4170   1.762   2.523  10.586 -2.2349  1.8436 -2.0151
   57SAPC    HB 4171   1.739   2.343  10.596 -2.0435 -1.3853  0.0431
   57SAPC    C2 4172   1.561   2.451  10.517 -0.2561  0.5692  0.0078
   57SAPC    HS 4173   1.487   2.530  10.545 -0.0523  1.6572 -2.3122
   57SAPC   O21 4174   1.505   2.324  10.512 -0.3495 -0.4845 -0.5122
   57SAPC   C21 4175   1.378   2.318  10.464  0.0004 -0.0841 -0.2614
   57SAPC   O22 4176   1.315   2.409  10.421  0.0019 -0.4512  0.5248
   57SAPC   C22 4177   1.346   2.169  10.468 -0.3418 -0.4819  0.2665
   57SAPC   H2R 4178   1.433   2.102  10.483  1.6196  1.9952  0.4805
   57SAPC   H2S 4179   1.282   2.151  10.557 -1.9263 -1.6473 -1.0382
   57SAPC    C3 4180   1.612   2.488  10.374  1.2700  0.1348  0.3534
   57SAPC    HX 4181   1.523   2.494  10.308 -0.7565  3.9426  3.0392
   57SAPC    HY 4182   1.680   2.407  10.341 -1.5194 -2.1075 -0.2436
   57SAPC   O31 4183   1.674   2.619  10.385  0.7937 -0.1158  0.3041
   57SAPC   C31 4184   1.592   2.724  10.367 -0.0046  0.0343 -0.9524
   57SAPC   O32 4185   1.472   2.716  10.346  0.0033  0.1350 -0.3809
   57SAPC   C32 4186   1.668   2.851  10.392  0.0200  0.2556  0.1149
   57SAPC   H2X 4187   1.758   2.835  10.328  0.4983 -0.5003  0.9539
   57SAPC   H2Y 4188   1.700   2.827  10.495  0.9148 -5.0157 -1.0841
   57SAPC   C23 4189   1.266   2.127  10.340  0.3281 -0.4947 -0.3301
   57SAPC   H3R 4190   1.199   2.207  10.301 -0.2536 -0.4376  0.7294
   57SAPC   H3S 4191   1.199   2.044  10.371  0.3626 -1.6903 -3.1773
   57SAPC   C24 4192   1.362   2.071  10.244  0.3317  0.4418  0.8221
   57SAPC   H4R 4193   1.301   2.029  10.161 -1.7014 -0.7993  2.8211
   57SAPC   H4S 4194   1.407   1.977  10.283  0.4657 -0.6350 -1.7219
   57SAPC   C25 4195   1.482   2.148  10.184 -0.2869 -0.1490 -0.1477
   57SAPC   H5R 4196   1.580   2.114  10.221 -1.3145 -2.9873  0.2474
   57SAPC   C26 4197   1.481   2.247  10.091 -0.0941  0.0966 -0.0645
   57SAPC   H6R 4198   1.581   2.279  10.058 -0.2044 -0.4226 -0.9280
   57SAPC   C27 4199   1.351   2.316  10.039 -0.1898  0.0677 -0.1924
   57SAPC   H7R 4200   1.260   2.266  10.079  0.3959  0.1968  1.3268
   57SAPC   H7S 4201   1.344   2.309   9.928 -2.7013 -0.9433 -0.0385
   57SAPC   C28 4202   1.355   2.457  10.089 -0.1160 -0.4551 -0.1226
   57SAPC   H8R 4203   1.287   2.464  10.175  1.1797 -0.8300  0.9492
   57SAPC   C29 4204   1.430   2.564  10.056 -0.4782  0.0743 -0.4907
   57SAPC   H9R 4205   1.417   2.659  10.109  1.7809 -0.2865  0.8260
   57SAPC  C210 4206   1.541   2.564   9.942  0.0671 -0.1339 -0.1604
   57SAPC  H10R 4207   1.522   2.640   9.863  0.9969 -0.9732 -1.2302
   57SAPC  H10S 4208   1.539   2.471   9.882 -1.1369  0.7245 -1.5230
   57SAPC  C211 4209   1.681   2.567  10.011 -0.3041  0.0717 -0.2679
   57SAPC  H11R 4210   1.685   2.492  10.092  0.4626 -0.1172 -0.4789
   57SAPC  C212 4211   1.782   2.649   9.987 -0.6089 -0.9175 -0.2534
   57SAPC  H12R 4212   1.871   2.649  10.053 -0.5776 -0.1402 -0.2804
   57SAPC  C213 4213   1.772   2.757   9.885 -0.4187 -0.2251  0.2682
   57SAPC  H13R 4214   1.717   2.839   9.936 -1.8514  0.3285 -2.0543
   57SAPC  H13S 4215   1.723   2.713   9.796  1.5929 -1.0432 -0.4772
   57SAPC  C214 4216   1.911   2.809   9.845 -0.2320  0.1333 -0.8111
   57SAPC  H14R 4217   1.966   2.766   9.760  1.7239 -3.1869  1.9092
   57SAPC  C215 4218   1.978   2.910   9.907 -0.0158  0.4306 -0.3638
   57SAPC  H15R 4219   2.079   2.941   9.878  0.1065 -0.6546 -1.1401
   57SAPC  C216 4220   1.921   2.975  10.034 -0.6704  0.3921  0.8362
   57SAPC  H16R 4221   1.870   2.899  10.097 -2.9768  1.5032  0.4014
   57SAPC  H16S 4222   1.851   3.060  10.020 -0.4499  0.7034  1.6089
   57SAPC  C217 4223   2.036   3.010  10.131 -0.1703  0.4823  0.0280
   57SAPC  H17R 4224   1.989   3.062  10.217 -0.9025  0.0787 -0.1218
   57SAPC  H17S 4225   2.119   3.066  10.082  1.1677 -1.0972  0.3830
   57SAPC  C218 4226   2.099   2.888  10.199  0.1892 -0.3497 -0.4431
   57SAPC  H18R 4227   2.158   2.834  10.122  0.5376 -0.9952  0.2602
   57SAPC  H18S 4228   2.011   2.826  10.224  0.4033 -0.7035 -0.5647
   57SAPC  C219 4229   2.186   2.928  10.320 -0.1339  0.1902 -0.3152
   57SAPC  H19R 4230   2.245   3.021  10.311 -0.4627  0.2544 -2.1180
   57SAPC  H19S 4231   2.259   2.844  10.323 -2.9441 -2.4094  1.0504
   57SAPC  C220 4232   2.109   2.944  10.455  0.9540 -0.2701 -0.2730
   57SAPC  H20R 4233   2.167   3.014  10.520 -1.1978  1.5837 -0.2497
   57SAPC  H20S 4234   2.098   2.844  10.502 -0.3311 -0.6106 -1.2576
   57SAPC  H20T 4235   2.011   2.993  10.435 -0.8897 -3.3018  0.7676
   57SAPC   C33 4236   1.603   2.985  10.357 -0.0889 -0.1551 -0.1567
   57SAPC   H3X 4237   1.676   3.068  10.347 -0.4723  0.2983  0.6723
   57SAPC   H3Y 4238   1.528   3.009  10.436  1.2293 -1.0565  1.4369
   57SAPC   C34 4239   1.546   2.985  10.216  0.0019 -0.1975  1.0922
   57SAPC   H4X 4240   1.472   2.903  10.205 -1.1340  0.8549  0.6689
   57SAPC   H4Y 4241   1.638   2.961  10.158 -0.7362 -0.1774 -0.0983
   57SAPC   C35 4242   1.487   3.121  10.172 -0.1389  0.4767  0.2508
   57SAPC   H5X 4243   1.560   3.203  10.185 -1.2773  1.5595  0.0445
   57SAPC   H5Y 4244   1.399   3.143  10.237  0.5816 -0.7027  1.6904
   57SAPC   C36 4245   1.447   3.135  10.025 -0.5803  0.0990  0.4116
   57SAPC   H6X 4246   1.428   3.243  10.010 -1.1289 -0.1060 -0.3870
   57SAPC   H6Y 4247   1.352   3.079  10.013 -0.0602 -0.4522 -1.3659
   57SAPC   C37 4248   1.544   3.071   9.927 -0.4751 -0.2095 -0.2906
   57SAPC   H7X 4249   1.535   2.961   9.926  0.4790 -0.2909 -0.5394
   57SAPC   H7Y 4250   1.649   3.101   9.949 -1.4220  2.9499  0.5870
   57SAPC   C38 4251   1.522   3.108   9.781 -0.4417  0.0986  1.4374
   57SAPC   H8X 4252   1.553   3.213   9.768  0.7461 -0.5701 -2.2188
   57SAPC   H8Y 4253   1.413   3.096   9.762 -0.5527  1.7571  0.9385
   57SAPC   C39 4254   1.612   3.014   9.696 -0.2981  0.7584  0.3634
   57SAPC   H9X 4255   1.597   2.907   9.723 -0.2430  0.1325 -1.8612
   57SAPC   H9Y 4256   1.717   3.041   9.719  0.4923 -1.4291 -0.4323
   57SAPC  C310 4257   1.576   3.039   9.552 -0.0592  0.3061 -0.2838
   57SAPC  H10X 4258   1.574   3.149   9.539 -1.0065  0.5137  1.3528
   57SAPC  H10Y 4259   1.467   3.014   9.551 -0.1341  0.6200 -0.0986
   57SAPC  C311 4260   1.664   2.963   9.452  0.1645  0.6586  0.7876
   57SAPC  H11X 4261   1.652   2.852   9.458 -1.5735  0.8819  2.4799
   57SAPC  H11Y 4262   1.769   2.986   9.480  0.1243  0.9935  0.6647
   57SAPC  C312 4263   1.633   3.004   9.304 -0.2693 -0.5855 -0.5035
   57SAPC  H12X 4264   1.636   3.112   9.281 -3.2472 -0.2082  0.3720
   57SAPC  H12Y 4265   1.529   2.973   9.278  0.1517 -1.0338 -1.6977
   57SAPC  C313 4266   1.708   2.923   9.200  0.0834  0.6118  0.5926
   57SAPC  H13X 4267   1.695   2.815   9.222 -1.5219  0.0495 -2.5430
   57SAPC  H13Y 4268   1.816   2.951   9.202  0.1930  0.7822 -2.4272
   57SAPC  C314 4269   1.663   2.940   9.053  0.2374  0.1681 -0.3446
   57SAPC  H14X 4270   1.678   3.048   9.030 -0.4308  0.1179 -1.0616
   57SAPC  H14Y 4271   1.555   2.921   9.035  0.1140  0.8894 -0.3808
   57SAPC  C315 4272   1.749   2.862   8.955 -0.3837 -0.1151  0.1869
   57SAPC  H15X 4273   1.727   2.758   8.986  1.6006 -0.7319 -0.3832
   57SAPC  H15Y 4274   1.851   2.898   8.977 -0.8729  1.2271  0.3790
   57SAPC  C316 4275   1.720   2.867   8.806 -0.6815  0.3068 -0.5289
   57SAPC  H16X 4276   1.732   2.976   8.786  1.4013  0.2648  0.2379
   57SAPC  H16Y 4277   1.618   2.829   8.787 -0.6093 -1.0891  1.5874
   57SAPC  C317 4278   1.830   2.791   8.717  1.3842  0.3949 -0.5424
   57SAPC  H17X 4279   1.830   2.685   8.749  0.6174  0.7581  0.7248
   57SAPC  H17Y 4280   1.926   2.845   8.733 -0.7531  3.6458  3.2960
   57SAPC  C318 4281   1.805   2.801   8.564 -0.0134  0.0770  0.3717
   57SAPC  H18X 4282   1.805   2.904   8.522  3.3037 -0.0379 -0.2018
   57SAPC  H18Y 4283   1.723   2.736   8.526 -0.8563 -0.3083  2.7165
   57SAPC  H18Z 4284   1.895   2.757   8.516 -0.2531  1.0400 -1.0472
   58SAPC     N 4285   3.662   3.471  11.012 -0.3974  0.1589  0.0164
   58SAPC   C12 4286   3.590   3.457  10.877  0.4206  1.0485  0.0709
   58SAPC  H12A 4287   3.656   3.403  10.810 -0.8196 -0.9386  0.3537
   58SAPC  H12B 4288   3.570   3.552  10.832  2.6935  0.8332 -1.5835
   58SAPC   C13 4289   3.598   3.577  11.094  1.1083  0.6210 -0.3575
   58SAPC  H13A 4290   3.496   3.545  11.112  0.8674  1.4062 -0.3190
   58SAPC  H13B 4291   3.638   3.585  11.194  0.5966 -0.4130 -0.0532
   58SAPC  H13C 4292   3.603   3.680  11.063 -0.5712  0.5482 -1.0087
   58SAPC   C14 4293   3.657   3.344  11.092  0.3924 -0.3941 -0.0758
   58SAPC  H14A 4294   3.555   3.317  11.118  0.2671  0.8559  0.8364
   58SAPC  H14B 4295   3.706   3.262  11.041  1.8948  0.1048  0.5322
   58SAPC  H14C 4296   3.712   3.343  11.185  2.0027 -0.1417 -1.0000
   58SAPC   C15 4297   3.806   3.520  10.985  0.2336 -0.2208  0.1802
   58SAPC  H15A 4298   3.809   3.620  10.946 -0.1986  0.0089  0.7155
   58SAPC  H15B 4299   3.869   3.514  11.072 -1.3983 -1.8384  1.3410
   58SAPC  H15C 4300   3.845   3.473  10.896 -0.5023  0.1692 -0.3679
   58SAPC   C11 4301   3.458   3.361  10.876  0.4043  0.3782 -0.5175
   58SAPC  H11A 4302   3.479   3.266  10.931 -1.1366  0.6038  0.5254
   58SAPC  H11B 4303   3.451   3.339  10.768  3.4050 -0.2592 -0.6730
   58SAPC     P 4304   3.270   3.543  10.906 -0.5081 -0.6423 -0.1841
   58SAPC   O13 4305   3.139   3.496  10.858 -0.6836 -0.3284  0.6580
   58SAPC   O14 4306   3.294   3.645  11.014  0.0812  0.0684 -0.0327
   58SAPC   O12 4307   3.340   3.410  10.943  0.3459  0.3383  0.2094
   58SAPC   O11 4308   3.356   3.576  10.788 -0.3620 -0.1262  0.2106
   58SAPC    C1 4309   3.315   3.661  10.676 -0.6175  0.0889 -0.4660
   58SAPC    HA 4310   3.230   3.729  10.697  2.0790  3.4686  0.3908
   58SAPC    HB 4311   3.406   3.722  10.658  1.0034 -1.8945  0.5903
   58SAPC    C2 4312   3.312   3.593  10.534  0.1606 -0.0512 -0.5186
   58SAPC    HS 4313   3.343   3.662  10.453  0.1802 -0.0504 -0.5106
   58SAPC   O21 4314   3.184   3.539  10.502 -0.2794  0.9148 -0.5796
   58SAPC   C21 4315   3.091   3.626  10.471  0.1264  0.0590 -0.0963
   58SAPC   O22 4316   3.099   3.744  10.495 -0.0777 -0.2302  0.1298
   58SAPC   C22 4317   2.976   3.568  10.398  0.3067  0.0496 -0.6899
   58SAPC   H2R 4318   2.900   3.531  10.469  2.8791 -1.8196  1.2562
   58SAPC   H2S 4319   2.932   3.645  10.331 -0.7330  0.2564  0.2100
   58SAPC    C3 4320   3.410   3.474  10.528  0.3728 -0.4908  0.3157
   58SAPC    HX 4321   3.363   3.393  10.588  0.7727 -0.4131  0.7339
   58SAPC    HY 4322   3.501   3.508  10.581 -0.4908 -0.2981  1.7291
   58SAPC   O31 4323   3.447   3.444  10.393 -0.2049 -0.4569  1.3255
   58SAPC   C31 4324   3.415   3.316  10.352 -0.3151 -0.5094 -0.4348
   58SAPC   O32 4325   3.371   3.232  10.425  0.0863  0.3273 -0.1558
   58SAPC   C32 4326   3.452   3.313  10.209 -0.3578  0.5353 -0.0789
   58SAPC   H2X 4327   3.557   3.278  10.196 -0.8654 -0.7648 -0.8396
   58SAPC   H2Y 4328   3.453   3.420  10.182 -0.4445  0.5624  0.0257
   58SAPC   C23 4329   3.021   3.441  10.315 -0.0173 -0.4033  0.1034
   58SAPC   H3R 4330   3.049   3.359  10.385 -1.1250 -1.4730 -0.6644
   58SAPC   H3S 4331   3.111   3.465  10.254  0.9163 -1.8812  0.8329
   58SAPC   C24 4332   2.907   3.378  10.234  0.3338 -0.0508 -0.6739
   58SAPC   H4R 4333   2.863   3.469  10.186  3.9917  2.9216  1.0569
   58SAPC   H4S 4334   2.824   3.342  10.299 -0.4866 -0.9300 -2.1468
   58SAPC   C25 4335   2.935   3.276  10.130  0.4656 -0.8925 -0.2669
   58SAPC   H5R 4336   2.969   3.178  10.167  0.0782 -1.5000 -1.4454
   58SAPC   C26 4337   2.929   3.289   9.996 -1.1199  0.8216 -0.3263
   58SAPC   H6R 4338   2.957   3.199   9.939  0.8837  0.7859  0.5997
   58SAPC   C27 4339   2.910   3.406   9.911 -0.5419 -0.4582 -0.0121
   58SAPC   H7R 4340   2.837   3.473   9.960 -0.5966 -0.5109 -0.0205
   58SAPC   H7S 4341   2.879   3.391   9.805  1.2832  0.7144 -0.7620
   58SAPC   C28 4342   3.039   3.480   9.906 -0.0456 -0.0160 -0.0559
   58SAPC   H8R 4343   3.059   3.559   9.980 -0.8941 -0.3677  0.5572
   58SAPC   C29 4344   3.139   3.458   9.814 -0.1178 -0.3357  0.1611
   58SAPC   H9R 4345   3.230   3.519   9.814  1.9331 -3.1400 -1.8133
   58SAPC  C210 4346   3.131   3.356   9.701  0.6271 -0.0993  0.2382
   58SAPC  H10R 4347   3.058   3.273   9.706  2.7206 -2.0852 -0.5093
   58SAPC  H10S 4348   3.223   3.293   9.704 -0.1660 -1.5025  5.7529
   58SAPC  C211 4349   3.101   3.439   9.571 -0.6677  0.1737 -0.1259
   58SAPC  H11R 4350   3.016   3.509   9.574 -0.0054  1.0217  3.6000
   58SAPC  C212 4351   3.189   3.440   9.465 -0.1695  0.0431 -0.2262
   58SAPC  H12R 4352   3.160   3.502   9.378  0.7370 -1.4220 -1.6228
   58SAPC  C213 4353   3.320   3.370   9.460 -0.0495  0.5718  0.0234
   58SAPC  H13R 4354   3.318   3.290   9.382  0.4825 -2.1299  2.6108
   58SAPC  H13S 4355   3.355   3.327   9.556  0.8730 -4.4554 -2.2298
   58SAPC  C214 4356   3.416   3.481   9.422 -0.1977 -0.2681  0.4788
   58SAPC  H14R 4357   3.416   3.581   9.467 -1.0348  0.4914 -1.1164
   58SAPC  C215 4358   3.512   3.469   9.326  0.0039  0.0504  0.0906
   58SAPC  H15R 4359   3.583   3.552   9.313 -0.5209  0.7125  1.2507
   58SAPC  C216 4360   3.543   3.340   9.246  0.4087  0.3950  0.3661
   58SAPC  H16R 4361   3.557   3.249   9.308 -1.2423 -1.6131 -1.9909
   58SAPC  H16S 4362   3.637   3.339   9.187  0.4296  3.2355  0.2424
   58SAPC  C217 4363   3.435   3.330   9.134 -0.1930 -0.5186  1.2883
   58SAPC  H17R 4364   3.333   3.358   9.167  0.6961  4.0143  0.9324
   58SAPC  H17S 4365   3.430   3.223   9.104  0.3349 -0.5448  1.2731
   58SAPC  C218 4366   3.467   3.421   9.015 -0.0557 -0.1674 -0.5174
   58SAPC  H18R 4367   3.574   3.404   8.991  0.9206  2.6313  1.3244
   58SAPC  H18S 4368   3.456   3.530   9.038 -1.3103 -0.3694 -0.0773
   58SAPC  C219 4369   3.388   3.376   8.892  1.0795  0.1474 -1.1307
   58SAPC  H19R 4370   3.280   3.365   8.916  0.4472  2.1606 -2.7772
   58SAPC  H19S 4371   3.423   3.274   8.864 -1.0037 -0.3815 -2.0054
   58SAPC  C220 4372   3.404   3.459   8.766  0.6647  0.7833  0.3331
   58SAPC  H20R 4373   3.399   3.569   8.782 -1.1379  0.7094  0.5099
   58SAPC  H20S 4374   3.321   3.433   8.697  0.1509 -1.0750  1.5455
   58SAPC  H20T 4375   3.505   3.436   8.728  0.6875 -0.4777  1.0723
   58SAPC   C33 4376   3.347   3.234  10.127  0.5205  0.2200  0.3933
   58SAPC   H3X 4377   3.251   3.285  10.151  0.7912  1.7606 -1.5220
   58SAPC   H3Y 4378   3.332   3.132  10.168 -1.7450 -0.5535 -2.0561
   58SAPC   C34 4379   3.375   3.236   9.979 -0.2171  0.0216 -0.3158
   58SAPC   H4X 4380   3.402   3.337   9.940  2.0719  0.4971  2.1946
   58SAPC   H4Y 4381   3.283   3.195   9.931 -0.5465 -1.7755  1.7217
   58SAPC   C35 4382   3.500   3.154   9.942  0.6554  0.4373  0.1040
   58SAPC   H5X 4383   3.470   3.052   9.972 -0.0543  0.4985 -0.3859
   58SAPC   H5Y 4384   3.594   3.194   9.987  1.0122  0.2155 -0.4320
   58SAPC   C36 4385   3.527   3.162   9.781  0.1368  0.2144 -0.3815
   58SAPC   H6X 4386   3.554   3.269   9.763  0.7059  0.0822 -0.3226
   58SAPC   H6Y 4387   3.426   3.150   9.737 -0.6715  0.1789  1.3781
   58SAPC   C37 4388   3.632   3.067   9.713  0.0593  0.2220  0.1407
   58SAPC   H7X 4389   3.588   2.968   9.736 -1.0164  0.2870 -1.4226
   58SAPC   H7Y 4390   3.728   3.076   9.768  0.1734  0.8229 -0.1495
   58SAPC   C38 4391   3.657   3.102   9.567  0.8523  0.2158 -0.3201
   58SAPC   H8X 4392   3.702   3.203   9.575  0.2230  0.6832 -2.1890
   58SAPC   H8Y 4393   3.561   3.112   9.513  0.9407  1.6876 -0.2410
   58SAPC   C39 4394   3.752   2.998   9.505 -0.0509  0.2160 -0.0477
   58SAPC   H9X 4395   3.819   2.969   9.589 -0.8239 -3.3854 -0.4829
   58SAPC   H9Y 4396   3.828   3.047   9.441 -1.2126  0.9645 -0.8865
   58SAPC  C310 4397   3.695   2.866   9.456 -0.1438  0.2536 -0.6553
   58SAPC  H10X 4398   3.585   2.882   9.448  0.1204  3.0870  0.1540
   58SAPC  H10Y 4399   3.724   2.788   9.529 -0.6001  1.5578  0.9866
   58SAPC  C311 4400   3.745   2.841   9.312  0.0611 -0.4230 -0.7262
   58SAPC  H11X 4401   3.845   2.792   9.309 -0.3974 -1.5783  1.1097
   58SAPC  H11Y 4402   3.750   2.938   9.259  1.8816  0.0402  0.2003
   58SAPC  C312 4403   3.646   2.747   9.223 -0.3721  0.1175  0.0406
   58SAPC  H12X 4404   3.548   2.796   9.204  0.2906  0.8422 -1.7274
   58SAPC  H12Y 4405   3.619   2.663   9.290  0.1152  1.7535  2.4403
   58SAPC  C313 4406   3.717   2.697   9.098 -0.1227  0.3662 -0.1730
   58SAPC  H13X 4407   3.673   2.604   9.056 -1.4883  1.0411 -0.2663
   58SAPC  H13Y 4408   3.827   2.681   9.110 -0.1348  0.2040 -0.2748
   58SAPC  C314 4409   3.718   2.800   8.977 -0.3695  0.2189 -0.4861
   58SAPC  H14X 4410   3.780   2.769   8.890 -0.2593 -0.4740 -0.1758
   58SAPC  H14Y 4411   3.768   2.895   9.003 -1.9679  0.4608  2.0977
   58SAPC  C315 4412   3.575   2.841   8.931 -0.2327 -0.5842  0.0571
   58SAPC  H15X 4413   3.517   2.864   9.023  0.8827  2.3596  0.1110
   58SAPC  H15Y 4414   3.530   2.753   8.880  1.2920 -1.9284  0.9238
   58SAPC  C316 4415   3.558   2.955   8.835  0.2758 -0.3565 -0.3811
   58SAPC  H16X 4416   3.602   2.933   8.736  0.4953 -1.5350 -0.0396
   58SAPC  H16Y 4417   3.610   3.042   8.879 -0.9418 -1.0245  2.6374
   58SAPC  C317 4418   3.408   2.994   8.819  0.6354 -0.0276 -0.2487
   58SAPC  H17X 4419   3.370   3.058   8.902 -1.1286 -1.2114 -0.1098
   58SAPC  H17Y 4420   3.352   2.902   8.846  2.2269 -0.9070  0.1835
   58SAPC  C318 4421   3.378   3.047   8.682 -0.3576 -0.3447 -0.1944
   58SAPC  H18X 4422   3.452   3.128   8.664  0.2419 -0.7544  0.4048
   58SAPC  H18Y 4423   3.282   3.103   8.686 -0.9489 -1.2990 -0.6452
   58SAPC  H18Z 4424   3.380   2.969   8.603 -0.4168 -1.5063  0.9161
   59SAPC     N 4425   3.755   4.311  10.962  0.2006  0.1152  0.3523
   59SAPC   C12 4426   3.745   4.176  10.896  0.4335 -0.0454 -0.2833
   59SAPC  H12A 4427   3.674   4.190  10.816  0.3290 -0.9295 -0.3533
   59SAPC  H12B 4428   3.702   4.098  10.956 -1.1734  0.4983 -0.6802
   59SAPC   C13 4429   3.628   4.344  11.031 -0.2724 -0.0892  0.0185
   59SAPC  H13A 4430   3.543   4.329  10.966  1.0998  1.1401 -2.1930
   59SAPC  H13B 4431   3.621   4.278  11.117  0.4371  0.6849  0.6866
   59SAPC  H13C 4432   3.624   4.448  11.059 -0.8754 -0.2702  0.6246
   59SAPC   C14 4433   3.860   4.294  11.076 -0.1183  0.0832  0.4313
   59SAPC  H14A 4434   3.889   4.390  11.116  0.4104 -0.7281  2.0696
   59SAPC  H14B 4435   3.818   4.233  11.154 -2.3315  0.1888 -0.5784
   59SAPC  H14C 4436   3.940   4.231  11.040 -0.5171 -1.7426  2.5277
   59SAPC   C15 4437   3.801   4.420  10.870 -0.0887  0.6357 -0.4899
   59SAPC  H15A 4438   3.735   4.429  10.785  0.9094  1.0122 -1.2449
   59SAPC  H15B 4439   3.794   4.509  10.931  1.9591  0.2021  0.4690
   59SAPC  H15C 4440   3.898   4.398  10.827 -0.4290  0.8540 -1.3856
   59SAPC   C11 4441   3.881   4.136  10.836  0.5439 -0.0997 -0.8254
   59SAPC  H11A 4442   3.924   4.219  10.776 -1.3679  1.5507 -0.0277
   59SAPC  H11B 4443   3.855   4.062  10.757 -1.4929 -0.3916  0.0617
   59SAPC     P 4444   3.966   3.926  10.989 -0.2178  0.0947 -0.3254
   59SAPC   O13 4445   4.073   3.912  11.088 -0.4167 -0.5629  0.1390
   59SAPC   O14 4446   3.824   3.908  11.037  0.1676 -0.1389  0.3397
   59SAPC   O12 4447   3.969   4.082  10.941  0.2950  0.3150 -0.2470
   59SAPC   O11 4448   3.976   3.845  10.861 -0.2175  0.0496  0.0857
   59SAPC    C1 4449   4.041   3.718  10.853 -0.3177 -0.5427 -0.4040
   59SAPC    HA 4450   4.056   3.682  10.957  2.4850  1.7105  0.0836
   59SAPC    HB 4451   3.986   3.638  10.798 -1.3407 -0.1851  0.0804
   59SAPC    C2 4452   4.189   3.742  10.798 -0.5104  0.7808  0.5093
   59SAPC    HS 4453   4.257   3.783  10.876  0.6452 -1.3165  0.6586
   59SAPC   O21 4454   4.177   3.827  10.678  0.3318  0.1529 -0.3839
   59SAPC   C21 4455   4.283   3.898  10.643  0.4597  0.0758 -0.1723
   59SAPC   O22 4456   4.393   3.899  10.698  0.8701  0.3632 -0.7695
   59SAPC   C22 4457   4.236   3.998  10.535  0.3663  0.2519  0.1408
   59SAPC   H2R 4458   4.142   3.955  10.493 -0.2903 -1.3686  2.9685
   59SAPC   H2S 4459   4.202   4.085  10.596  1.3408 -0.2857  1.4920
   59SAPC    C3 4460   4.247   3.600  10.771 -0.7354  0.1386 -0.1649
   59SAPC    HX 4461   4.194   3.563  10.681 -0.2912  2.5468 -1.5030
   59SAPC    HY 4462   4.218   3.533  10.855  1.4687 -0.2162  0.3902
   59SAPC   O31 4463   4.390   3.609  10.751 -0.5477  0.2858  0.2063
   59SAPC   C31 4464   4.468   3.557  10.851  0.0696 -0.0739  0.7639
   59SAPC   O32 4465   4.431   3.511  10.957 -0.0518  0.2640  0.4907
   59SAPC   C32 4466   4.612   3.584  10.812 -0.6288  0.1886  0.1186
   59SAPC   H2X 4467   4.683   3.554  10.893  1.4370  1.7361 -1.0294
   59SAPC   H2Y 4468   4.622   3.694  10.804  0.7977 -0.0683 -3.0529
   59SAPC   C23 4469   4.340   4.029  10.425  0.4494 -0.0743 -0.3428
   59SAPC   H3R 4470   4.415   4.101  10.465 -1.7607  2.2645 -0.2000
   59SAPC   H3S 4471   4.285   4.084  10.346  0.2379  0.9402  0.4874
   59SAPC   C24 4472   4.405   3.904  10.356  0.9749  0.2624  1.0395
   59SAPC   H4R 4473   4.454   3.846  10.437  2.8834 -1.1410 -1.0211
   59SAPC   H4S 4474   4.495   3.934  10.298  1.0902 -1.5749  0.1870
   59SAPC   C25 4475   4.304   3.809  10.289  0.3087  0.3080 -0.0043
   59SAPC   H5R 4476   4.233   3.765  10.361  0.4946  0.2972  0.1712
   59SAPC   C26 4477   4.301   3.777  10.157  0.0682  0.1542 -0.1204
   59SAPC   H6R 4478   4.214   3.723  10.116  0.6698 -0.1552 -1.0006
   59SAPC   C27 4479   4.388   3.827  10.051  0.3620 -0.4640  0.2521
   59SAPC   H7R 4480   4.405   3.753   9.970  0.3833 -1.6763  1.3418
   59SAPC   H7S 4481   4.487   3.858  10.091 -0.4551  3.9177 -0.6183
   59SAPC   C28 4482   4.323   3.952   9.993  0.2379  0.0300 -0.4070
   59SAPC   H8R 4483   4.294   4.028  10.066  0.5182 -1.5236  1.3954
   59SAPC   C29 4484   4.303   3.978   9.859 -0.4590  0.6908  0.0637
   59SAPC   H9R 4485   4.256   4.073   9.832  0.1145  1.9685  3.1806
   59SAPC  C210 4486   4.331   3.890   9.732  0.0190 -0.0308 -0.7049
   59SAPC  H10R 4487   4.342   3.784   9.763 -0.1567  0.5707  1.5789
   59SAPC  H10S 4488   4.422   3.916   9.674 -0.7744  1.3311 -1.4082
   59SAPC  C211 4489   4.210   3.867   9.636 -0.4704  0.3823  0.3063
   59SAPC  H11R 4490   4.115   3.915   9.667  0.2882  1.0056  1.7826
   59SAPC  C212 4491   4.210   3.799   9.517  0.3623  0.9329 -0.1666
   59SAPC  H12R 4492   4.129   3.806   9.442  0.4971  1.3802 -0.2777
   59SAPC  C213 4493   4.338   3.738   9.456 -0.1992  0.5333  0.4707
   59SAPC  H13R 4494   4.319   3.638   9.412  0.2851  1.2448 -1.4323
   59SAPC  H13S 4495   4.416   3.730   9.534 -1.3960  1.4627  1.8242
   59SAPC  C214 4496   4.409   3.813   9.346  0.2908  0.1856 -0.4783
   59SAPC  H14R 4497   4.506   3.851   9.382  0.2161 -0.1773  0.1229
   59SAPC  C215 4498   4.355   3.839   9.226 -0.7988  0.6919  0.2108
   59SAPC  H15R 4499   4.423   3.876   9.147 -1.5801 -1.2525 -1.4630
   59SAPC  C216 4500   4.223   3.786   9.177 -0.4846 -0.0869  0.3971
   59SAPC  H16R 4501   4.137   3.849   9.211 -0.6669 -0.3792  0.4838
   59SAPC  H16S 4502   4.193   3.689   9.221 -1.8638 -0.1557 -0.6273
   59SAPC  C217 4503   4.218   3.782   9.021  0.0608  0.1495 -0.7876
   59SAPC  H17R 4504   4.268   3.874   8.984  1.2234  0.1299  0.6065
   59SAPC  H17S 4505   4.111   3.788   8.995 -0.0305 -2.6782 -1.4141
   59SAPC  C218 4506   4.266   3.647   8.962  0.2824 -0.2690  0.5946
   59SAPC  H18R 4507   4.199   3.565   8.999 -0.6533  1.0217  1.8785
   59SAPC  H18S 4508   4.374   3.638   8.986  0.1481  0.5939  1.6022
   59SAPC  C219 4509   4.261   3.642   8.804  0.6369  0.2198  0.0696
   59SAPC  H19R 4510   4.320   3.726   8.764  0.6118  0.3633  0.3294
   59SAPC  H19S 4511   4.155   3.656   8.772  0.5270  1.4432  0.9004
   59SAPC  C220 4512   4.318   3.505   8.755 -0.1013  0.1275  0.1296
   59SAPC  H20R 4513   4.283   3.493   8.650  0.5976 -0.3109 -0.0620
   59SAPC  H20S 4514   4.268   3.433   8.823 -0.1127 -0.7249 -0.7635
   59SAPC  H20T 4515   4.429   3.508   8.764 -0.1478 -0.8417  1.0993
   59SAPC   C33 4516   4.655   3.531  10.671 -0.1994  0.0240 -0.4875
   59SAPC   H3X 4517   4.592   3.581  10.594 -0.7345  1.2039  0.6808
   59SAPC   H3Y 4518   4.664   3.420  10.678  3.2119 -0.1060 -3.8652
   59SAPC   C34 4519   4.799   3.573  10.642  0.6603  0.5279 -0.9179
   59SAPC   H4X 4520   4.844   3.533  10.736 -1.0267 -0.1928 -0.3872
   59SAPC   H4Y 4521   4.802   3.684  10.647  0.3287  0.4865  1.0205
   59SAPC   C35 4522   4.864   3.530  10.514  0.2475  0.3107 -0.3321
   59SAPC   H5X 4523   4.878   3.420  10.515 -3.4142 -0.3209  1.6484
   59SAPC   H5Y 4524   4.963   3.580  10.520  0.5264 -0.3858  1.5763
   59SAPC   C36 4525   4.806   3.564  10.376  0.6042 -0.6118 -0.3376
   59SAPC   H6X 4526   4.762   3.666  10.389  0.8714 -0.4650 -0.5827
   59SAPC   H6Y 4527   4.717   3.500  10.356  0.7417 -0.7090 -0.6461
   59SAPC   C37 4528   4.905   3.568  10.262  0.1231 -0.2527 -0.4110
   59SAPC   H7X 4529   4.940   3.462  10.254 -1.5810 -0.7589 -1.6795
   59SAPC   H7Y 4530   4.980   3.647  10.282  0.8493 -1.0653  0.1733
   59SAPC   C38 4531   4.833   3.598  10.134  0.5008 -0.2301  0.0503
   59SAPC   H8X 4532   4.804   3.705  10.133 -1.8305 -0.8070 -1.5238
   59SAPC   H8Y 4533   4.736   3.544  10.136 -0.8095  1.9991  1.8975
   59SAPC   C39 4534   4.919   3.577  10.007 -0.1128 -0.0925 -0.1818
   59SAPC   H9X 4535   4.923   3.467   9.996 -0.1355 -0.0088 -1.0871
   59SAPC   H9Y 4536   5.022   3.615  10.017 -0.1993  0.2090 -0.4238
   59SAPC  C310 4537   4.856   3.624   9.874  0.8684  0.0459  0.6590
   59SAPC  H10X 4538   4.874   3.733   9.870  1.4335 -0.0681 -1.9032
   59SAPC  H10Y 4539   4.749   3.598   9.862  0.9630 -1.6954  2.9869
   59SAPC  C311 4540   4.942   3.561   9.763  0.1325 -0.6303 -0.0806
   59SAPC  H11X 4541   4.937   3.450   9.771  1.1791 -0.7597 -0.8930
   59SAPC  H11Y 4542   5.047   3.589   9.784 -0.2590  0.1912  0.8285
   59SAPC  C312 4543   4.915   3.611   9.618 -0.6588  0.2115 -0.3586
   59SAPC  H12X 4544   4.982   3.542   9.563  1.0432  1.3862  0.1534
   59SAPC  H12Y 4545   4.959   3.713   9.607 -3.1653  1.4515  0.2319
   59SAPC  C313 4546   4.771   3.604   9.567 -0.6469  0.3900  0.7405
   59SAPC  H13X 4547   4.721   3.682   9.629  2.3105  1.7830  1.5635
   59SAPC  H13Y 4548   4.729   3.510   9.609 -0.2061  0.5399  1.5409
   59SAPC  C314 4549   4.755   3.631   9.417  0.1403 -0.3598  0.5237
   59SAPC  H14X 4550   4.646   3.638   9.397  0.0513  1.4841  1.4986
   59SAPC  H14Y 4551   4.804   3.556   9.352  4.5607  1.8021  1.0478
   59SAPC  C315 4552   4.805   3.767   9.388  0.4602  0.0036  0.2260
   59SAPC  H15X 4553   4.916   3.765   9.383  0.5126  1.2890  0.6199
   59SAPC  H15Y 4554   4.770   3.832   9.470  0.4027 -2.1096  1.9627
   59SAPC  C316 4555   4.760   3.808   9.246 -0.3191 -0.2255 -0.1418
   59SAPC  H16X 4556   4.815   3.899   9.214  2.9776 -1.7108  0.8490
   59SAPC  H16Y 4557   4.649   3.816   9.255 -0.5911 -2.5440 -0.7787
   59SAPC  C317 4558   4.799   3.716   9.131 -0.6070  1.0016  1.1794
   59SAPC  H17X 4559   4.793   3.607   9.153  2.2566  0.5855  0.3336
   59SAPC  H17Y 4560   4.908   3.733   9.114 -1.0488  1.3233 -1.7250
   59SAPC  C318 4561   4.730   3.744   9.001  0.5195  0.4943  0.5923
   59SAPC  H18X 4562   4.728   3.852   8.974 -2.6160  0.0693 -1.3147
   59SAPC  H18Y 4563   4.625   3.708   8.992  0.6054  0.6942 -1.9053
   59SAPC  H18Z 4564   4.784   3.692   8.919  0.8051  0.2978  0.9028
   60SAPC     N 4565   0.918   0.224  10.869  0.6101  0.4681 -0.7103
   60SAPC   C12 4566   0.889   0.129  10.758  0.1277 -0.2104  0.1577
   60SAPC  H12A 4567   0.976   0.065  10.757  1.9501  2.1390 -1.1487
   60SAPC  H12B 4568   0.902   0.187  10.668  3.3158  0.2861  0.7999
   60SAPC   C13 4569   1.040   0.296  10.832 -0.4162  0.3223 -0.4882
   60SAPC  H13A 4570   1.033   0.346  10.736 -1.8108 -0.0432 -0.5982
   60SAPC  H13B 4571   1.070   0.363  10.912  2.6560  0.5519 -1.6995
   60SAPC  H13C 4572   1.124   0.229  10.845 -1.2475 -0.4286  1.3865
   60SAPC   C14 4573   0.806   0.325  10.889  0.2375 -0.0022  0.0664
   60SAPC  H14A 4574   0.834   0.388  10.972  0.0880  0.4049 -0.1907
   60SAPC  H14B 4575   0.811   0.397  10.809  0.7024  0.9304  0.9179
   60SAPC  H14C 4576   0.705   0.290  10.901  0.0838  0.7387  1.1296
   60SAPC   C15 4577   0.931   0.152  10.997  0.4615  0.1374 -0.0189
   60SAPC  H15A 4578   0.848   0.088  11.023  0.7638 -1.5842 -2.8736
   60SAPC  H15B 4579   1.021   0.093  10.984 -1.7179 -3.2978 -0.7191
   60SAPC  H15C 4580   0.940   0.209  11.089 -1.8729 -4.2642  3.2959
   60SAPC   C11 4581   0.756   0.055  10.759  0.3143 -0.2865  0.3616
   60SAPC  H11A 4582   0.738   0.015  10.657 -1.6162  0.5134  0.3510
   60SAPC  H11B 4583   0.675   0.130  10.766  0.8218  0.8348 -3.3672
   60SAPC     P 4584   0.823  -0.171  10.857  0.0746  0.0258 -0.1450
   60SAPC   O13 4585   0.953  -0.154  10.930  0.7633  0.6261  0.2703
   60SAPC   O14 4586   0.741  -0.282  10.903 -0.8499  0.1552  0.5662
   60SAPC   O12 4587   0.737  -0.042  10.860 -0.3536  0.1790 -0.0528
   60SAPC   O11 4588   0.856  -0.189  10.703 -0.3679 -0.5988  0.4176
   60SAPC    C1 4589   0.782  -0.279  10.619  0.5748 -0.2224 -0.0856
   60SAPC    HA 4590   0.809  -0.386  10.637  0.7744 -0.2211 -0.3885
   60SAPC    HB 4591   0.671  -0.277  10.632  0.5516 -0.1922 -0.2878
   60SAPC    C2 4592   0.794  -0.238  10.470 -0.3194 -0.8218 -0.1412
   60SAPC    HS 4593   0.897  -0.257  10.433 -1.0852 -0.6798 -2.5076
   60SAPC   O21 4594   0.769  -0.103  10.447 -0.6373 -0.1967  0.2028
   60SAPC   C21 4595   0.869  -0.032  10.393  0.3228  0.1597  0.0264
   60SAPC   O22 4596   0.984  -0.065  10.379  0.4326  0.7627  0.2505
   60SAPC   C22 4597   0.815   0.103  10.354 -0.2017 -0.8826 -0.5826
   60SAPC   H2R 4598   0.776   0.157  10.443  0.8042  0.1680 -0.7604
   60SAPC   H2S 4599   0.887   0.162  10.294 -0.0402  0.7047  1.0858
   60SAPC    C3 4600   0.712  -0.318  10.376  0.3049 -0.4761  0.2156
   60SAPC    HX 4601   0.602  -0.301  10.383  0.3501  0.0719 -0.3621
   60SAPC    HY 4602   0.737  -0.423  10.404 -1.8561 -1.2902 -0.6444
   60SAPC   O31 4603   0.749  -0.299  10.235 -0.0758  0.3323  0.1137
   60SAPC   C31 4604   0.695  -0.387  10.154 -0.2124 -0.0635 -0.2738
   60SAPC   O32 4605   0.616  -0.475  10.187  0.3556  0.5200  0.4345
   60SAPC   C32 4606   0.757  -0.372  10.011 -0.0000  0.5614 -1.3411
   60SAPC   H2X 4607   0.859  -0.330  10.026  0.5233 -1.3081  0.9225
   60SAPC   H2Y 4608   0.694  -0.302   9.953  0.9423  2.1998 -0.4765
   60SAPC   C23 4609   0.690   0.096  10.255 -0.4297 -0.1561  0.4362
   60SAPC   H3R 4610   0.660   0.201  10.235 -0.9008 -0.5934 -1.3453
   60SAPC   H3S 4611   0.607   0.045  10.309 -1.5740  0.3081 -0.8207
   60SAPC   C24 4612   0.722   0.021  10.123  0.1524 -0.0564 -0.0949
   60SAPC   H4R 4613   0.737  -0.084  10.154  2.0094  0.7804  2.1607
   60SAPC   H4S 4614   0.825   0.037  10.085 -0.3971  2.1704 -0.8200
   60SAPC   C25 4615   0.622   0.051  10.017 -0.5760 -0.0084 -0.3252
   60SAPC   H5R 4616   0.519   0.081  10.041 -0.4511 -0.6223  1.1064
   60SAPC   C26 4617   0.645   0.016   9.884 -0.1337 -0.2405 -0.0898
   60SAPC   H6R 4618   0.570   0.053   9.812 -0.9012 -2.5869 -0.5673
   60SAPC   C27 4619   0.761  -0.050   9.825 -0.4972  0.0442  0.2651
   60SAPC   H7R 4620   0.731  -0.147   9.779  1.3197 -1.3018  1.7446
   60SAPC   H7S 4621   0.841  -0.063   9.901  0.5153  0.1688 -0.7414
   60SAPC   C28 4622   0.819   0.053   9.723  0.3400  0.0940 -0.2860
   60SAPC   H8R 4623   0.875   0.134   9.772  0.2686  0.1162 -0.2395
   60SAPC   C29 4624   0.796   0.051   9.590  0.2578  0.0513 -0.4706
   60SAPC   H9R 4625   0.849   0.125   9.528 -1.1084  0.3501 -1.3285
   60SAPC  C210 4626   0.711  -0.048   9.509  0.8483  0.3254  0.8421
   60SAPC  H10R 4627   0.624  -0.080   9.570  0.6979 -2.6039 -0.7155
   60SAPC  H10S 4628   0.757  -0.147   9.488  1.3809  0.3911  1.6406
   60SAPC  C211 4629   0.663   0.019   9.382  0.3338 -0.4539  0.6271
   60SAPC  H11R 4630   0.724   0.018   9.290 -0.4838  1.3221 -0.0009
   60SAPC  C212 4631   0.554   0.104   9.372 -0.5787 -0.3431  0.1014
   60SAPC  H12R 4632   0.530   0.129   9.267  0.1443  1.2880  0.3046
   60SAPC  C213 4633   0.464   0.152   9.486  0.1782  0.3545  0.7037
   60SAPC  H13R 4634   0.420   0.254   9.480 -0.9971 -0.2225 -1.4490
   60SAPC  H13S 4635   0.518   0.148   9.583 -0.2241 -3.9144  0.9372
   60SAPC  C214 4636   0.347   0.061   9.515  0.1332  0.0211 -0.7511
   60SAPC  H14R 4637   0.324  -0.027   9.453 -1.1100 -0.6632  0.6272
   60SAPC  C215 4638   0.259   0.076   9.619  0.1201  0.1640 -0.2116
   60SAPC  H15R 4639   0.174   0.006   9.614 -1.0305  1.5180 -0.2735
   60SAPC  C216 4640   0.250   0.186   9.723 -0.7869 -0.1570  0.1052
   60SAPC  H16R 4641   0.153   0.240   9.717 -0.9258 -0.4000  0.1280
   60SAPC  H16S 4642   0.314   0.267   9.682 -0.3971 -0.6440 -0.2486
   60SAPC  C217 4643   0.280   0.143   9.870 -0.4823 -0.3747 -0.2285
   60SAPC  H17R 4644   0.375   0.086   9.860  0.5053  1.3819 -1.3124
   60SAPC  H17S 4645   0.201   0.070   9.900 -0.1215 -1.6058 -2.1083
   60SAPC  C218 4646   0.293   0.262   9.959  0.3128 -0.6315 -0.3212
   60SAPC  H18R 4647   0.346   0.342   9.903 -0.9044  2.4433  2.6089
   60SAPC  H18S 4648   0.365   0.236  10.040 -0.3344 -0.5548  0.2842
   60SAPC  C219 4649   0.158   0.312  10.014  0.2794  0.0044  0.3004
   60SAPC  H19R 4650   0.125   0.242  10.094 -2.6772  0.9027 -0.0151
   60SAPC  H19S 4651   0.075   0.326   9.942 -0.3834  1.2397  1.2644
   60SAPC  C220 4652   0.174   0.447  10.086  0.2275 -0.4510 -0.7523
   60SAPC  H20R 4653   0.243   0.439  10.173  0.1196 -0.7346 -0.6925
   60SAPC  H20S 4654   0.071   0.479  10.110 -0.0505 -0.6885 -1.6014
   60SAPC  H20T 4655   0.209   0.532  10.024  2.2429 -1.0892 -0.5735
   60SAPC   C33 4656   0.779  -0.511   9.959 -0.9237 -0.4663  0.1088
   60SAPC   H3X 4657   0.685  -0.567   9.936 -1.3020 -0.4780  1.6230
   60SAPC   H3Y 4658   0.823  -0.564  10.046  0.4933  0.7303  0.1523
   60SAPC   C34 4659   0.868  -0.517   9.835 -0.2877 -0.1393 -0.0825
   60SAPC   H4X 4660   0.907  -0.621   9.830  1.9295  0.5586  0.9953
   60SAPC   H4Y 4661   0.953  -0.447   9.852  1.2732 -2.2371  1.1024
   60SAPC   C35 4662   0.781  -0.495   9.707  0.3140  0.7396 -0.2811
   60SAPC   H5X 4663   0.714  -0.407   9.717 -0.3692  0.1033  1.0633
   60SAPC   H5Y 4664   0.715  -0.583   9.693  1.3202 -0.0567 -0.1918
   60SAPC   C36 4665   0.865  -0.507   9.576  0.2759 -0.3027  0.0224
   60SAPC   H6X 4666   0.933  -0.595   9.567 -0.2442 -0.9097  1.6166
   60SAPC   H6Y 4667   0.935  -0.422   9.584  1.4879 -1.3860  1.3706
   60SAPC   C37 4668   0.783  -0.494   9.443  0.2812 -0.2790 -0.6199
   60SAPC   H7X 4669   0.727  -0.400   9.460 -0.4691 -1.2478  3.1796
   60SAPC   H7Y 4670   0.697  -0.563   9.430  1.1646 -1.3638 -0.8449
   60SAPC   C38 4671   0.880  -0.483   9.323 -0.0602 -0.1006 -0.3377
   60SAPC   H8X 4672   0.934  -0.580   9.320 -1.7306 -1.0710 -0.2145
   60SAPC   H8Y 4673   0.944  -0.395   9.345 -1.5782  1.2128 -0.9831
   60SAPC   C39 4674   0.809  -0.457   9.191 -0.3447 -0.0669  0.3280
   60SAPC   H9X 4675   0.760  -0.358   9.195 -1.0360 -0.4092  0.3883
   60SAPC   H9Y 4676   0.727  -0.527   9.164 -0.2191 -0.0758 -0.0372
   60SAPC  C310 4677   0.898  -0.468   9.063 -0.4650 -0.3363 -0.1163
   60SAPC  H10X 4678   0.980  -0.543   9.068 -2.2183 -2.3058  0.2422
   60SAPC  H10Y 4679   0.954  -0.371   9.059 -3.0303  1.3715  1.9078
   60SAPC  C311 4680   0.806  -0.478   8.932  0.3027  0.0117 -0.9283
   60SAPC  H11X 4681   0.730  -0.397   8.936  1.0877  0.7298  0.7464
   60SAPC  H11Y 4682   0.741  -0.568   8.929  1.4118 -0.7880 -1.4046
   60SAPC  C312 4683   0.885  -0.475   8.800 -0.5506 -0.5005  0.0261
   60SAPC  H12X 4684   0.945  -0.568   8.803 -0.3636 -0.4135 -0.8365
   60SAPC  H12Y 4685   0.949  -0.386   8.820 -1.6486 -0.1003  2.0210
   60SAPC  C313 4686   0.798  -0.470   8.674  0.4798  0.3026 -0.2228
   60SAPC  H13X 4687   0.758  -0.367   8.683 -2.6206 -0.9809  3.2861
   60SAPC  H13Y 4688   0.707  -0.530   8.696  0.8238 -0.1597 -0.0421
   60SAPC  C314 4689   0.862  -0.507   8.541  0.3037 -0.4931 -0.1659
   60SAPC  H14X 4690   0.916  -0.603   8.558 -0.2823 -0.7228  0.4423
   60SAPC  H14Y 4691   0.940  -0.431   8.515 -0.7110  1.5671  2.4201
   60SAPC  C315 4692   0.764  -0.524   8.420  0.6707  0.3985 -0.1527
   60SAPC  H15X 4693   0.708  -0.620   8.418  0.5887  0.4459 -0.2097
   60SAPC  H15Y 4694   0.827  -0.534   8.329  1.9577 -0.6679  0.8179
   60SAPC  C316 4695   0.664  -0.414   8.406  0.5150  0.1897  0.5862
   60SAPC  H16X 4696   0.722  -0.319   8.408 -1.1140  1.2465 -0.0850
   60SAPC  H16Y 4697   0.594  -0.404   8.491 -2.8384 -0.7808 -1.8655
   60SAPC  C317 4698   0.594  -0.433   8.275 -0.4578  0.4039 -0.1206
   60SAPC  H17X 4699   0.537  -0.529   8.271  0.5953 -0.3660  1.9991
   60SAPC  H17Y 4700   0.669  -0.439   8.193 -0.4498  2.0940 -0.2823
   60SAPC  C318 4701   0.493  -0.326   8.244 -0.2208  0.3735 -0.2199
   60SAPC  H18X 4702   0.444  -0.341   8.146  1.0296 -0.1010 -0.7975
   60SAPC  H18Y 4703   0.549  -0.230   8.233 -1.3081  0.8722 -1.7334
   60SAPC  H18Z 4704   0.418  -0.319   8.325  0.0058 -0.7954  0.1052
   61SAPC     N 4705   6.590   6.298  10.969 -0.4070  0.2500  0.2098
   61SAPC   C12 4706   6.643   6.215  10.857 -0.4626 -0.0153  0.7751
   61SAPC  H12A 4707   6.561   6.208  10.788 -0.1076  1.9725  0.0789
   61SAPC  H12B 4708   6.659   6.115  10.895  0.6900 -0.1490 -0.0012
   61SAPC   C13 4709   6.693   6.297  11.075 -0.0956  0.1765  0.3270
   61SAPC  H13A 4710   6.679   6.206  11.132  0.4645  0.8930  1.6500
   61SAPC  H13B 4711   6.796   6.303  11.043 -0.2729 -2.3961 -0.9535
   61SAPC  H13C 4712   6.678   6.377  11.146  0.3048 -1.8511  2.8589
   61SAPC   C14 4713   6.569   6.437  10.922  0.1055  0.4032 -0.2821
   61SAPC  H14A 4714   6.542   6.495  11.010  2.4693  2.1340 -0.6139
   61SAPC  H14B 4715   6.658   6.476  10.876  0.2125  0.7008  0.1711
   61SAPC  H14C 4716   6.495   6.446  10.844 -0.2450  0.9073  0.0996
   61SAPC   C15 4717   6.464   6.238  11.016  0.0585 -0.0767 -0.0651
   61SAPC  H15A 4718   6.475   6.131  11.004  1.2562  0.0157  0.0585
   61SAPC  H15B 4719   6.454   6.264  11.120 -0.2124  1.2457 -0.4064
   61SAPC  H15C 4720   6.380   6.271  10.957  0.8186 -2.7335 -2.8974
   61SAPC   C11 4721   6.769   6.262  10.776 -0.2040 -0.5190  0.4912
   61SAPC  H11A 4722   6.768   6.371  10.757 -0.6890 -0.6385 -0.2008
   61SAPC  H11B 4723   6.787   6.214  10.677  1.2209  5.6130 -2.6771
   61SAPC     P 4724   6.947   6.093  10.859 -0.0069  0.2243  0.3396
   61SAPC   O13 4725   7.035   6.090  10.975 -0.2754 -0.2115 -0.0487
   61SAPC   O14 4726   6.834   5.992  10.856 -0.0334 -1.1606  0.6243
   61SAPC   O12 4727   6.884   6.240  10.848  0.2392  0.3369 -0.3977
   61SAPC   O11 4728   7.027   6.080  10.723 -0.0817  0.0826  0.0453
   61SAPC    C1 4729   7.078   6.196  10.664  0.4256 -1.1287 -0.4360
   61SAPC    HA 4730   6.994   6.247  10.613  2.0267  0.8849 -1.2016
   61SAPC    HB 4731   7.122   6.268  10.737 -0.0877 -0.2310 -1.0046
   61SAPC    C2 4732   7.190   6.184  10.557 -0.1840  0.9657 -0.9087
   61SAPC    HS 4733   7.217   6.284  10.517  1.9411  0.7367 -0.1659
   61SAPC   O21 4734   7.146   6.087  10.459 -0.3166  0.1927 -0.6744
   61SAPC   C21 4735   7.037   6.110  10.390  0.2356 -0.2914 -0.0312
   61SAPC   O22 4736   6.984   6.221  10.376  0.0580  0.7297 -0.3286
   61SAPC   C22 4737   6.969   5.990  10.333  0.6758  0.2230 -0.2427
   61SAPC   H2R 4738   7.023   5.901  10.371  0.5247  1.5466  3.4953
   61SAPC   H2S 4739   6.874   5.970  10.387  1.5461 -2.2906  0.4967
   61SAPC    C3 4740   7.313   6.140  10.633  0.2309  0.3477 -0.6971
   61SAPC    HX 4741   7.284   6.046  10.684  2.0262  0.1475  0.0395
   61SAPC    HY 4742   7.339   6.217  10.709  0.7108 -0.7993  0.3429
   61SAPC   O31 4743   7.427   6.115  10.543 -0.0906 -0.1857  0.5915
   61SAPC   C31 4744   7.422   5.997  10.486  0.0482 -0.5488  0.3422
   61SAPC   O32 4745   7.352   5.901  10.511 -0.0442 -0.4996 -0.6979
   61SAPC   C32 4746   7.519   5.997  10.371  0.4988  0.9584  0.9889
   61SAPC   H2X 4747   7.617   6.047  10.390  2.5671 -2.2689 -0.3805
   61SAPC   H2Y 4748   7.464   6.045  10.287 -0.7609 -0.9018  0.7045
   61SAPC   C23 4749   6.936   5.990  10.184 -0.4420 -0.5700 -0.0653
   61SAPC   H3R 4750   6.914   6.095  10.154  0.3541  0.0422  1.3894
   61SAPC   H3S 4751   6.841   5.934  10.172 -0.0105 -1.1810 -0.7808
   61SAPC   C24 4752   7.044   5.928  10.090 -0.3330 -0.4840 -0.3983
   61SAPC   H4R 4753   6.994   5.907   9.993  0.1736 -2.9217 -0.1913
   61SAPC   H4S 4754   7.076   5.833  10.139 -0.1368  0.6199  1.7226
   61SAPC   C25 4755   7.172   6.007  10.085 -0.5690  0.8154  0.0674
   61SAPC   H5R 4756   7.230   6.028  10.176  0.7391  0.6257 -0.6988
   61SAPC   C26 4757   7.224   6.060   9.969  0.0538 -0.1940 -0.9886
   61SAPC   H6R 4758   7.332   6.075   9.979 -0.4105  2.7283  0.6770
   61SAPC   C27 4759   7.168   6.058   9.831  0.3847  0.8476  0.2138
   61SAPC   H7R 4760   7.236   6.127   9.776 -0.1955  0.3532 -1.1619
   61SAPC   H7S 4761   7.064   6.094   9.848  0.8478  1.3565  2.2985
   61SAPC   C28 4762   7.179   5.925   9.762 -0.0726  0.2137  0.8319
   61SAPC   H8R 4763   7.239   5.848   9.813 -1.7745 -1.0626  0.9830
   61SAPC   C29 4764   7.126   5.884   9.643 -0.5274 -0.6505  0.0195
   61SAPC   H9R 4765   7.145   5.785   9.599  1.6987  0.9926 -3.1274
   61SAPC  C210 4766   7.037   5.968   9.550 -0.5399  0.0549 -0.6936
   61SAPC  H10R 4767   6.988   6.049   9.609 -1.8821 -1.5258  0.4881
   61SAPC  H10S 4768   6.952   5.906   9.514  0.0144 -0.1275 -1.7038
   61SAPC  C211 4769   7.109   6.009   9.426 -0.1732 -0.6935  0.0284
   61SAPC  H11R 4770   7.199   6.069   9.444 -2.5443  2.9951  0.8659
   61SAPC  C212 4771   7.071   5.990   9.300  0.2670  0.1718 -0.4559
   61SAPC  H12R 4772   7.142   6.017   9.221 -1.2216  0.8618 -1.6092
   61SAPC  C213 4773   6.947   5.923   9.242  0.8470  0.6897  0.4340
   61SAPC  H13R 4774   6.893   5.870   9.323  1.6593  0.0720  0.5883
   61SAPC  H13S 4775   6.984   5.842   9.176  2.4181 -0.5727  2.7214
   61SAPC  C214 4776   6.870   6.032   9.174 -0.6224 -0.3463  0.2869
   61SAPC  H14R 4777   6.807   6.096   9.237 -1.7526  0.9698 -2.0509
   61SAPC  C215 4778   6.883   6.068   9.041  0.0014 -0.3082 -1.0049
   61SAPC  H15R 4779   6.845   6.164   9.004  2.0955  0.8636 -0.2526
   61SAPC  C216 4780   6.963   5.993   8.936 -0.1225 -0.2772 -0.3629
   61SAPC  H16R 4781   6.887   5.968   8.858 -1.8893 -3.4554  2.1464
   61SAPC  H16S 4782   7.002   5.896   8.973 -0.6648  0.0700  1.2092
   61SAPC  C217 4783   7.080   6.077   8.888 -0.5908 -0.2189 -0.1285
   61SAPC  H17R 4784   7.141   6.025   8.811 -0.1744 -1.2723  0.8877
   61SAPC  H17S 4785   7.137   6.096   8.981  0.5536  0.5454 -0.9528
   61SAPC  C218 4786   7.058   6.225   8.843  0.7916  0.1104 -0.2409
   61SAPC  H18R 4787   7.023   6.293   8.923 -0.2645  0.0839 -0.6666
   61SAPC  H18S 4788   6.970   6.220   8.776 -0.3874 -0.7465  1.2897
   61SAPC  C219 4789   7.171   6.277   8.760 -0.5144 -0.5034  0.4488
   61SAPC  H19R 4790   7.190   6.204   8.678 -0.5186 -0.3005  0.2646
   61SAPC  H19S 4791   7.264   6.286   8.820 -1.5886 -0.5404  2.1783
   61SAPC  C220 4792   7.140   6.410   8.692 -0.7851 -0.6943 -0.0209
   61SAPC  H20R 4793   7.109   6.489   8.764  2.8800 -0.0946  1.1081
   61SAPC  H20S 4794   7.062   6.393   8.615 -1.1662  1.9181 -0.2901
   61SAPC  H20T 4795   7.230   6.456   8.645 -0.7893 -0.9703 -0.3011
   61SAPC   C33 4796   7.546   5.847  10.318  0.6385  0.6179 -0.2716
   61SAPC   H3X 4797   7.448   5.796  10.313  0.1711  1.3346  1.0596
   61SAPC   H3Y 4798   7.606   5.798  10.397  0.0208 -0.0514 -0.2098
   61SAPC   C34 4799   7.626   5.853  10.195 -0.1794  0.0459  0.4150
   61SAPC   H4X 4800   7.676   5.755  10.181 -1.4568 -0.8503  1.8699
   61SAPC   H4Y 4801   7.709   5.925  10.208 -0.7118  0.7790 -0.1233
   61SAPC   C35 4802   7.539   5.890  10.074 -0.1127  0.3947  0.6669
   61SAPC   H5X 4803   7.497   5.993  10.081  0.1455  0.4687  1.2509
   61SAPC   H5Y 4804   7.451   5.824  10.064 -0.9232  1.6234 -0.7693
   61SAPC   C36 4805   7.603   5.878   9.940  0.2608 -0.1086  0.2415
   61SAPC   H6X 4806   7.642   5.775   9.927 -1.4802 -0.8898  0.8487
   61SAPC   H6Y 4807   7.684   5.954   9.938 -2.3382  2.8672 -0.9486
   61SAPC   C37 4808   7.514   5.905   9.824  0.3527 -0.0067 -0.1788
   61SAPC   H7X 4809   7.482   6.011   9.820  1.8470  0.5152  0.9794
   61SAPC   H7Y 4810   7.422   5.843   9.832  1.2266 -1.1687  1.4735
   61SAPC   C38 4811   7.569   5.873   9.684 -0.4206 -0.1113  0.2357
   61SAPC   H8X 4812   7.636   5.788   9.707 -1.0950 -0.5745  0.5024
   61SAPC   H8Y 4813   7.627   5.955   9.636 -1.6971  0.2682 -0.7248
   61SAPC   C39 4814   7.456   5.858   9.580  0.3000 -0.0695 -0.7390
   61SAPC   H9X 4815   7.412   5.960   9.569  1.2411  0.4651  0.2642
   61SAPC   H9Y 4816   7.383   5.783   9.617  1.3197 -0.8830 -0.3307
   61SAPC  C310 4817   7.508   5.805   9.444  0.6214  0.0719 -0.9778
   61SAPC  H10X 4818   7.558   5.707   9.457  1.3505  0.3481 -1.6805
   61SAPC  H10Y 4819   7.573   5.883   9.398  0.5105  0.9564  0.3058
   61SAPC  C311 4820   7.392   5.772   9.347 -0.1913  0.4295 -0.1379
   61SAPC  H11X 4821   7.307   5.844   9.356  0.0363  0.8408 -1.2215
   61SAPC  H11Y 4822   7.355   5.669   9.363  0.7635 -0.0870 -1.1620
   61SAPC  C312 4823   7.426   5.759   9.200 -0.1696  0.8564  0.3532
   61SAPC  H12X 4824   7.337   5.709   9.155  0.4961  0.1116 -0.1737
   61SAPC  H12Y 4825   7.509   5.685   9.189 -0.6673 -0.0615  2.3641
   61SAPC  C313 4826   7.487   5.878   9.131  0.3436  0.0294 -0.0734
   61SAPC  H13X 4827   7.585   5.902   9.177  0.5011  1.7518 -1.2506
   61SAPC  H13Y 4828   7.424   5.969   9.133 -1.1509 -0.9533 -0.9086
   61SAPC  C314 4829   7.514   5.844   8.979 -0.0595 -0.0431 -0.0847
   61SAPC  H14X 4830   7.539   5.736   8.963  1.3439  0.1269  0.7704
   61SAPC  H14Y 4831   7.604   5.904   8.953  0.8558 -1.0484  0.6660
   61SAPC  C315 4832   7.403   5.878   8.873 -0.0739  0.3873 -0.6975
   61SAPC  H15X 4833   7.399   5.989   8.861 -1.5404  0.5569  0.9030
   61SAPC  H15Y 4834   7.301   5.864   8.914 -0.4444  1.7652 -1.0692
   61SAPC  C316 4835   7.396   5.794   8.748 -0.3540 -0.0701  0.0057
   61SAPC  H16X 4836   7.330   5.834   8.668 -1.3743 -1.7496 -0.0489
   61SAPC  H16Y 4837   7.340   5.702   8.775 -0.7768 -0.0690 -0.8435
   61SAPC  C317 4838   7.534   5.772   8.683  0.2084 -0.5680  0.3082
   61SAPC  H17X 4839   7.521   5.693   8.606  0.0859  0.3603 -0.6512
   61SAPC  H17Y 4840   7.597   5.725   8.762 -1.1698 -0.9004  1.2408
   61SAPC  C318 4841   7.612   5.894   8.627 -0.3668  0.6502  0.7046
   61SAPC  H18X 4842   7.719   5.872   8.611 -0.7538 -0.3162 -0.6688
   61SAPC  H18Y 4843   7.607   5.980   8.697  2.3022  0.7646  0.8662
   61SAPC  H18Z 4844   7.572   5.928   8.529  1.9791  1.3592 -0.0647
   62SAPC     N 4845   0.197   5.607  10.982  0.2200  0.4642 -0.4648
   62SAPC   C12 4846   0.289   5.604  10.859  0.6695 -1.0978  0.0364
   62SAPC  H12A 4847   0.382   5.644  10.896 -0.2456  1.1477  0.1171
   62SAPC  H12B 4848   0.252   5.671  10.783  0.3639 -0.6986  0.5254
   62SAPC   C13 4849   0.184   5.754  11.020  0.0383 -0.2962 -0.3798
   62SAPC  H13A 4850   0.278   5.796  11.052 -0.5538  1.0358 -0.3446
   62SAPC  H13B 4851   0.157   5.807  10.930 -2.8761  0.3080  0.7371
   62SAPC  H13C 4852   0.103   5.775  11.089 -0.3513 -2.2966 -0.1492
   62SAPC   C14 4853   0.057   5.549  10.956  0.4047  0.2062  0.9620
   62SAPC  H14A 4854  -0.012   5.586  11.030  0.7993 -1.0075  1.9709
   62SAPC  H14B 4855   0.025   5.593  10.862  2.1451  2.3761  1.3107
   62SAPC  H14C 4856   0.052   5.441  10.957 -1.8496  0.2541  1.3301
   62SAPC   C15 4857   0.252   5.533  11.099  0.0093  0.3134 -0.5294
   62SAPC  H15A 4858   0.189   5.528  11.187  0.0895 -0.4622 -0.5114
   62SAPC  H15B 4859   0.262   5.430  11.069 -1.3703 -0.3848  1.1969
   62SAPC  H15C 4860   0.346   5.576  11.130 -0.0135 -0.3107  0.4602
   62SAPC   C11 4861   0.311   5.470  10.783  0.5329 -0.8245  0.2748
   62SAPC  H11A 4862   0.376   5.482  10.694  0.3374 -2.9517 -0.2058
   62SAPC  H11B 4863   0.210   5.432  10.756  0.0996  0.3590  0.1505
   62SAPC     P 4864   0.514   5.360  10.905 -0.4807 -0.0321 -0.1804
   62SAPC   O13 4865   0.576   5.497  10.893  0.3026  0.3030 -0.0907
   62SAPC   O14 4866   0.525   5.304  11.043 -0.5705 -0.1382  0.5859
   62SAPC   O12 4867   0.356   5.375  10.870  0.4666 -0.2206 -0.3253
   62SAPC   O11 4868   0.585   5.262  10.803 -0.3348  0.1370  0.1074
   62SAPC    C1 4869   0.516   5.152  10.739 -0.2537 -0.4768 -0.6924
   62SAPC    HA 4870   0.564   5.056  10.765  0.1836 -0.1438 -0.2550
   62SAPC    HB 4871   0.408   5.153  10.765 -0.0133  2.1690  0.6414
   62SAPC    C2 4872   0.523   5.166  10.582  0.4588 -0.0922 -0.9365
   62SAPC    HS 4873   0.634   5.170  10.568  1.1060  0.3237  3.1188
   62SAPC   O21 4874   0.457   5.291  10.542  0.0322 -0.0607  0.0041
   62SAPC   C21 4875   0.519   5.359  10.443 -0.5613  0.8283  0.1663
   62SAPC   O22 4876   0.623   5.321  10.394 -0.1963 -0.2397 -0.7234
   62SAPC   C22 4877   0.435   5.481  10.409  0.5573 -1.0817  0.0773
   62SAPC   H2R 4878   0.337   5.444  10.373  0.0745 -0.5966  0.8522
   62SAPC   H2S 4879   0.427   5.536  10.505  1.9270 -0.4673 -0.1336
   62SAPC    C3 4880   0.462   5.053  10.499  0.3343 -0.3185 -0.3183
   62SAPC    HX 4881   0.351   5.060  10.504  0.4569  0.4964  2.1611
   62SAPC    HY 4882   0.488   4.959  10.552 -2.8072  0.3374  2.7599
   62SAPC   O31 4883   0.497   5.049  10.352  0.2437  0.0777 -0.1037
   62SAPC   C31 4884   0.630   5.021  10.326 -0.3403  0.0438  0.5541
   62SAPC   O32 4885   0.714   4.980  10.401  0.5635  0.5554 -0.1272
   62SAPC   C32 4886   0.634   5.023  10.170 -0.0298 -0.3823  0.1087
   62SAPC   H2X 4887   0.597   5.120  10.130 -1.6145 -1.6512 -1.7515
   62SAPC   H2Y 4888   0.571   4.941  10.130  0.1930 -0.8010  0.6161
   62SAPC   C23 4889   0.500   5.567  10.301  0.0172  0.2801 -0.6045
   62SAPC   H3R 4890   0.603   5.586  10.337  0.0587 -0.3204 -0.3909
   62SAPC   H3S 4891   0.449   5.665  10.299  0.6165  0.6326  0.6354
   62SAPC   C24 4892   0.506   5.500  10.159  0.2276  0.3610  0.8021
   62SAPC   H4R 4893   0.404   5.497  10.114  0.4241 -2.0530  0.3826
   62SAPC   H4S 4894   0.525   5.390  10.162 -1.6681 -0.0810 -0.6692
   62SAPC   C25 4895   0.607   5.561  10.070  0.4647  0.5803 -0.2996
   62SAPC   H5R 4896   0.707   5.575  10.112  0.4613  2.1308 -0.7371
   62SAPC   C26 4897   0.593   5.589   9.939 -0.3710  0.2180 -0.6026
   62SAPC   H6R 4898   0.682   5.617   9.880 -1.1860  1.5602 -1.2286
   62SAPC   C27 4899   0.471   5.560   9.855 -0.8218 -1.1112 -0.4992
   62SAPC   H7R 4900   0.485   5.612   9.757 -0.0524  2.3478  1.2764
   62SAPC   H7S 4901   0.380   5.603   9.903 -0.3922 -1.8285  1.0251
   62SAPC   C28 4902   0.433   5.416   9.825  0.0208 -0.1786  0.0162
   62SAPC   H8R 4903   0.393   5.367   9.915  1.0084 -1.8944 -0.4218
   62SAPC   C29 4904   0.457   5.336   9.717 -0.2370 -0.8800  0.3975
   62SAPC   H9R 4905   0.449   5.227   9.730 -0.5693 -0.9633 -0.4406
   62SAPC  C210 4906   0.537   5.381   9.594 -0.3926 -0.0435 -0.5390
   62SAPC  H10R 4907   0.592   5.295   9.550 -1.8953 -0.4765 -1.6748
   62SAPC  H10S 4908   0.613   5.453   9.631 -0.8922 -0.6315  1.7715
   62SAPC  C211 4909   0.442   5.456   9.506  0.0368 -0.0658  1.0895
   62SAPC  H11R 4910   0.400   5.543   9.558 -0.7154 -1.5350  3.0350
   62SAPC  C212 4911   0.409   5.433   9.377  0.4199 -0.3237  0.4664
   62SAPC  H12R 4912   0.343   5.504   9.325 -2.3399 -3.1792 -0.2075
   62SAPC  C213 4913   0.465   5.324   9.298  0.5851  0.2866 -0.6079
   62SAPC  H13R 4914   0.386   5.270   9.242 -0.7948  0.2209  1.3114
   62SAPC  H13S 4915   0.507   5.239   9.357 -0.5842 -0.7968 -1.2997
   62SAPC  C214 4916   0.579   5.366   9.212  0.3085  0.4847  1.0396
   62SAPC  H14R 4917   0.617   5.468   9.225  0.5382  0.3070  1.8021
   62SAPC  C215 4918   0.644   5.282   9.132  0.4702 -0.3021 -0.2556
   62SAPC  H15R 4919   0.720   5.324   9.065  1.1488 -1.1304 -0.0257
   62SAPC  C216 4920   0.616   5.134   9.114  0.0629 -0.2379  0.5894
   62SAPC  H16R 4921   0.564   5.126   9.017 -0.8740  1.8572  0.8550
   62SAPC  H16S 4922   0.534   5.091   9.175  0.1981  0.6417  1.4225
   62SAPC  C217 4923   0.745   5.056   9.134  0.1197  0.3696 -0.4912
   62SAPC  H17R 4924   0.827   5.083   9.063 -0.3085 -2.1828 -2.1145
   62SAPC  H17S 4925   0.720   4.949   9.118 -0.0278 -0.2217  3.0174
   62SAPC  C218 4926   0.803   5.071   9.277 -0.4544  0.2287  0.1625
   62SAPC  H18R 4927   0.815   5.174   9.319 -0.4572 -0.1772  1.2017
   62SAPC  H18S 4928   0.907   5.035   9.286 -1.1090 -1.7051  0.3845
   62SAPC  C219 4929   0.725   5.004   9.390  0.2945 -0.1964 -1.1191
   62SAPC  H19R 4930   0.727   4.893   9.384 -0.1555 -0.2535 -0.3002
   62SAPC  H19S 4931   0.617   5.029   9.379  0.1384 -0.4985 -0.3417
   62SAPC  C220 4932   0.762   5.039   9.542 -0.4384 -1.0972  0.3535
   62SAPC  H20R 4933   0.786   5.144   9.567  2.0926 -1.1605 -1.5204
   62SAPC  H20S 4934   0.862   4.995   9.561 -0.1056 -0.7374 -0.5104
   62SAPC  H20T 4935   0.681   4.994   9.605 -1.2740 -0.2752 -0.1120
   62SAPC   C33 4936   0.782   5.009  10.107  0.5567 -0.1287 -0.5397
   62SAPC   H3X 4937   0.827   4.914  10.142 -1.9232  0.0192  3.6827
   62SAPC   H3Y 4938   0.836   5.100  10.143 -1.2418  1.2283 -1.1114
   62SAPC   C34 4939   0.777   5.032   9.954 -0.7843  0.9614  0.6502
   62SAPC   H4X 4940   0.690   4.979   9.909 -0.2887 -0.5188  1.3793
   62SAPC   H4Y 4941   0.873   4.996   9.912 -1.0224  1.9074 -0.7583
   62SAPC   C35 4942   0.770   5.178   9.912  0.8486  0.0466  0.3886
   62SAPC   H5X 4943   0.681   5.228   9.955  1.0402  0.5584  0.2096
   62SAPC   H5Y 4944   0.742   5.186   9.805  0.8955  2.8331  0.5179
   62SAPC   C36 4945   0.897   5.258   9.934  0.2824 -0.0115  0.5384
   62SAPC   H6X 4946   0.973   5.209   9.999  1.5382  0.8980 -0.2028
   62SAPC   H6Y 4947   0.867   5.350   9.990  0.3502 -1.1348  2.5229
   62SAPC   C37 4948   0.964   5.316   9.812 -0.3441 -0.9158 -0.4691
   62SAPC   H7X 4949   0.991   5.234   9.741 -1.7731 -0.7773 -1.2065
   62SAPC   H7Y 4950   1.055   5.359   9.859 -0.6677  0.2390 -0.8679
   62SAPC   C38 4951   0.908   5.434   9.739  0.9979  0.0290  0.2007
   62SAPC   H8X 4952   0.853   5.493   9.816  0.4109 -0.4069  0.1228
   62SAPC   H8Y 4953   0.835   5.394   9.665  1.0703 -3.9488  2.0492
   62SAPC   C39 4954   1.016   5.522   9.678 -0.0545  0.5779 -0.0744
   62SAPC   H9X 4955   1.092   5.549   9.754 -0.2733  2.7768 -0.5766
   62SAPC   H9Y 4956   0.982   5.623   9.647  0.2284  1.3362  1.9896
   62SAPC  C310 4957   1.086   5.456   9.555  0.3724  0.6987  0.0342
   62SAPC  H10X 4958   1.103   5.348   9.572 -0.3897  0.4699 -0.5591
   62SAPC  H10Y 4959   1.188   5.497   9.544  0.5004  0.9854  1.9946
   62SAPC  C311 4960   1.010   5.492   9.422 -0.3087  0.2428 -0.3606
   62SAPC  H11X 4961   1.017   5.600   9.398 -2.7782  0.6013  0.2485
   62SAPC  H11Y 4962   0.899   5.482   9.431 -0.2457  1.0248  1.8129
   62SAPC  C312 4963   1.071   5.428   9.303 -0.2729  0.7434 -0.3919
   62SAPC  H12X 4964   1.061   5.317   9.306  0.1378  0.6867 -0.9073
   62SAPC  H12Y 4965   1.181   5.430   9.311 -0.3810  1.4840  1.2057
   62SAPC  C313 4966   0.998   5.469   9.171 -0.3837  0.3034  0.2397
   62SAPC  H13X 4967   1.001   5.580   9.158  1.1354  0.2328 -0.2309
   62SAPC  H13Y 4968   0.891   5.439   9.179 -0.0165 -0.4662  3.1452
   62SAPC  C314 4969   1.056   5.391   9.055 -0.5057  0.0254 -0.7867
   62SAPC  H14X 4970   1.041   5.287   9.092 -2.0278  0.1239 -1.0711
   62SAPC  H14Y 4971   1.164   5.418   9.050 -0.4450  0.1971  1.0094
   62SAPC  C315 4972   0.984   5.405   8.916  0.1603 -0.8742 -0.5705
   62SAPC  H15X 4973   1.006   5.506   8.876  0.1279  0.2963  2.1537
   62SAPC  H15Y 4974   0.876   5.386   8.937 -0.2739 -0.1539 -2.0389
   62SAPC  C316 4975   1.039   5.303   8.822 -0.5206 -0.2867  0.3715
   62SAPC  H16X 4976   0.970   5.286   8.737 -1.7743 -1.6666  1.5985
   62SAPC  H16Y 4977   1.053   5.214   8.888  1.1395  0.7695  1.5506
   62SAPC  C317 4978   1.186   5.326   8.766 -0.0580  0.2146 -0.2272
   62SAPC  H17X 4979   1.217   5.229   8.722 -1.3645 -0.5715  0.5043
   62SAPC  H17Y 4980   1.250   5.345   8.855 -2.9011 -1.3090  2.3369
   62SAPC  C318 4981   1.197   5.436   8.661 -0.3099 -0.3120 -0.0386
   62SAPC  H18X 4982   1.132   5.416   8.574 -0.9886  1.8811 -0.0908
   62SAPC  H18Y 4983   1.301   5.461   8.631 -0.2909  1.5032  1.3909
   62SAPC  H18Z 4984   1.158   5.530   8.705 -0.4666 -0.5545  0.3478
   63SAPC     N 4985   0.408   2.614   6.175 -0.1500  0.0057 -0.5882
   63SAPC   C12 4986   0.328   2.667   6.289  0.3103  0.4292 -0.3129
   63SAPC  H12A 4987   0.309   2.587   6.359  1.0497  0.7271  0.2512
   63SAPC  H12B 4988   0.227   2.694   6.263 -0.3162 -1.4795 -0.0086
   63SAPC   C13 4989   0.337   2.490   6.122 -1.1181  0.3791  0.2757
   63SAPC  H13A 4990   0.398   2.465   6.036  1.0730  2.2574  1.1735
   63SAPC  H13B 4991   0.330   2.399   6.179 -1.2650  1.4132  1.9552
   63SAPC  H13C 4992   0.240   2.520   6.085 -1.0874  1.1933  0.8304
   63SAPC   C14 4993   0.411   2.716   6.074 -0.0521  0.1193  0.3215
   63SAPC  H14A 4994   0.494   2.695   6.008 -0.0019  1.5684 -0.0995
   63SAPC  H14B 4995   0.324   2.734   6.012  1.9644  0.5070 -2.6019
   63SAPC  H14C 4996   0.422   2.809   6.128 -2.5293  1.7197 -1.6870
   63SAPC   C15 4997   0.542   2.573   6.229  0.2500 -0.7164 -0.2725
   63SAPC  H15A 4998   0.591   2.647   6.291  0.4928 -0.6475 -0.5464
   63SAPC  H15B 4999   0.539   2.486   6.292 -2.4592 -1.7832 -1.7208
   63SAPC  H15C 5000   0.605   2.542   6.147  1.4418 -3.5690  1.6001
   63SAPC   C11 5001   0.366   2.798   6.371 -0.2683 -0.5530  0.7941
   63SAPC  H11A 5002   0.452   2.765   6.432  1.3766  1.4689 -0.3014
   63SAPC  H11B 5003   0.292   2.830   6.448 -1.1721  1.5599 -0.8527
   63SAPC     P 5004   0.536   2.992   6.303  0.0826  0.0918  0.2286
   63SAPC   O13 5005   0.642   2.891   6.268  1.3002  0.3184 -0.1602
   63SAPC   O14 5006   0.535   3.118   6.229 -0.0689  0.5878 -0.7908
   63SAPC   O12 5007   0.393   2.915   6.284 -0.5662 -0.3953  0.5117
   63SAPC   O11 5008   0.545   3.038   6.454  0.7449  0.5395 -0.6433
   63SAPC    C1 5009   0.434   3.091   6.529 -0.5034  0.9213 -0.5487
   63SAPC    HA 5010   0.399   3.183   6.478 -0.7739  1.5713  0.7630
   63SAPC    HB 5011   0.348   3.022   6.537 -0.2697  0.3197 -2.5663
   63SAPC    C2 5012   0.478   3.134   6.667 -0.2084 -0.1195 -0.0189
   63SAPC    HS 5013   0.573   3.192   6.657 -0.5217  0.5573  0.8530
   63SAPC   O21 5014   0.490   3.018   6.745 -0.3193  0.8286 -0.1881
   63SAPC   C21 5015   0.589   3.013   6.837  0.0988  0.0313 -0.0688
   63SAPC   O22 5016   0.654   3.113   6.872  0.2457  0.2338 -0.0878
   63SAPC   C22 5017   0.607   2.876   6.897  0.6521  0.8785  0.0318
   63SAPC   H2R 5018   0.554   2.798   6.838  2.7868  0.1120 -0.9999
   63SAPC   H2S 5019   0.711   2.837   6.895  0.4480  0.2604  0.8735
   63SAPC    C3 5020   0.367   3.222   6.734  0.2424 -0.3339  0.1349
   63SAPC    HX 5021   0.273   3.164   6.744  0.6847 -1.1086 -0.0880
   63SAPC    HY 5022   0.335   3.299   6.662  2.7840 -0.8689 -1.7246
   63SAPC   O31 5023   0.399   3.281   6.862 -0.1672 -0.0022 -0.2298
   63SAPC   C31 5024   0.487   3.379   6.864 -0.2034 -0.9772  0.4199
   63SAPC   O32 5025   0.535   3.431   6.768 -0.6165  0.2745 -0.2300
   63SAPC   C32 5026   0.485   3.443   7.009 -0.4954  0.8043  0.4314
   63SAPC   H2X 5027   0.383   3.432   7.051 -0.3016 -1.7420  0.4184
   63SAPC   H2Y 5028   0.520   3.548   7.007 -0.0322  0.6749 -2.5326
   63SAPC   C23 5029   0.572   2.873   7.047  0.3231  0.6002 -0.2985
   63SAPC   H3R 5030   0.464   2.898   7.055  0.0821 -0.5185  0.1750
   63SAPC   H3S 5031   0.640   2.945   7.098  0.3253  1.9909 -2.1620
   63SAPC   C24 5032   0.568   2.740   7.126  0.4438 -0.5089 -0.7786
   63SAPC   H4R 5033   0.501   2.751   7.214  0.9123  0.4630 -0.5306
   63SAPC   H4S 5034   0.673   2.723   7.158  1.1909  4.8059  0.5195
   63SAPC   C25 5035   0.507   2.618   7.053 -0.5118  0.0597  0.1769
   63SAPC   H5R 5036   0.586   2.547   7.024  0.6495  0.4664  2.1862
   63SAPC   C26 5037   0.374   2.596   7.017 -0.6074 -0.4033  0.7011
   63SAPC   H6R 5038   0.355   2.501   6.963  1.5598  0.0415 -0.9845
   63SAPC   C27 5039   0.262   2.687   7.052  0.6719 -0.5991  0.0179
   63SAPC   H7R 5040   0.299   2.735   7.145  0.2459  0.4640 -0.3525
   63SAPC   H7S 5041   0.171   2.627   7.072  1.3668 -2.5045 -2.0470
   63SAPC   C28 5042   0.227   2.779   6.935 -0.0910 -0.1405  0.0913
   63SAPC   H8R 5043   0.252   2.744   6.835  0.2813 -2.0472  0.8234
   63SAPC   C29 5044   0.168   2.904   6.941  0.8059  0.0140 -0.1569
   63SAPC   H9R 5045   0.160   2.955   6.844  3.7225  0.3297 -0.3127
   63SAPC  C210 5046   0.114   2.985   7.056  0.2992 -1.0331  0.4328
   63SAPC  H10R 5047   0.056   2.928   7.132  1.4148 -0.9287  1.3862
   63SAPC  H10S 5048   0.035   3.055   7.020  1.5998 -0.1057 -0.7231
   63SAPC  C211 5049   0.223   3.070   7.134  0.5164 -0.0323  0.0756
   63SAPC  H11R 5050   0.294   3.119   7.067 -0.4434 -2.1598 -2.7269
   63SAPC  C212 5051   0.226   3.086   7.268 -0.0936 -0.6604 -0.1550
   63SAPC  H12R 5052   0.308   3.149   7.305  0.4889 -0.2365 -2.0677
   63SAPC  C213 5053   0.127   3.034   7.373 -0.9166 -0.6534 -0.0838
   63SAPC  H13R 5054   0.175   2.942   7.414 -0.2241 -0.1164  0.3337
   63SAPC  H13S 5055   0.029   2.999   7.333 -0.4215 -1.7986 -0.3563
   63SAPC  C214 5056   0.115   3.147   7.472 -0.3533  0.3039  0.0750
   63SAPC  H14R 5057   0.078   3.240   7.427 -1.0857 -0.4505 -0.9370
   63SAPC  C215 5058   0.153   3.143   7.602 -0.6297 -0.7123  0.3886
   63SAPC  H15R 5059   0.139   3.232   7.666 -1.3116  1.7277 -2.8850
   63SAPC  C216 5060   0.207   3.018   7.669  0.0158 -0.0371 -0.2795
   63SAPC  H16R 5061   0.317   3.008   7.658  0.0992 -3.0963  2.0994
   63SAPC  H16S 5062   0.157   2.929   7.624 -3.5312  0.8132  1.5697
   63SAPC  C217 5063   0.178   3.023   7.822 -0.2162 -0.3023  0.1183
   63SAPC  H17R 5064   0.217   3.118   7.866 -1.4706 -1.3052  3.7492
   63SAPC  H17S 5065   0.234   2.937   7.863  0.4057  0.0595  0.0572
   63SAPC  C218 5066   0.027   3.007   7.864 -0.0136  0.0179 -0.6774
   63SAPC  H18R 5067  -0.007   2.906   7.831  1.7587 -1.4479  1.6461
   63SAPC  H18S 5068  -0.041   3.076   7.808 -0.4834 -0.3530 -0.5744
   63SAPC  C219 5069  -0.006   3.006   8.018 -0.2002  0.1960 -0.4866
   63SAPC  H19R 5070   0.083   2.965   8.069 -1.2274 -2.8035 -0.9433
   63SAPC  H19S 5071  -0.100   2.953   8.044  0.8114 -0.7246  1.4646
   63SAPC  C220 5072  -0.034   3.151   8.074  0.4757 -0.1876 -0.1164
   63SAPC  H20R 5073  -0.062   3.144   8.181  1.1854 -4.1399 -0.0617
   63SAPC  H20S 5074  -0.113   3.205   8.017 -0.1857  1.3227  2.0908
   63SAPC  H20T 5075   0.057   3.214   8.060  2.1842 -2.6138 -0.4111
   63SAPC   C33 5076   0.578   3.359   7.106  0.0711  0.4883  0.1427
   63SAPC   H3X 5077   0.671   3.333   7.050  0.1365  1.6655 -0.3231
   63SAPC   H3Y 5078   0.531   3.260   7.123  2.4995 -0.7561  0.0534
   63SAPC   C34 5079   0.608   3.433   7.229  0.4806  0.5505  0.3515
   63SAPC   H4X 5080   0.610   3.539   7.198 -0.1120 -0.2648 -2.8199
   63SAPC   H4Y 5081   0.712   3.414   7.264  0.6420  0.4085 -0.2061
   63SAPC   C35 5082   0.502   3.409   7.339  0.1081 -0.8546 -0.0988
   63SAPC   H5X 5083   0.490   3.301   7.362 -1.8375 -0.0035  3.6423
   63SAPC   H5Y 5084   0.410   3.455   7.297  0.2507 -0.8620 -0.4213
   63SAPC   C36 5085   0.527   3.488   7.469 -0.0429 -0.5504 -0.5171
   63SAPC   H6X 5086   0.559   3.592   7.450 -0.1028 -0.4535 -0.0952
   63SAPC   H6Y 5087   0.606   3.436   7.527 -0.8435  0.4699  1.5934
   63SAPC   C37 5088   0.406   3.485   7.564  0.3655 -0.3477  0.0588
   63SAPC   H7X 5089   0.385   3.383   7.604  2.1561 -0.5889  0.4655
   63SAPC   H7Y 5090   0.318   3.525   7.508  0.0889  1.0529  1.3997
   63SAPC   C38 5091   0.410   3.575   7.694 -0.1251  0.5167  0.1147
   63SAPC   H8X 5092   0.392   3.674   7.648  0.6345  0.8655  0.5555
   63SAPC   H8Y 5093   0.516   3.574   7.727  0.6020 -2.2365 -1.9360
   63SAPC   C39 5094   0.322   3.525   7.806 -0.6188  0.3161  0.4448
   63SAPC   H9X 5095   0.366   3.424   7.826 -0.3082  0.3391 -0.1046
   63SAPC   H9Y 5096   0.219   3.509   7.769 -0.3513 -0.6596  0.0651
   63SAPC  C310 5097   0.317   3.611   7.933 -0.3274  0.7208  0.3985
   63SAPC  H10X 5098   0.285   3.713   7.901 -2.7053  0.0892  0.5413
   63SAPC  H10Y 5099   0.414   3.627   7.985  1.8290  0.6920 -3.3168
   63SAPC  C311 5100   0.220   3.567   8.040 -0.0911  0.3418  0.6502
   63SAPC  H11X 5101   0.251   3.472   8.089  0.1990 -1.4853 -2.7336
   63SAPC  H11Y 5102   0.128   3.531   7.988 -2.1034  1.9193  2.9217
   63SAPC  C312 5103   0.193   3.678   8.143  0.5581 -1.3246 -0.2025
   63SAPC  H12X 5104   0.163   3.769   8.087  0.8385  1.3542  3.6392
   63SAPC  H12Y 5105   0.282   3.716   8.196 -1.0285  1.3916  0.6964
   63SAPC  C313 5106   0.077   3.648   8.236 -0.4287  0.4311  0.0620
   63SAPC  H13X 5107   0.080   3.548   8.286  1.0069  0.7226  0.6048
   63SAPC  H13Y 5108  -0.013   3.643   8.171  0.7154 -0.7654 -1.5149
   63SAPC  C314 5109   0.059   3.733   8.360 -0.1249 -0.2107 -0.1380
   63SAPC  H14X 5110  -0.043   3.714   8.398  0.1055  1.6899  1.6328
   63SAPC  H14Y 5111   0.081   3.838   8.331  3.3768 -1.1339 -1.3740
   63SAPC  C315 5112   0.158   3.712   8.473  0.2224  0.2040 -0.0003
   63SAPC  H15X 5113   0.248   3.776   8.459 -0.9596  2.1265  0.6931
   63SAPC  H15Y 5114   0.194   3.608   8.482  2.1962  0.8720  0.1859
   63SAPC  C316 5115   0.100   3.744   8.604 -0.5410  0.0850  0.1686
   63SAPC  H16X 5116  -0.005   3.708   8.610 -0.8741  0.9626 -0.2780
   63SAPC  H16Y 5117   0.091   3.854   8.610  1.1740  0.7153 -4.6874
   63SAPC  C317 5118   0.185   3.693   8.723 -0.0336  0.1061 -0.3560
   63SAPC  H17X 5119   0.288   3.734   8.720  0.5493 -1.3254 -1.7008
   63SAPC  H17Y 5120   0.200   3.583   8.722  3.4249  0.4484  0.7961
   63SAPC  C318 5121   0.124   3.710   8.863  0.0117 -0.3136 -0.1586
   63SAPC  H18X 5122   0.172   3.647   8.941 -2.2584 -2.0354 -0.0681
   63SAPC  H18Y 5123   0.017   3.683   8.853  0.4903 -2.8846  0.8889
   63SAPC  H18Z 5124   0.129   3.815   8.900 -1.7945  0.2498 -1.4102
   64SAPC     N 5125   1.740   3.611   5.841  0.9916 -0.1047 -0.1489
   64SAPC   C12 5126   1.865   3.631   5.914 -0.5163  0.6103 -0.0712
   64SAPC  H12A 5127   1.872   3.737   5.933  0.3267  0.6338 -0.4708
   64SAPC  H12B 5128   1.939   3.598   5.843 -1.4307  1.6153 -1.5590
   64SAPC   C13 5129   1.739   3.660   5.692  0.2164  0.4610  0.1005
   64SAPC  H13A 5130   1.825   3.623   5.639  1.3048  1.5085  1.0691
   64SAPC  H13B 5131   1.650   3.635   5.636  1.8194 -0.2237 -2.3017
   64SAPC  H13C 5132   1.735   3.768   5.687 -0.0672  0.4296 -0.4713
   64SAPC   C14 5133   1.700   3.465   5.843  0.5118  0.4642  1.0324
   64SAPC  H14A 5134   1.773   3.401   5.796 -1.4848 -0.0187 -1.6589
   64SAPC  H14B 5135   1.677   3.430   5.943 -0.0707  0.6933  0.9820
   64SAPC  H14C 5136   1.602   3.459   5.797  1.3910 -2.1972 -0.6550
   64SAPC   C15 5137   1.631   3.691   5.902  0.4986 -0.4365  0.3969
   64SAPC  H15A 5138   1.535   3.676   5.854  0.8726 -0.4295 -0.3683
   64SAPC  H15B 5139   1.618   3.670   6.007  1.4573  1.6575  0.9755
   64SAPC  H15C 5140   1.657   3.795   5.887 -1.4301 -0.1298 -1.3052
   64SAPC   C11 5141   1.899   3.573   6.053  0.2688 -1.0458  0.0054
   64SAPC  H11A 5142   1.797   3.563   6.096 -0.1794 -3.1247 -1.3997
   64SAPC  H11B 5143   1.968   3.634   6.116  1.0624  0.0248 -1.8213
   64SAPC     P 5144   1.911   3.327   6.144 -0.2539 -0.3164 -0.5108
   64SAPC   O13 5145   1.763   3.304   6.122 -0.7566  0.7374 -0.6887
   64SAPC   O14 5146   1.998   3.208   6.129 -0.2671 -0.0817 -0.3353
   64SAPC   O12 5147   1.959   3.438   6.046 -0.1296  1.2166 -0.2090
   64SAPC   O11 5148   1.926   3.393   6.287  0.7797 -0.6066  0.3872
   64SAPC    C1 5149   2.049   3.464   6.308  0.3414 -0.3873  0.2482
   64SAPC    HA 5150   2.110   3.487   6.218 -1.4926  0.1666 -0.9094
   64SAPC    HB 5151   2.018   3.551   6.370 -1.3577 -1.3973  0.8804
   64SAPC    C2 5152   2.155   3.373   6.386 -0.5150 -0.0734  0.2823
   64SAPC    HS 5153   2.174   3.283   6.324 -2.5316 -1.0012  0.9010
   64SAPC   O21 5154   2.086   3.337   6.504 -0.1508  0.0912  0.1301
   64SAPC   C21 5155   2.121   3.222   6.560  0.6414 -0.9968  0.5512
   64SAPC   O22 5156   2.206   3.144   6.525  0.2196  0.1324 -0.1511
   64SAPC   C22 5157   2.036   3.211   6.685  0.0476  0.6598  0.1288
   64SAPC   H2R 5158   2.078   3.271   6.769 -0.8893  1.9636 -0.2912
   64SAPC   H2S 5159   1.934   3.251   6.668 -0.4673  0.0332  1.5511
   64SAPC    C3 5160   2.297   3.436   6.403 -0.3108  0.8288  0.2812
   64SAPC    HX 5161   2.291   3.523   6.472  1.9198  0.8747  0.4846
   64SAPC    HY 5162   2.335   3.465   6.303 -0.5144 -1.5782 -0.5687
   64SAPC   O31 5163   2.395   3.350   6.462 -0.1752  0.0113 -0.2328
   64SAPC   C31 5164   2.445   3.254   6.388 -0.5584 -0.7246  0.7952
   64SAPC   O32 5165   2.427   3.244   6.266  0.2148 -0.7436  0.0107
   64SAPC   C32 5166   2.550   3.177   6.467 -0.0181 -0.8398 -0.4776
   64SAPC   H2X 5167   2.613   3.126   6.391  1.3710  2.4059 -1.6743
   64SAPC   H2Y 5168   2.500   3.102   6.532 -0.5674  0.5716  0.7905
   64SAPC   C23 5169   2.026   3.068   6.744 -0.3713 -0.5611 -0.3511
   64SAPC   H3R 5170   2.134   3.046   6.757  0.0357  0.7759 -1.2472
   64SAPC   H3S 5171   1.980   2.995   6.674 -1.5917 -0.7565  0.6191
   64SAPC   C24 5172   1.955   3.048   6.876 -0.3061  0.1734  0.4381
   64SAPC   H4R 5173   1.853   3.091   6.860 -0.9064 -0.3893  2.3731
   64SAPC   H4S 5174   2.007   3.108   6.954 -0.8070  0.4307  0.5831
   64SAPC   C25 5175   1.949   2.903   6.915  0.8543  0.2743 -0.4089
   64SAPC   H5R 5176   1.941   2.827   6.836  1.0711  0.0382 -0.2053
   64SAPC   C26 5177   1.942   2.845   7.034  0.4684 -0.1432 -0.7472
   64SAPC   H6R 5178   1.934   2.736   7.040  1.6914 -0.3597 -2.3675
   64SAPC   C27 5179   1.946   2.921   7.163  0.9988  0.1859  0.3492
   64SAPC   H7R 5180   1.848   2.894   7.208  0.8728 -1.4265 -0.8412
   64SAPC   H7S 5181   1.947   3.032   7.154 -2.0078  0.2810  0.4366
   64SAPC   C28 5182   2.056   2.885   7.261  0.6358 -0.4178 -0.0048
   64SAPC   H8R 5183   2.145   2.834   7.221  1.8890  0.1029  1.9756
   64SAPC   C29 5184   2.054   2.905   7.394  0.2000  0.4070 -0.7317
   64SAPC   H9R 5185   2.145   2.878   7.451  0.6685  0.0793 -1.6071
   64SAPC  C210 5186   1.940   2.966   7.477  0.0325  1.2764 -0.3068
   64SAPC  H10R 5187   1.856   2.894   7.491  0.6770  0.9699  2.4952
   64SAPC  H10S 5188   1.890   3.050   7.424 -0.0541  0.7982 -0.9942
   64SAPC  C211 5189   1.993   3.009   7.610 -0.2651  0.2769 -0.5043
   64SAPC  H11R 5190   2.042   3.107   7.617 -2.2250  1.1796  2.3014
   64SAPC  C212 5191   1.990   2.932   7.724  0.4164 -0.0271  0.4209
   64SAPC  H12R 5192   2.051   2.964   7.809  2.3624 -1.1094 -0.4750
   64SAPC  C213 5193   1.944   2.790   7.738  0.0095 -0.3371  0.0933
   64SAPC  H13R 5194   1.915   2.748   7.639 -2.3227 -1.0760  1.0121
   64SAPC  H13S 5195   1.851   2.786   7.799 -0.0397  2.2973  0.2987
   64SAPC  C214 5196   2.047   2.700   7.805  0.4444  0.1529  0.4646
   64SAPC  H14R 5197   2.050   2.717   7.914 -2.4366  1.3106  0.4566
   64SAPC  C215 5198   2.118   2.598   7.757 -0.3176  0.0523 -0.4104
   64SAPC  H15R 5199   2.202   2.562   7.818  0.4966 -0.8214 -2.0023
   64SAPC  C216 5200   2.116   2.545   7.613  0.0889 -0.1956 -0.7329
   64SAPC  H16R 5201   2.022   2.583   7.569  0.4170  2.1287  0.4258
   64SAPC  H16S 5202   2.128   2.435   7.626 -0.1410 -0.0558  0.7919
   64SAPC  C217 5203   2.231   2.604   7.540  0.3157 -0.9839  1.1121
   64SAPC  H17R 5204   2.326   2.565   7.580  1.0126 -0.1935  0.2760
   64SAPC  H17S 5205   2.234   2.715   7.539  3.2546 -0.9865  0.7979
   64SAPC  C218 5206   2.233   2.556   7.385  0.1809  0.7702  0.1009
   64SAPC  H18R 5207   2.148   2.609   7.338  2.3703  1.9117 -2.8632
   64SAPC  H18S 5208   2.215   2.446   7.380  1.9771  0.4434  0.1479
   64SAPC  C219 5209   2.346   2.600   7.302 -0.9539 -0.0430  0.1566
   64SAPC  H19R 5210   2.440   2.563   7.347 -0.7549 -0.8659 -0.8954
   64SAPC  H19S 5211   2.355   2.711   7.294 -2.5409  0.1284  0.2876
   64SAPC  C220 5212   2.343   2.544   7.160  0.0377  0.7719  0.1753
   64SAPC  H20R 5213   2.319   2.435   7.160  2.1703  0.1887 -2.4147
   64SAPC  H20S 5214   2.438   2.561   7.105 -0.5176  0.9766 -0.7305
   64SAPC  H20T 5215   2.264   2.601   7.107  0.2373  0.4936 -0.4313
   64SAPC   C33 5216   2.627   3.264   6.570 -1.0262 -0.9583  0.0419
   64SAPC   H3X 5217   2.557   3.309   6.643 -2.5750 -2.0579 -0.7166
   64SAPC   H3Y 5218   2.670   3.340   6.500  2.2918 -1.2641  1.5664
   64SAPC   C34 5219   2.736   3.188   6.642  0.8430  0.5223 -0.0746
   64SAPC   H4X 5220   2.791   3.128   6.567 -1.5155  0.3126 -1.7153
   64SAPC   H4Y 5221   2.699   3.117   6.719  1.0082  0.2705 -0.2283
   64SAPC   C35 5222   2.827   3.273   6.717  0.8247 -0.6433  0.4669
   64SAPC   H5X 5223   2.775   3.335   6.793 -0.2998 -1.1017  0.0854
   64SAPC   H5Y 5224   2.882   3.343   6.651 -0.1704 -1.6360 -1.4911
   64SAPC   C36 5225   2.922   3.186   6.805 -0.0932 -0.2497 -0.0210
   64SAPC   H6X 5226   3.016   3.242   6.826  0.7037 -1.3631 -0.5804
   64SAPC   H6Y 5227   2.951   3.097   6.746  1.8106 -0.7209  1.5084
   64SAPC   C37 5228   2.858   3.138   6.941 -0.4355  0.4500 -0.0438
   64SAPC   H7X 5229   2.773   3.068   6.928 -1.8335  2.2932 -1.3535
   64SAPC   H7Y 5230   2.805   3.221   6.994 -2.5512 -0.1328 -1.1195
   64SAPC   C38 5231   2.958   3.076   7.037  0.3753 -0.5266 -0.3853
   64SAPC   H8X 5232   3.050   3.135   7.055 -0.1682  0.4405 -0.7060
   64SAPC   H8Y 5233   2.987   2.986   6.978  0.5126 -0.4788 -0.3893
   64SAPC   C39 5234   2.891   3.044   7.172  0.5407  0.6997  0.2421
   64SAPC   H9X 5235   2.955   2.984   7.240  0.5735  0.1293 -0.2824
   64SAPC   H9Y 5236   2.801   2.980   7.158  1.3615 -0.1095 -1.8037
   64SAPC  C310 5237   2.838   3.171   7.237 -0.1371 -0.1393  0.4614
   64SAPC  H10X 5238   2.743   3.208   7.193  0.0747 -0.5434 -0.3666
   64SAPC  H10Y 5239   2.915   3.251   7.229 -0.1603 -0.2090 -0.5939
   64SAPC  C311 5240   2.803   3.138   7.388 -0.3029  0.4701 -0.1251
   64SAPC  H11X 5241   2.819   3.223   7.458  1.8988 -1.7443  2.3171
   64SAPC  H11Y 5242   2.877   3.062   7.424 -0.4041 -1.3121 -3.3163
   64SAPC  C312 5243   2.660   3.084   7.409 -0.0399 -0.4867  0.0488
   64SAPC  H12X 5244   2.638   3.001   7.339  2.0875 -0.5356 -0.6180
   64SAPC  H12Y 5245   2.590   3.170   7.401 -0.6718 -1.0149 -0.1446
   64SAPC  C313 5246   2.656   3.003   7.543  0.2913  0.2236  0.0029
   64SAPC  H13X 5247   2.666   3.077   7.626 -0.1411 -0.5235  0.7284
   64SAPC  H13Y 5248   2.745   2.937   7.547  0.0193 -0.1190  0.3639
   64SAPC  C314 5249   2.521   2.936   7.567  0.4828 -0.4877  0.8486
   64SAPC  H14X 5250   2.513   2.852   7.496  1.7548 -1.6261  1.9884
   64SAPC  H14Y 5251   2.443   3.013   7.550  2.6866  1.6275 -0.3572
   64SAPC  C315 5252   2.483   2.882   7.705  0.0598  0.8456 -0.0854
   64SAPC  H15X 5253   2.535   2.787   7.728 -0.7822  0.8484  2.0790
   64SAPC  H15Y 5254   2.377   2.850   7.694  0.2561  0.6987 -1.8440
   64SAPC  C316 5255   2.493   2.984   7.820  0.2346  0.9073  0.8089
   64SAPC  H16X 5256   2.426   3.066   7.788 -1.9600 -1.1967 -0.2522
   64SAPC  H16Y 5257   2.596   3.013   7.851  1.5322 -2.7642  0.4174
   64SAPC  C317 5258   2.417   2.926   7.940 -0.1019 -0.7735  0.0523
   64SAPC  H17X 5259   2.469   2.834   7.975  0.4516 -0.3447  0.3562
   64SAPC  H17Y 5260   2.318   2.899   7.897 -1.0327  2.0633  0.2412
   64SAPC  C318 5261   2.390   3.014   8.064 -0.0910  0.1544  0.0909
   64SAPC  H18X 5262   2.304   2.973   8.121  0.0110  0.5855  0.5541
   64SAPC  H18Y 5263   2.373   3.120   8.038 -3.4425 -0.5577 -1.0956
   64SAPC  H18Z 5264   2.480   3.002   8.128  0.2635 -0.5491 -0.5243
   65SAPC     N 5265   0.886   4.430   6.123  0.4218 -0.1402 -0.2327
   65SAPC   C12 5266   0.787   4.457   6.242 -0.6265  0.5526  0.3229
   65SAPC  H12A 5267   0.739   4.551   6.221  1.5783  1.1487 -2.7218
   65SAPC  H12B 5268   0.851   4.473   6.327 -0.4360 -2.2199  0.8062
   65SAPC   C13 5269   0.943   4.563   6.083  0.0528  0.0735  0.1126
   65SAPC  H13A 5270   0.962   4.618   6.175 -1.3521  1.7423 -0.5366
   65SAPC  H13B 5271   1.040   4.555   6.037 -0.1247  2.4066 -0.7815
   65SAPC  H13C 5272   0.871   4.614   6.021 -1.5579 -1.7425  0.4043
   65SAPC   C14 5273   1.000   4.336   6.157  0.5902  0.0945 -0.8115
   65SAPC  H14A 5274   0.958   4.237   6.152 -0.0921  0.2947  0.5841
   65SAPC  H14B 5275   1.083   4.349   6.090  1.8497  3.0817  1.1336
   65SAPC  H14C 5276   1.039   4.335   6.257 -0.8006  0.9925 -0.2232
   65SAPC   C15 5277   0.817   4.358   6.006 -0.2277 -0.4593  0.1146
   65SAPC  H15A 5278   0.754   4.277   6.039 -0.5494 -1.3192 -2.3832
   65SAPC  H15B 5279   0.756   4.431   5.956 -0.3393  0.9899  2.2157
   65SAPC  H15C 5280   0.894   4.322   5.939  0.4096 -0.9587  1.0853
   65SAPC   C11 5281   0.685   4.345   6.275 -0.4733  0.3314 -0.0787
   65SAPC  H11A 5282   0.631   4.385   6.363 -3.3357 -1.3207 -0.9233
   65SAPC  H11B 5283   0.743   4.251   6.288 -1.1947 -0.3448 -1.4935
   65SAPC     P 5284   0.532   4.198   6.124  0.0101  0.0475  0.0700
   65SAPC   O13 5285   0.413   4.213   6.034  0.7211 -0.2158  0.3138
   65SAPC   O14 5286   0.642   4.112   6.074  0.0077  0.0440 -0.3396
   65SAPC   O12 5287   0.590   4.337   6.169 -0.0852 -0.1718 -0.9378
   65SAPC   O11 5288   0.493   4.132   6.259  0.0177  0.0080 -0.2914
   65SAPC    C1 5289   0.365   4.137   6.321  0.3515 -0.4457 -0.2568
   65SAPC    HA 5290   0.287   4.182   6.255  0.3327 -1.7747 -1.1726
   65SAPC    HB 5291   0.320   4.042   6.358 -1.1797  1.2206  2.4789
   65SAPC    C2 5292   0.353   4.218   6.454 -0.2842 -0.4367 -0.1934
   65SAPC    HS 5293   0.386   4.322   6.432  3.5039 -1.8832 -2.0868
   65SAPC   O21 5294   0.440   4.164   6.553 -0.3986  0.2668 -0.4435
   65SAPC   C21 5295   0.497   4.246   6.638 -0.4027 -1.0642 -0.0378
   65SAPC   O22 5296   0.494   4.365   6.638 -0.2340  0.7634  0.0264
   65SAPC   C22 5297   0.580   4.175   6.740 -0.1948 -0.0632 -0.2669
   65SAPC   H2R 5298   0.580   4.238   6.832 -1.0531 -1.2074  0.5442
   65SAPC   H2S 5299   0.531   4.077   6.760 -0.0258  0.0202  0.6120
   65SAPC    C3 5300   0.205   4.209   6.500  0.1510 -0.7814  0.2594
   65SAPC    HX 5301   0.174   4.104   6.514  2.1737 -1.1607  2.9692
   65SAPC    HY 5302   0.155   4.260   6.415  2.7248  3.4338  0.9673
   65SAPC   O31 5303   0.190   4.281   6.627 -0.1827  0.4935  0.6033
   65SAPC   C31 5304   0.186   4.412   6.609 -0.1951  0.0163 -0.3038
   65SAPC   O32 5305   0.206   4.474   6.507  0.4569 -0.1466  0.4648
   65SAPC   C32 5306   0.164   4.487   6.750 -0.1943 -0.1338 -0.1818
   65SAPC   H2X 5307   0.231   4.575   6.745 -0.4412  0.3194  2.7397
   65SAPC   H2Y 5308   0.190   4.414   6.830 -2.9463 -1.4593 -0.3742
   65SAPC   C23 5309   0.731   4.154   6.689  0.0017 -0.4172 -0.1603
   65SAPC   H3R 5310   0.766   4.258   6.671  0.1438 -0.3591  0.4346
   65SAPC   H3S 5311   0.745   4.096   6.595  1.0435  0.2557 -0.4428
   65SAPC   C24 5312   0.833   4.113   6.797  0.4077 -1.1848 -0.3561
   65SAPC   H4R 5313   0.822   4.184   6.882 -1.1998 -0.2870 -1.2737
   65SAPC   H4S 5314   0.935   4.129   6.755  1.2073  0.5588  2.0141
   65SAPC   C25 5315   0.806   3.968   6.819 -0.7457  0.4543 -0.6014
   65SAPC   H5R 5316   0.855   3.899   6.749  1.5008 -1.5396  2.6276
   65SAPC   C26 5317   0.727   3.915   6.917  0.0839 -0.2849  0.0375
   65SAPC   H6R 5318   0.718   3.805   6.919 -2.9121 -0.1462 -0.6175
   65SAPC   C27 5319   0.653   3.987   7.028 -0.7612  0.1655 -0.1325
   65SAPC   H7R 5320   0.553   3.961   6.989  0.1934 -1.8280 -1.3861
   65SAPC   H7S 5321   0.655   4.098   7.025 -3.9647  0.5377  3.4683
   65SAPC   C28 5322   0.693   3.939   7.157  0.0305 -0.0727 -0.6030
   65SAPC   H8R 5323   0.799   3.913   7.164 -0.1253 -0.5571  0.0565
   65SAPC   C29 5324   0.623   3.959   7.269 -0.0418  0.3123 -0.4512
   65SAPC   H9R 5325   0.677   3.933   7.361  1.5781  0.5604 -1.3016
   65SAPC  C210 5326   0.481   4.020   7.288 -0.3383 -0.4976  0.4760
   65SAPC  H10R 5327   0.463   4.080   7.197  0.8945 -1.3932 -0.4007
   65SAPC  H10S 5328   0.480   4.092   7.373  2.9063  0.1833  0.0866
   65SAPC  C211 5329   0.388   3.917   7.332  0.3317  0.5477 -0.1447
   65SAPC  H11R 5330   0.368   3.837   7.259 -0.3821 -2.7158  3.2884
   65SAPC  C212 5331   0.334   3.886   7.455  0.1630  0.3839 -0.3185
   65SAPC  H12R 5332   0.246   3.819   7.458 -0.2937  0.9996  0.3065
   65SAPC  C213 5333   0.341   3.967   7.580 -0.2472  0.2907 -0.7217
   65SAPC  H13R 5334   0.246   3.952   7.635 -0.1798 -1.6013 -1.0569
   65SAPC  H13S 5335   0.350   4.076   7.560  2.4595  0.1070 -0.8879
   65SAPC  C214 5336   0.453   3.934   7.678 -0.3716  0.8562 -0.2391
   65SAPC  H14R 5337   0.535   3.881   7.628  0.4769  0.6331  1.3257
   65SAPC  C215 5338   0.483   3.976   7.803 -0.0779 -0.4603 -0.0952
   65SAPC  H15R 5339   0.565   3.930   7.859 -0.6788 -2.7234 -0.9427
   65SAPC  C216 5340   0.398   4.076   7.876  0.2220  0.3472  0.2054
   65SAPC  H16R 5341   0.311   4.114   7.818 -1.3383 -1.8717  0.9696
   65SAPC  H16S 5342   0.461   4.167   7.868  0.3589  0.1812 -0.6969
   65SAPC  C217 5343   0.334   4.043   8.009  0.4080 -0.2745 -0.1981
   65SAPC  H17R 5344   0.411   4.003   8.078 -1.5870 -0.2024  2.2033
   65SAPC  H17S 5345   0.255   3.968   7.988  0.2248  0.1045 -0.9158
   65SAPC  C218 5346   0.254   4.159   8.074 -0.4084 -0.5442  0.2299
   65SAPC  H18R 5347   0.192   4.209   7.995  0.1396 -1.5342 -0.8648
   65SAPC  H18S 5348   0.332   4.235   8.094 -1.5690  1.0763 -1.0043
   65SAPC  C219 5349   0.177   4.110   8.200  0.1012  0.4827  0.5530
   65SAPC  H19R 5350   0.235   4.090   8.293  1.1124  0.4452 -0.0653
   65SAPC  H19S 5351   0.117   4.019   8.178  1.0990  0.0278 -0.4122
   65SAPC  C220 5352   0.081   4.223   8.231 -0.0827 -0.1484 -0.5408
   65SAPC  H20R 5353   0.041   4.219   8.334 -1.3262  1.8960 -0.9010
   65SAPC  H20S 5354   0.009   4.243   8.149 -0.1879  0.8806 -0.2054
   65SAPC  H20T 5355   0.145   4.314   8.241  0.4351 -0.5238 -0.4038
   65SAPC   C33 5356   0.013   4.522   6.765 -0.2556 -0.3197 -0.3872
   65SAPC   H3X 5357  -0.052   4.437   6.736 -0.3224 -1.0237  1.6728
   65SAPC   H3Y 5358  -0.017   4.609   6.703 -0.5903 -0.3377 -0.2548
   65SAPC   C34 5359  -0.034   4.556   6.908 -0.3877 -0.5024  0.1244
   65SAPC   H4X 5360  -0.030   4.667   6.910 -0.2242 -0.4859 -0.7519
   65SAPC   H4Y 5361   0.034   4.510   6.982 -0.7960 -0.4822  0.5192
   65SAPC   C35 5362  -0.174   4.501   6.931  0.7026  0.1983  0.3722
   65SAPC   H5X 5363  -0.163   4.391   6.922  0.1931  0.1325  0.4787
   65SAPC   H5Y 5364  -0.243   4.539   6.853  0.6044  2.7790  1.5929
   65SAPC   C36 5365  -0.218   4.545   7.073  0.4407 -0.6047  0.6238
   65SAPC   H6X 5366  -0.329   4.548   7.074  0.4190  1.1513 -0.8290
   65SAPC   H6Y 5367  -0.191   4.652   7.083 -0.8902 -0.0562 -1.0992
   65SAPC   C37 5368  -0.179   4.440   7.172 -0.3220 -0.2577  0.2399
   65SAPC   H7X 5369  -0.069   4.436   7.184  0.0001  2.7045 -1.0085
   65SAPC   H7Y 5370  -0.212   4.339   7.137  0.4344 -1.2427  2.2004
   65SAPC   C38 5371  -0.245   4.483   7.304  0.5641  0.0419 -0.5817
   65SAPC   H8X 5372  -0.206   4.400   7.367  1.9291 -0.6722 -2.2605
   65SAPC   H8Y 5373  -0.356   4.492   7.295  0.5054  2.2041  1.5333
   65SAPC   C39 5374  -0.179   4.606   7.365  0.2055 -0.4985 -0.8122
   65SAPC   H9X 5375  -0.200   4.695   7.302  0.8413 -1.9587 -3.2118
   65SAPC   H9Y 5376  -0.071   4.584   7.375  0.0971 -0.9259 -0.5130
   65SAPC  C310 5377  -0.227   4.635   7.515 -0.9898 -0.4347  0.3086
   65SAPC  H10X 5378  -0.213   4.536   7.564 -1.0643 -1.0626 -0.8870
   65SAPC  H10Y 5379  -0.335   4.662   7.513 -0.6270  1.1482  0.8514
   65SAPC  C311 5380  -0.144   4.735   7.593 -1.0246 -0.5380  0.4266
   65SAPC  H11X 5381  -0.157   4.834   7.545  3.7663  1.2394  2.3016
   65SAPC  H11Y 5382  -0.035   4.716   7.600 -1.0056 -0.4003  0.4982
   65SAPC  C312 5383  -0.188   4.743   7.739  0.0700  0.0206  0.3917
   65SAPC  H12X 5384  -0.198   4.641   7.782 -2.7196  0.9182  2.1804
   65SAPC  H12Y 5385  -0.294   4.775   7.750  0.0006  0.5352 -1.3747
   65SAPC  C313 5386  -0.106   4.850   7.820 -0.7332  0.1135  0.6936
   65SAPC  H13X 5387  -0.113   4.950   7.772 -1.3543  1.0256  2.5852
   65SAPC  H13Y 5388  -0.002   4.813   7.809 -0.4946  1.2739 -1.7957
   65SAPC  C314 5389  -0.153   4.857   7.970 -0.1117 -0.2857  0.2381
   65SAPC  H14X 5390  -0.138   4.756   8.014  2.7394  0.1014  0.2836
   65SAPC  H14Y 5391  -0.259   4.893   7.969  0.9841  3.3530  0.7235
   65SAPC  C315 5392  -0.069   4.956   8.050  0.0942  0.0568 -0.9786
   65SAPC  H15X 5393  -0.044   5.048   7.992  1.3287  0.5559  0.2848
   65SAPC  H15Y 5394   0.024   4.905   8.084 -0.3879 -0.2986 -0.1953
   65SAPC  C316 5395  -0.137   5.008   8.178  0.1394 -0.5617 -0.4887
   65SAPC  H16X 5396  -0.232   5.047   8.137  0.3448 -1.8339 -2.3312
   65SAPC  H16Y 5397  -0.077   5.089   8.224 -0.2094 -1.1117  0.9881
   65SAPC  C317 5398  -0.178   4.900   8.284 -0.0599  0.5650  0.1997
   65SAPC  H17X 5399  -0.088   4.835   8.292  1.1372  1.8446 -1.8418
   65SAPC  H17Y 5400  -0.257   4.838   8.236  0.1095  0.1408  0.4667
   65SAPC  C318 5401  -0.226   4.946   8.421 -0.4121  0.5607 -0.0954
   65SAPC  H18X 5402  -0.255   4.852   8.473  3.7421 -0.4749  0.7116
   65SAPC  H18Y 5403  -0.315   5.010   8.402 -0.3949  0.4504 -0.5792
   65SAPC  H18Z 5404  -0.148   4.998   8.480  1.6096  0.4290 -2.4617
   66SAPC     N 5405   5.409   4.919   5.667 -0.1052  0.1722 -0.6283
   66SAPC   C12 5406   5.350   4.913   5.811 -0.3289 -0.8951  0.2131
   66SAPC  H12A 5407   5.339   4.811   5.843  2.4185 -1.1094  0.7563
   66SAPC  H12B 5408   5.246   4.940   5.804 -0.2581 -0.9000 -1.3307
   66SAPC   C13 5409   5.433   5.055   5.619 -0.0249 -0.9517 -0.4061
   66SAPC  H13A 5410   5.474   5.078   5.522  1.2006  0.8665  0.4743
   66SAPC  H13B 5411   5.345   5.117   5.625  0.3805 -0.5154  1.9012
   66SAPC  H13C 5412   5.508   5.106   5.678  0.9221 -1.9688 -0.7032
   66SAPC   C14 5413   5.534   4.841   5.668 -0.0542  0.8653  0.1989
   66SAPC  H14A 5414   5.596   4.882   5.746 -0.0434 -0.2233  0.7901
   66SAPC  H14B 5415   5.510   4.740   5.697  2.5451 -0.0043 -0.4095
   66SAPC  H14C 5416   5.573   4.825   5.568 -1.5816  0.3785 -0.3396
   66SAPC   C15 5417   5.320   4.846   5.567 -0.0397 -0.3572 -0.9961
   66SAPC  H15A 5418   5.348   4.867   5.464 -0.0684  2.0748 -0.5588
   66SAPC  H15B 5419   5.330   4.739   5.577 -1.1429 -0.3837 -0.0283
   66SAPC  H15C 5420   5.216   4.860   5.592 -0.1417 -2.1433 -0.2930
   66SAPC   C11 5421   5.409   4.998   5.925 -0.4592 -1.0955 -0.6970
   66SAPC  H11A 5422   5.354   4.978   6.020  0.4459 -1.4535 -0.2356
   66SAPC  H11B 5423   5.397   5.105   5.900 -1.2202 -1.2169 -0.8999
   66SAPC     P 5424   5.597   4.844   6.024  0.6311 -0.2345 -0.4647
   66SAPC   O13 5425   5.534   4.724   5.973 -0.0824 -0.0555  0.7913
   66SAPC   O14 5426   5.745   4.835   6.023 -0.2938 -0.0998 -0.2359
   66SAPC   O12 5427   5.551   4.971   5.937  0.5469  0.3214  0.1368
   66SAPC   O11 5428   5.542   4.888   6.167  0.3808 -0.2211 -0.8687
   66SAPC    C1 5429   5.585   4.998   6.246  0.5112 -0.1501 -0.3505
   66SAPC    HA 5430   5.588   5.091   6.186  0.7386  1.2631  1.7572
   66SAPC    HB 5431   5.504   5.002   6.322  0.6259  1.7644 -0.2909
   66SAPC    C2 5432   5.716   4.968   6.314  0.0202 -0.7983  0.1549
   66SAPC    HS 5433   5.793   4.987   6.235 -2.1206 -0.5876 -2.0050
   66SAPC   O21 5434   5.709   4.833   6.358 -0.7978  0.1867  0.4513
   66SAPC   C21 5435   5.831   4.785   6.366  0.0908  0.2146 -0.1088
   66SAPC   O22 5436   5.935   4.834   6.321  0.4128 -0.3645  0.1490
   66SAPC   C22 5437   5.820   4.655   6.439 -0.2106  0.6520  0.4391
   66SAPC   H2R 5438   5.739   4.668   6.514 -2.2629  2.2920 -1.8737
   66SAPC   H2S 5439   5.800   4.572   6.369 -1.5223  0.9134  0.4875
   66SAPC    C3 5440   5.741   5.065   6.433 -0.3382 -0.5884 -0.1472
   66SAPC    HX 5441   5.740   5.171   6.403 -4.2508 -0.5741 -0.4525
   66SAPC    HY 5442   5.848   5.054   6.462 -0.8432 -0.3718  1.9597
   66SAPC   O31 5443   5.651   5.038   6.545 -0.9903  0.1447  0.4043
   66SAPC   C31 5444   5.716   4.991   6.648  0.2108 -0.4001 -0.1616
   66SAPC   O32 5445   5.835   4.996   6.678 -0.0261  0.0538  0.5774
   66SAPC   C32 5446   5.611   4.928   6.743  0.0258 -0.6203 -0.2324
   66SAPC   H2X 5447   5.571   4.845   6.680 -0.7026  1.3641 -2.5392
   66SAPC   H2Y 5448   5.528   4.999   6.764  1.8702  1.1073  1.5722
   66SAPC   C23 5449   5.949   4.612   6.509 -0.0507  0.4526  0.0760
   66SAPC   H3R 5450   6.028   4.604   6.432  0.7040 -2.0184  1.0020
   66SAPC   H3S 5451   5.937   4.510   6.551  1.2271 -0.5000 -1.7403
   66SAPC   C24 5452   5.984   4.704   6.631 -0.1304  0.2956 -0.2022
   66SAPC   H4R 5453   5.901   4.708   6.704 -1.6884  0.9935 -1.9482
   66SAPC   H4S 5454   5.998   4.807   6.592 -1.7098  0.8346  0.5653
   66SAPC   C25 5455   6.117   4.661   6.688  0.2646 -0.6084  0.6456
   66SAPC   H5R 5456   6.197   4.682   6.616 -1.3811 -0.3483 -1.1915
   66SAPC   C26 5457   6.146   4.608   6.811 -0.1938 -0.7834 -0.9632
   66SAPC   H6R 5458   6.249   4.585   6.843 -1.4043 -2.8258  1.9333
   66SAPC   C27 5459   6.048   4.584   6.926 -0.4189  0.7486  0.1060
   66SAPC   H7R 5460   6.073   4.503   6.998  0.6385  1.5031  0.6058
   66SAPC   H7S 5461   5.955   4.544   6.879 -0.4620  0.0612  0.7524
   66SAPC   C28 5462   6.021   4.709   6.999  0.2092 -0.4779  0.1967
   66SAPC   H8R 5463   5.950   4.775   6.947 -2.2754 -1.5581  2.0469
   66SAPC   C29 5464   6.054   4.745   7.127  0.8770  0.3146 -0.3937
   66SAPC   H9R 5465   6.030   4.842   7.172  0.7958 -0.3461  1.0325
   66SAPC  C210 5466   6.140   4.669   7.217 -0.4279  0.3573  0.0465
   66SAPC  H10R 5467   6.199   4.589   7.168 -1.9207 -0.1905 -0.9229
   66SAPC  H10S 5468   6.076   4.619   7.293 -2.0272  2.0035 -0.1550
   66SAPC  C211 5469   6.236   4.761   7.292 -0.4413 -0.1777 -0.2048
   66SAPC  H11R 5470   6.315   4.799   7.226 -0.3491 -1.4738 -0.8573
   66SAPC  C212 5471   6.230   4.814   7.418  0.0057 -0.0625 -0.9008
   66SAPC  H12R 5472   6.293   4.902   7.442 -1.7033  0.3950  2.6335
   66SAPC  C213 5473   6.114   4.783   7.517 -0.7400  0.7377 -0.1189
   66SAPC  H13R 5474   6.115   4.673   7.536 -1.2783  0.3920 -1.9131
   66SAPC  H13S 5475   6.020   4.799   7.461 -1.3503 -0.5650  0.4970
   66SAPC  C214 5476   6.112   4.877   7.641  0.6592 -0.3913 -0.4914
   66SAPC  H14R 5477   6.098   4.980   7.605  0.6793 -0.6782 -1.3257
   66SAPC  C215 5478   6.115   4.847   7.770  0.3884  0.7360  0.0777
   66SAPC  H15R 5479   6.125   4.921   7.851 -1.0207  1.8881 -0.7575
   66SAPC  C216 5480   6.136   4.710   7.823  0.0130  0.8468 -0.6662
   66SAPC  H16R 5481   6.242   4.679   7.821 -0.2295 -0.0284 -0.5171
   66SAPC  H16S 5482   6.074   4.641   7.762  1.2084  1.3873 -2.5501
   66SAPC  C217 5483   6.080   4.703   7.967 -0.1940 -0.0445  0.5031
   66SAPC  H17R 5484   6.077   4.598   8.001 -0.4584 -0.0109  0.5805
   66SAPC  H17S 5485   5.972   4.729   7.974  0.1443  1.1776  1.9148
   66SAPC  C218 5486   6.167   4.773   8.077 -0.5841 -0.7928  0.9561
   66SAPC  H18R 5487   6.172   4.882   8.054  0.9718 -1.1634 -0.6741
   66SAPC  H18S 5488   6.273   4.742   8.072 -0.1199  0.8358  0.3203
   66SAPC  C219 5489   6.115   4.747   8.218 -0.1118 -0.4162 -0.2846
   66SAPC  H19R 5490   6.079   4.642   8.216 -1.3613 -0.0064 -3.2171
   66SAPC  H19S 5491   6.025   4.811   8.226 -0.8649 -1.5617  0.7403
   66SAPC  C220 5492   6.214   4.782   8.326 -0.5030 -0.1883  0.4576
   66SAPC  H20R 5493   6.304   4.718   8.311 -0.5041 -0.4042  1.3514
   66SAPC  H20S 5494   6.181   4.750   8.427  3.1070  1.7299  2.4404
   66SAPC  H20T 5495   6.262   4.882   8.326  1.5451 -1.1103 -0.5308
   66SAPC   C33 5496   5.665   4.881   6.875  0.3550 -0.1559  0.5414
   66SAPC   H3X 5497   5.756   4.824   6.846 -1.3140 -2.0037 -1.4546
   66SAPC   H3Y 5498   5.584   4.816   6.916  0.1965 -0.2518  0.0822
   66SAPC   C34 5499   5.689   4.994   6.983 -0.0580  0.2267 -1.2414
   66SAPC   H4X 5500   5.584   5.009   7.016  0.5802  1.8318  0.2271
   66SAPC   H4Y 5501   5.726   5.084   6.930 -2.3006  1.8321 -0.2328
   66SAPC   C35 5502   5.759   4.949   7.109  0.2735 -0.4226  1.2698
   66SAPC   H5X 5503   5.867   4.950   7.080 -0.3177 -0.5277 -1.1585
   66SAPC   H5Y 5504   5.727   4.844   7.127  3.4347 -2.1381 -1.7690
   66SAPC   C36 5505   5.725   5.026   7.240  0.3495 -0.2253  0.5863
   66SAPC   H6X 5506   5.618   5.011   7.263  0.0582 -0.5345 -0.8528
   66SAPC   H6Y 5507   5.739   5.135   7.223  0.4791 -0.3163  0.0927
   66SAPC   C37 5508   5.815   4.976   7.349 -0.4213  0.4463  0.4269
   66SAPC   H7X 5509   5.915   5.003   7.307 -0.5181 -0.1908 -0.2326
   66SAPC   H7Y 5510   5.805   4.866   7.357 -2.2393  0.4560 -1.0824
   66SAPC   C38 5511   5.787   5.054   7.485 -0.2234 -0.6415  0.0678
   66SAPC   H8X 5512   5.778   5.160   7.454 -0.0468 -0.6820 -0.1299
   66SAPC   H8Y 5513   5.871   5.040   7.556  0.3461 -1.0707 -0.6748
   66SAPC   C39 5514   5.664   4.999   7.568 -0.8316  0.1832  0.1262
   66SAPC   H9X 5515   5.694   4.896   7.595  0.3819  0.9907  2.2097
   66SAPC   H9Y 5516   5.572   5.005   7.507  0.2557  1.8078 -1.4436
   66SAPC  C310 5517   5.649   5.071   7.700 -0.3701  0.8642  0.3417
   66SAPC  H10X 5518   5.650   5.179   7.676 -0.3478  0.4044 -2.0225
   66SAPC  H10Y 5519   5.739   5.043   7.757 -1.1784  0.6337  1.5426
   66SAPC  C311 5520   5.527   5.043   7.795  0.2101 -0.3728  0.2306
   66SAPC  H11X 5521   5.435   5.053   7.733 -0.3196 -0.0402  1.0477
   66SAPC  H11Y 5522   5.514   5.117   7.877  0.7608  2.5771 -2.1677
   66SAPC  C312 5523   5.540   4.901   7.847 -0.8152 -0.5612  0.9272
   66SAPC  H12X 5524   5.637   4.894   7.901 -0.0180  0.2524 -0.3594
   66SAPC  H12Y 5525   5.558   4.834   7.760  0.2907 -0.7520  1.2870
   66SAPC  C313 5526   5.433   4.864   7.950 -0.0439  0.0915 -0.2049
   66SAPC  H13X 5527   5.434   4.755   7.969  1.6259 -0.1968 -1.6518
   66SAPC  H13Y 5528   5.335   4.891   7.906 -0.6366  1.6062  1.8922
   66SAPC  C314 5529   5.439   4.945   8.075 -0.2725 -0.5489 -0.1734
   66SAPC  H14X 5530   5.434   5.051   8.043  3.4656  0.2361  1.2974
   66SAPC  H14Y 5531   5.537   4.932   8.126  0.1917 -1.1328 -1.1707
   66SAPC  C315 5532   5.331   4.920   8.179  0.3854  0.6433  0.7842
   66SAPC  H15X 5533   5.350   4.816   8.214 -1.7224 -0.2212 -0.4664
   66SAPC  H15Y 5534   5.232   4.921   8.130  1.7546  1.3769 -2.2003
   66SAPC  C316 5535   5.334   5.012   8.306 -0.0110  0.1124  0.0342
   66SAPC  H16X 5536   5.245   5.001   8.371  0.6466 -1.3796  0.7393
   66SAPC  H16Y 5537   5.326   5.114   8.264  2.4795  0.4301  0.1440
   66SAPC  C317 5538   5.464   4.987   8.385 -1.0420 -0.2157 -0.8066
   66SAPC  H17X 5539   5.557   4.974   8.325  0.1555  0.1254  0.9101
   66SAPC  H17Y 5540   5.449   4.887   8.430 -1.0290 -0.7138 -1.8581
   66SAPC  C318 5541   5.472   5.079   8.501 -0.3207 -0.5278  0.0916
   66SAPC  H18X 5542   5.517   5.172   8.461  0.9879 -1.5783 -1.0011
   66SAPC  H18Y 5543   5.540   5.043   8.581  0.0413 -0.6265 -0.2575
   66SAPC  H18Z 5544   5.370   5.111   8.532  0.4479  3.1030 -0.6355
   67SAPC     N 5545   0.330   4.587   6.161 -0.5662  0.8141 -0.2248
   67SAPC   C12 5546   0.418   4.558   6.282 -0.3246 -0.1344  0.7372
   67SAPC  H12A 5547   0.493   4.486   6.253  0.2208  1.0900 -1.1049
   67SAPC  H12B 5548   0.353   4.508   6.353 -3.2317 -3.5033 -3.7178
   67SAPC   C13 5549   0.236   4.468   6.154  0.5230 -0.5172  0.2216
   67SAPC  H13A 5550   0.283   4.371   6.160 -0.8435 -1.3215 -1.3269
   67SAPC  H13B 5551   0.157   4.476   6.227 -0.8387 -1.8142 -1.0377
   67SAPC  H13C 5552   0.180   4.466   6.061  1.7227  0.7092 -0.5740
   67SAPC   C14 5553   0.241   4.709   6.184 -0.0541 -0.1222 -0.3895
   67SAPC  H14A 5554   0.293   4.803   6.197 -1.8807  0.9802 -0.7769
   67SAPC  H14B 5555   0.182   4.724   6.096  0.8706 -0.1915 -1.0398
   67SAPC  H14C 5556   0.174   4.691   6.266 -1.8762 -2.2703 -2.2296
   67SAPC   C15 5557   0.416   4.607   6.042  0.4323  0.1134 -0.1995
   67SAPC  H15A 5558   0.477   4.519   6.027  1.0654  0.1052  2.0922
   67SAPC  H15B 5559   0.360   4.630   5.953  2.2651 -0.5056 -1.5701
   67SAPC  H15C 5560   0.492   4.681   6.065  0.4444  0.3970 -1.0990
   67SAPC   C11 5561   0.493   4.675   6.345 -0.6650  0.3940  0.3481
   67SAPC  H11A 5562   0.539   4.642   6.441 -0.8558  0.8942  0.6136
   67SAPC  H11B 5563   0.428   4.757   6.382  0.2997  0.7123  1.3935
   67SAPC     P 5564   0.703   4.815   6.279  0.0257 -0.4307 -0.1968
   67SAPC   O13 5565   0.819   4.737   6.331 -0.4119 -0.2430  0.1587
   67SAPC   O14 5566   0.731   4.908   6.167 -0.2491 -0.2372  0.4825
   67SAPC   O12 5567   0.595   4.708   6.250 -0.0727 -0.6314  0.9026
   67SAPC   O11 5568   0.628   4.895   6.395  0.2012  0.3440 -0.1711
   67SAPC    C1 5569   0.696   4.941   6.515  0.5051  1.1005 -0.3870
   67SAPC    HA 5570   0.805   4.917   6.515  1.1211  3.4310  2.1480
   67SAPC    HB 5571   0.697   5.052   6.517 -1.0543  1.1220  0.4020
   67SAPC    C2 5572   0.621   4.891   6.646  0.1682 -1.4201  0.0787
   67SAPC    HS 5573   0.579   4.791   6.620  0.3353 -1.1247 -1.4232
   67SAPC   O21 5574   0.507   4.982   6.672 -0.2551  0.8882  0.0414
   67SAPC   C21 5575   0.387   4.921   6.680  0.5904 -0.2926 -0.4172
   67SAPC   O22 5576   0.358   4.805   6.669 -0.1386 -0.1909  0.2446
   67SAPC   C22 5577   0.279   5.023   6.720 -0.2367  0.4696 -0.5797
   67SAPC   H2R 5578   0.319   5.096   6.794 -0.4909 -0.0962  0.1177
   67SAPC   H2S 5579   0.257   5.081   6.628 -0.3705  0.9363 -0.2576
   67SAPC    C3 5580   0.709   4.877   6.766 -0.0326 -0.2669  0.0542
   67SAPC    HX 5581   0.734   4.978   6.807 -2.3473 -0.0952  1.1996
   67SAPC    HY 5582   0.804   4.835   6.726  1.3389  2.6006 -0.0159
   67SAPC   O31 5583   0.646   4.796   6.873  0.4775 -0.2713 -0.2116
   67SAPC   C31 5584   0.682   4.673   6.873 -0.7984  0.6583  0.1737
   67SAPC   O32 5585   0.761   4.627   6.795  0.5864  0.5065 -0.0119
   67SAPC   C32 5586   0.609   4.605   6.986 -0.0844  0.9612  0.3209
   67SAPC   H2X 5587   0.505   4.584   6.954 -0.3704  1.2559  1.0513
   67SAPC   H2Y 5588   0.617   4.680   7.067  0.3411  1.0511  0.2009
   67SAPC   C23 5589   0.157   4.950   6.783  0.3296  0.0822  0.0021
   67SAPC   H3R 5590   0.120   4.882   6.702  0.3845  0.2940 -0.2015
   67SAPC   H3S 5591   0.077   5.017   6.820  0.6425 -0.5778  1.9566
   67SAPC   C24 5592   0.190   4.868   6.903  0.2765 -0.2074 -1.0254
   67SAPC   H4R 5593   0.257   4.783   6.879  1.1642  1.0044 -3.1568
   67SAPC   H4S 5594   0.101   4.819   6.947 -0.7454  1.4031 -1.2357
   67SAPC   C25 5595   0.271   4.956   7.002 -0.1994  0.2421 -0.4276
   67SAPC   H5R 5596   0.372   4.983   6.968  0.7126 -1.2631  0.9617
   67SAPC   C26 5597   0.245   4.987   7.130 -0.3192  0.8405  0.1290
   67SAPC   H6R 5598   0.324   5.020   7.200 -0.2927  3.2535 -0.9083
   67SAPC   C27 5599   0.119   4.940   7.206 -0.0444  0.2147 -0.3939
   67SAPC   H7R 5600   0.041   4.889   7.145  0.0321  0.6690 -0.8807
   67SAPC   H7S 5601   0.061   5.030   7.238  0.0181  0.3608 -0.6871
   67SAPC   C28 5602   0.147   4.849   7.317  0.2219 -0.3183 -0.2730
   67SAPC   H8R 5603   0.137   4.745   7.281  1.7282 -0.4520 -0.3832
   67SAPC   C29 5604   0.194   4.869   7.445  0.1286  0.0819  0.0873
   67SAPC   H9R 5605   0.220   4.783   7.508 -0.0585  0.0359  0.1023
   67SAPC  C210 5606   0.229   5.013   7.496 -0.2631  0.3511 -0.2002
   67SAPC  H10R 5607   0.145   5.045   7.561  0.4123  1.6287  0.0701
   67SAPC  H10S 5608   0.226   5.085   7.411 -1.2560  1.8118  1.0335
   67SAPC  C211 5609   0.364   5.013   7.567  0.7357 -0.1519 -0.8670
   67SAPC  H11R 5610   0.366   4.954   7.660  3.8246  0.4166 -0.4550
   67SAPC  C212 5611   0.477   5.078   7.531  0.1723  0.3130  0.2702
   67SAPC  H12R 5612   0.559   5.072   7.604  0.4092  0.8753  0.0611
   67SAPC  C213 5613   0.492   5.160   7.404 -0.4838  0.5223  0.2287
   67SAPC  H13R 5614   0.395   5.170   7.350 -0.0814  0.7716 -0.4501
   67SAPC  H13S 5615   0.547   5.093   7.334 -3.3051 -2.8701  0.9378
   67SAPC  C214 5616   0.559   5.296   7.414  0.7878 -0.1613  0.2422
   67SAPC  H14R 5617   0.615   5.319   7.506  1.5256 -2.3711  0.4166
   67SAPC  C215 5618   0.553   5.394   7.318 -0.1057  0.0501  0.8445
   67SAPC  H15R 5619   0.582   5.499   7.331  0.8279  0.0607 -0.9837
   67SAPC  C216 5620   0.472   5.385   7.193 -0.6107  0.4232 -0.1385
   67SAPC  H16R 5621   0.439   5.486   7.160 -2.4753  0.4331  1.5987
   67SAPC  H16S 5622   0.380   5.323   7.205 -1.2178  1.3363  0.0265
   67SAPC  C217 5623   0.574   5.320   7.094 -0.2271  0.2639  0.1805
   67SAPC  H17R 5624   0.587   5.214   7.125  1.8767  0.6821  0.8601
   67SAPC  H17S 5625   0.662   5.387   7.099 -0.3439  0.6878 -2.2054
   67SAPC  C218 5626   0.512   5.331   6.954  0.2411 -0.2656  0.1334
   67SAPC  H18R 5627   0.505   5.441   6.936 -0.8541 -0.2476  0.5932
   67SAPC  H18S 5628   0.405   5.304   6.946  0.1383 -0.3099  1.4233
   67SAPC  C219 5629   0.586   5.271   6.831  0.4178  1.0088 -0.6453
   67SAPC  H19R 5630   0.508   5.214   6.777  0.4811  0.0567  0.2346
   67SAPC  H19S 5631   0.662   5.202   6.874  2.0130  2.7099 -0.6081
   67SAPC  C220 5632   0.653   5.355   6.730  0.2324 -0.1409  0.6946
   67SAPC  H20R 5633   0.577   5.429   6.698  0.6515  0.0375  0.0890
   67SAPC  H20S 5634   0.697   5.289   6.653  1.6409  0.9518  0.5141
   67SAPC  H20T 5635   0.718   5.431   6.779 -4.2857  2.8741  2.7547
   67SAPC   C33 5636   0.677   4.470   7.015  0.1212 -0.1181  0.9462
   67SAPC   H3X 5637   0.781   4.470   7.054  0.2912 -0.3452  0.5062
   67SAPC   H3Y 5638   0.677   4.403   6.926  0.6566  0.5071  0.4705
   67SAPC   C34 5639   0.587   4.399   7.119  0.2248  0.4753  0.0624
   67SAPC   H4X 5640   0.617   4.292   7.114  0.9117  0.7024 -0.8049
   67SAPC   H4Y 5641   0.477   4.400   7.102 -0.2470  0.4717  2.7260
   67SAPC   C35 5642   0.590   4.466   7.256 -0.1155  0.6651 -0.3107
   67SAPC   H5X 5643   0.541   4.566   7.259 -3.3051 -0.7251 -1.4969
   67SAPC   H5Y 5644   0.693   4.490   7.290  0.5579 -2.0104 -0.2342
   67SAPC   C36 5645   0.527   4.397   7.372 -0.2146 -0.1525  0.6503
   67SAPC   H6X 5646   0.587   4.305   7.385  1.0159  0.1852 -1.9868
   67SAPC   H6Y 5647   0.424   4.373   7.338  0.3208 -0.2688 -0.9777
   67SAPC   C37 5648   0.522   4.474   7.495  0.5550 -0.1546 -0.5642
   67SAPC   H7X 5649   0.468   4.569   7.475 -0.1541 -1.1942 -4.3782
   67SAPC   H7Y 5650   0.621   4.500   7.537  0.4242  2.6719 -1.7939
   67SAPC   C38 5651   0.435   4.412   7.603 -0.3493 -0.0459  0.4503
   67SAPC   H8X 5652   0.487   4.321   7.638  2.1342  1.4447  0.8700
   67SAPC   H8Y 5653   0.338   4.396   7.550 -0.3502 -1.1110  0.7628
   67SAPC   C39 5654   0.403   4.495   7.738  0.3147  0.0746  0.0130
   67SAPC   H9X 5655   0.397   4.600   7.702 -2.2116 -0.5190 -1.5430
   67SAPC   H9Y 5656   0.484   4.477   7.811 -1.8547 -0.2293  2.5033
   67SAPC  C310 5657   0.269   4.451   7.801 -0.0836  0.0820  0.1966
   67SAPC  H10X 5658   0.268   4.368   7.875 -2.0660 -0.9074 -0.8535
   67SAPC  H10Y 5659   0.194   4.423   7.725 -0.8450 -1.1940  1.3770
   67SAPC  C311 5660   0.198   4.561   7.883  1.0357 -0.4916  0.1313
   67SAPC  H11X 5661   0.095   4.525   7.903 -0.1903  1.9646 -1.2639
   67SAPC  H11Y 5662   0.182   4.652   7.821 -0.8927  0.5801  2.0607
   67SAPC  C312 5663   0.286   4.592   8.000 -0.2798 -0.0797 -0.1277
   67SAPC  H12X 5664   0.384   4.620   7.956 -1.7241 -0.5890 -4.0527
   67SAPC  H12Y 5665   0.298   4.505   8.068 -2.2951  0.7093  1.3762
   67SAPC  C313 5666   0.229   4.710   8.074  0.3314 -0.1683  0.2251
   67SAPC  H13X 5667   0.137   4.676   8.126  0.8877 -1.1102  0.6118
   67SAPC  H13Y 5668   0.200   4.786   7.997 -2.7374  0.7013  2.0499
   67SAPC  C314 5669   0.339   4.774   8.166 -0.0835  0.0649  0.1772
   67SAPC  H14X 5670   0.421   4.821   8.106 -1.0447 -1.9030 -2.8569
   67SAPC  H14Y 5671   0.383   4.688   8.221  0.7089  0.0591 -0.4336
   67SAPC  C315 5672   0.273   4.864   8.269 -0.2722 -0.3246 -0.0276
   67SAPC  H15X 5673   0.201   4.819   8.341 -0.9731 -0.3847 -0.7508
   67SAPC  H15Y 5674   0.222   4.949   8.219 -1.2932 -2.1323 -2.2889
   67SAPC  C316 5675   0.385   4.924   8.363 -0.1021 -0.9899 -0.0963
   67SAPC  H16X 5676   0.468   4.969   8.304  0.0169  0.5754  1.1766
   67SAPC  H16Y 5677   0.416   4.849   8.439  1.4158  1.9378  2.4262
   67SAPC  C317 5678   0.327   5.042   8.445  0.9160  0.0907 -0.2152
   67SAPC  H17X 5679   0.323   5.133   8.382  0.2602  0.8310  0.8758
   67SAPC  H17Y 5680   0.401   5.073   8.521 -0.2410  2.8345 -0.1092
   67SAPC  C318 5681   0.196   5.000   8.515  0.5609 -0.1927  0.1334
   67SAPC  H18X 5682   0.201   4.899   8.561  2.3166  0.7033  2.0832
   67SAPC  H18Y 5683   0.105   5.007   8.452  1.0939  0.7611 -0.5421
   67SAPC  H18Z 5684   0.181   5.067   8.603 -0.5037 -1.7604  1.2095
   68SAPC     N 5685   0.005   5.231   6.170 -0.1561  0.7934 -0.3515
   68SAPC   C12 5686  -0.128   5.183   6.228  0.2172  0.4964 -0.2444
   68SAPC  H12A 5687  -0.107   5.097   6.289  0.5306 -0.8957 -2.2120
   68SAPC  H12B 5688  -0.190   5.144   6.148 -0.4277 -2.6166  1.6148
   68SAPC   C13 5689   0.105   5.233   6.284  0.1323 -0.1964 -0.6375
   68SAPC  H13A 5690   0.130   5.133   6.317  0.8436 -0.6792 -2.4809
   68SAPC  H13B 5691   0.194   5.271   6.236 -0.2013  1.8704  0.2675
   68SAPC  H13C 5692   0.071   5.297   6.364 -0.5696 -1.8764  0.4535
   68SAPC   C14 5693   0.052   5.129   6.066 -0.7265  0.6945  0.4888
   68SAPC  H14A 5694   0.050   5.033   6.115 -4.0765 -0.3253 -1.2996
   68SAPC  H14B 5695  -0.023   5.122   5.989 -0.4128 -3.5497  0.3003
   68SAPC  H14C 5696   0.152   5.142   6.028 -0.8342 -0.8718 -0.4004
   68SAPC   C15 5697  -0.019   5.363   6.103 -0.3374  0.5057 -0.0554
   68SAPC  H15A 5698   0.076   5.400   6.068  0.6081 -1.0410  0.7472
   68SAPC  H15B 5699  -0.077   5.342   6.014  2.8549 -2.9119 -1.6108
   68SAPC  H15C 5700  -0.056   5.439   6.171  0.2730  1.3502 -0.6503
   68SAPC   C11 5701  -0.219   5.279   6.326 -0.1898  0.5138 -0.1693
   68SAPC  H11A 5702  -0.150   5.312   6.406  1.4484 -0.1638 -1.2501
   68SAPC  H11B 5703  -0.304   5.220   6.365 -2.4688  2.6764 -1.5582
   68SAPC     P 5704  -0.424   5.433   6.254  0.2333  0.6221 -0.1036
   68SAPC   O13 5705  -0.431   5.578   6.218  0.1086  0.0670  0.1750
   68SAPC   O14 5706  -0.504   5.342   6.175 -0.3359  0.7629  0.3822
   68SAPC   O12 5707  -0.270   5.385   6.255  0.2869  0.3906  0.4537
   68SAPC   O11 5708  -0.459   5.415   6.407  0.1246  0.1991 -0.0835
   68SAPC    C1 5709  -0.590   5.364   6.447  0.0169  0.1649 -0.0371
   68SAPC    HA 5710  -0.611   5.269   6.393 -1.5161  0.1318  0.5729
   68SAPC    HB 5711  -0.595   5.349   6.557 -2.1742 -0.0646 -0.1329
   68SAPC    C2 5712  -0.710   5.462   6.415 -1.0020 -0.4555  0.6122
   68SAPC    HS 5713  -0.706   5.474   6.305  0.6194 -1.8307  0.4760
   68SAPC   O21 5714  -0.678   5.584   6.480  0.0289 -0.5783  0.1855
   68SAPC   C21 5715  -0.771   5.688   6.456  0.9293 -0.3338  0.1200
   68SAPC   O22 5716  -0.848   5.695   6.359  0.2348  0.2977  0.1352
   68SAPC   C22 5717  -0.772   5.786   6.569 -0.1828 -0.0604 -0.1867
   68SAPC   H2R 5718  -0.671   5.827   6.589 -0.9245  2.6203 -1.4314
   68SAPC   H2S 5719  -0.843   5.865   6.536 -0.6914 -0.7859 -0.8392
   68SAPC    C3 5720  -0.839   5.403   6.462  0.2211  0.6300  0.5036
   68SAPC    HX 5721  -0.855   5.303   6.416 -0.3020  0.9189  0.0453
   68SAPC    HY 5722  -0.927   5.465   6.437 -0.0653 -0.2423 -0.7552
   68SAPC   O31 5723  -0.833   5.374   6.603 -0.1340  0.0575  0.0748
   68SAPC   C31 5724  -0.945   5.341   6.664 -0.4920 -0.9200 -0.2673
   68SAPC   O32 5725  -1.059   5.327   6.619  0.3514 -0.3731  0.0661
   68SAPC   C32 5726  -0.896   5.308   6.807 -0.4520  0.5025  0.8718
   68SAPC   H2X 5727  -0.785   5.308   6.814 -0.4119  1.9628  0.6096
   68SAPC   H2Y 5728  -0.927   5.208   6.843  1.9316  0.4219  2.8835
   68SAPC   C23 5729  -0.825   5.737   6.703  0.8706  0.0994  0.1458
   68SAPC   H3R 5730  -0.740   5.706   6.768  0.4086 -0.2475  0.5977
   68SAPC   H3S 5731  -0.875   5.638   6.690  1.6076 -0.1697 -0.7245
   68SAPC   C24 5732  -0.918   5.839   6.774 -0.6216  0.2686 -0.1087
   68SAPC   H4R 5733  -0.973   5.785   6.855  2.3486 -2.6644  0.1628
   68SAPC   H4S 5734  -0.996   5.869   6.701  1.1737  3.1782 -0.9758
   68SAPC   C25 5735  -0.856   5.963   6.834  0.2748 -0.0185 -0.4472
   68SAPC   H5R 5736  -0.854   6.045   6.761  0.1308  0.6351  0.2697
   68SAPC   C26 5737  -0.836   5.999   6.959  0.5973  0.0525 -0.4607
   68SAPC   H6R 5738  -0.788   6.096   6.978  1.2293  0.3119 -2.9739
   68SAPC   C27 5739  -0.849   5.903   7.078  0.4179 -0.3419  0.2840
   68SAPC   H7R 5740  -0.767   5.913   7.152  1.1826 -3.0762 -0.0909
   68SAPC   H7S 5741  -0.825   5.799   7.051 -2.0470 -1.0999  0.7300
   68SAPC   C28 5742  -0.989   5.912   7.140 -0.4407  0.6087  0.1630
   68SAPC   H8R 5743  -1.070   5.907   7.066 -1.7179  1.0568  1.5068
   68SAPC   C29 5744  -1.009   5.936   7.273  0.0895 -0.3051 -0.3843
   68SAPC   H9R 5745  -1.111   5.952   7.311 -0.3065 -1.2589 -1.0000
   68SAPC  C210 5746  -0.899   5.961   7.382  0.1931 -0.0055 -0.7171
   68SAPC  H10R 5747  -0.798   5.929   7.349  0.2965 -1.4877  0.9003
   68SAPC  H10S 5748  -0.929   5.914   7.478 -0.7754  1.2303 -0.3935
   68SAPC  C211 5749  -0.879   6.112   7.403  0.4896 -0.0289 -0.4263
   68SAPC  H11R 5750  -0.897   6.173   7.313 -1.8203 -0.5563 -0.4021
   68SAPC  C212 5751  -0.850   6.178   7.519 -0.1182  0.0913 -0.2665
   68SAPC  H12R 5752  -0.834   6.287   7.515 -2.0671  0.4344  0.3270
   68SAPC  C213 5753  -0.824   6.112   7.655  0.8320  0.8489  0.3335
   68SAPC  H13R 5754  -0.927   6.108   7.696  0.4628  1.8074 -0.4354
   68SAPC  H13S 5755  -0.763   6.178   7.720 -0.3616  0.6505  1.7260
   68SAPC  C214 5756  -0.750   5.979   7.672 -0.2763  0.2859  0.1605
   68SAPC  H14R 5757  -0.706   5.942   7.579 -1.6341  0.3988 -0.5600
   68SAPC  C215 5758  -0.744   5.905   7.783  0.6034  0.8042  0.0132
   68SAPC  H15R 5759  -0.673   5.821   7.782  1.0084  1.1143  1.2069
   68SAPC  C216 5760  -0.799   5.940   7.915  0.2273  0.4259 -0.2903
   68SAPC  H16R 5761  -0.843   5.858   7.975 -1.9338  2.7956  1.6295
   68SAPC  H16S 5762  -0.882   6.014   7.914 -1.2755 -1.2065 -0.5006
   68SAPC  C217 5763  -0.690   6.016   7.990  0.1014 -0.1395 -0.0593
   68SAPC  H17R 5764  -0.673   6.112   7.937  1.6248 -1.4996 -2.1597
   68SAPC  H17S 5765  -0.595   5.959   7.995  1.1698  1.5581 -0.4343
   68SAPC  C218 5766  -0.735   6.064   8.126  0.2428  0.3371  0.0697
   68SAPC  H18R 5767  -0.768   5.972   8.178 -1.4250  1.0649  0.3918
   68SAPC  H18S 5768  -0.832   6.119   8.125  1.3919  2.5485  1.2492
   68SAPC  C219 5769  -0.639   6.136   8.219  0.2381  0.3086  0.1236
   68SAPC  H19R 5770  -0.565   6.069   8.267 -0.0783 -0.8973 -1.0256
   68SAPC  H19S 5771  -0.693   6.178   8.307  0.9111  1.3792  0.0441
   68SAPC  C220 5772  -0.560   6.253   8.157 -0.0718  0.1032 -0.3022
   68SAPC  H20R 5773  -0.625   6.335   8.120 -0.1749 -0.1674 -0.7310
   68SAPC  H20S 5774  -0.513   6.220   8.062  0.6822  4.7469 -1.7915
   68SAPC  H20T 5775  -0.479   6.288   8.224 -0.8093  0.6134  0.3374
   68SAPC   C33 5776  -0.951   5.418   6.896  0.3298 -0.6585  0.6709
   68SAPC   H3X 5777  -1.061   5.430   6.885  0.6148  0.4877 -1.4424
   68SAPC   H3Y 5778  -0.909   5.518   6.874 -0.0635  0.0253  2.7150
   68SAPC   C34 5779  -0.914   5.382   7.039 -1.1771  0.6062  0.3716
   68SAPC   H4X 5780  -0.804   5.385   7.046 -1.1903 -1.2448  3.8564
   68SAPC   H4Y 5781  -0.943   5.276   7.058 -0.2502  0.0837 -0.9886
   68SAPC   C35 5782  -0.968   5.478   7.138 -0.0585 -0.1478 -0.1236
   68SAPC   H5X 5783  -1.079   5.488   7.136 -0.5041 -3.8056 -1.7485
   68SAPC   H5Y 5784  -0.924   5.576   7.109  2.1669 -1.4906 -1.5487
   68SAPC   C36 5785  -0.917   5.451   7.278 -0.1830 -0.3046 -0.1939
   68SAPC   H6X 5786  -0.818   5.400   7.279 -1.0103 -1.9586  0.8101
   68SAPC   H6Y 5787  -0.979   5.371   7.324  0.4343 -0.7305 -0.0973
   68SAPC   C37 5788  -0.933   5.589   7.358 -0.5985  0.0150  0.3889
   68SAPC   H7X 5789  -1.036   5.622   7.332  0.0962  2.5236  0.5494
   68SAPC   H7Y 5790  -0.853   5.649   7.308  1.0544 -2.1363  0.2989
   68SAPC   C38 5791  -0.897   5.583   7.508 -0.6816 -0.1281  0.9844
   68SAPC   H8X 5792  -0.921   5.670   7.572 -2.5012 -0.4349  0.7771
   68SAPC   H8Y 5793  -0.786   5.580   7.503 -0.6527  1.4273 -1.7504
   68SAPC   C39 5794  -0.932   5.455   7.576 -0.0025  0.3177  0.4166
   68SAPC   H9X 5795  -0.873   5.375   7.527  2.7307  1.0227  2.3735
   68SAPC   H9Y 5796  -1.042   5.436   7.570  0.1089 -0.0382 -0.7985
   68SAPC  C310 5797  -0.882   5.454   7.721  0.4361  0.0594  0.1321
   68SAPC  H10X 5798  -0.909   5.549   7.772 -3.5374 -0.9105  0.1567
   68SAPC  H10Y 5799  -0.771   5.446   7.709  0.9520  5.3769 -1.0828
   68SAPC  C311 5800  -0.943   5.349   7.812  0.3256 -0.0440  0.4642
   68SAPC  H11X 5801  -0.928   5.250   7.762 -2.3235  1.3435 -3.6441
   68SAPC  H11Y 5802  -1.052   5.362   7.793  0.3944  0.1715  0.2095
   68SAPC  C312 5803  -0.906   5.360   7.956 -0.7028  0.1206 -0.2900
   68SAPC  H12X 5804  -0.943   5.454   8.001  0.1000  0.2721  0.0675
   68SAPC  H12Y 5805  -0.795   5.359   7.964 -0.7782  2.6726  2.6472
   68SAPC  C313 5806  -0.953   5.244   8.036 -0.2782 -0.0642  0.6276
   68SAPC  H13X 5807  -0.925   5.150   7.985 -1.0973  0.4701 -0.8536
   68SAPC  H13Y 5808  -1.064   5.250   8.036 -0.2877 -0.1736 -0.0288
   68SAPC  C314 5809  -0.907   5.247   8.189  0.7528 -0.1915 -0.7103
   68SAPC  H14X 5810  -0.939   5.344   8.233 -0.8293 -0.9380 -0.1294
   68SAPC  H14Y 5811  -0.797   5.235   8.182  0.7136 -1.4890  0.6604
   68SAPC  C315 5812  -0.959   5.128   8.272  0.4931 -0.2116  0.4195
   68SAPC  H15X 5813  -0.974   5.045   8.199 -2.1257  2.4268 -2.3556
   68SAPC  H15Y 5814  -1.060   5.153   8.311  0.6295 -0.0389  0.6681
   68SAPC  C316 5815  -0.862   5.097   8.391  0.5237  0.2859 -0.6635
   68SAPC  H16X 5816  -0.849   5.186   8.457  1.4392  1.1493 -1.9524
   68SAPC  H16Y 5817  -0.769   5.060   8.343  0.9307  1.1362 -0.5541
   68SAPC  C317 5818  -0.912   4.976   8.475  0.0058  0.0558 -0.3317
   68SAPC  H17X 5819  -0.881   4.879   8.433 -0.9760 -0.1868 -0.5247
   68SAPC  H17Y 5820  -1.023   4.969   8.474  0.0359 -0.6391  0.2439
   68SAPC  C318 5821  -0.863   4.982   8.621  0.2331 -0.9025  0.3512
   68SAPC  H18X 5822  -0.905   4.891   8.668  0.4571 -1.3138 -0.2290
   68SAPC  H18Y 5823  -0.888   5.072   8.681  0.9875 -0.0947 -0.5245
   68SAPC  H18Z 5824  -0.752   4.986   8.626  0.1533  2.5163  2.7397
   69SLPC     N 5825   3.019   6.252  11.510  0.5699  0.2770  1.0062
   69SLPC   C13 5826   2.943   6.357  11.602 -0.0108  0.5388  0.1252
   69SLPC  H13A 5827   2.881   6.428  11.549 -2.6107 -2.0823 -0.6707
   69SLPC  H13B 5828   2.880   6.309  11.676  0.1038  0.6218  0.2760
   69SLPC  H13C 5829   3.012   6.417  11.658 -1.9652  2.4934  0.5747
   69SLPC   C14 5830   2.921   6.188  11.420 -0.0602 -0.2906 -0.0146
   69SLPC  H14A 5831   2.970   6.116  11.355 -0.0909 -0.2150 -0.1213
   69SLPC  H14B 5832   2.848   6.133  11.477 -1.4195  2.5210  1.1238
   69SLPC  H14C 5833   2.877   6.260  11.353  2.7566 -0.7296 -2.5849
   69SLPC   C15 5834   3.076   6.145  11.595 -0.0515  0.4111 -0.3809
   69SLPC  H15A 5835   3.146   6.191  11.664 -0.0061  1.6913 -1.2498
   69SLPC  H15B 5836   2.992   6.095  11.641 -0.8523 -0.1327 -2.3475
   69SLPC  H15C 5837   3.129   6.077  11.531 -1.2231  0.2939 -1.2519
   69SLPC   C12 5838   3.132   6.320  11.431  0.1798 -0.4599  0.0682
   69SLPC  H12A 5839   3.200   6.246  11.393  0.1108  0.0549 -1.1054
   69SLPC  H12B 5840   3.174   6.394  11.497 -1.6468  0.9693 -0.2673
   69SLPC   C11 5841   3.098   6.396  11.295 -0.0136  0.7761  0.6567
   69SLPC  H11A 5842   3.175   6.472  11.272 -0.5281  0.9751 -0.4978
   69SLPC  H11B 5843   3.006   6.456  11.317 -1.2002 -0.1900 -1.4080
   69SLPC     P 5844   3.153   6.211  11.115  0.0109 -0.3031  0.8638
   69SLPC   O13 5845   3.282   6.216  11.173 -0.1090  0.3098 -0.8471
   69SLPC   O14 5846   3.087   6.080  11.094  0.2667 -0.5358 -0.2506
   69SLPC   O12 5847   3.059   6.304  11.191  0.1279  0.4576  0.0075
   69SLPC   O11 5848   3.162   6.291  10.981  0.0066  0.9230 -0.5897
   69SLPC    C1 5849   3.170   6.252  10.851  0.2819 -0.2775 -0.0432
   69SLPC    HA 5850   3.237   6.318  10.791  1.2143 -0.9821  0.2060
   69SLPC    HB 5851   3.222   6.154  10.842 -0.2377 -0.3603 -3.6176
   69SLPC    C2 5852   3.030   6.252  10.777  0.6452 -0.6632 -0.1299
   69SLPC    HS 5853   2.964   6.172  10.818 -1.6388  1.0063 -0.3255
   69SLPC   O21 5854   3.052   6.233  10.631 -0.2052 -0.1651  0.3280
   69SLPC   C21 5855   3.091   6.114  10.601  0.1599 -0.1443 -0.2031
   69SLPC   O22 5856   3.095   6.020  10.679 -0.2823  0.1878 -0.3239
   69SLPC   C22 5857   3.134   6.098  10.455  0.3672  0.0179  0.4771
   69SLPC   H2R 5858   3.114   6.198  10.411 -1.9500  0.0171  1.3768
   69SLPC   H2S 5859   3.244   6.096  10.469  0.2287  0.7122  1.7596
   69SLPC    C3 5860   2.953   6.383  10.798 -0.0909 -0.4861  0.6139
   69SLPC    HX 5861   3.014   6.466  10.755  1.5390 -1.0264  1.7752
   69SLPC    HY 5862   2.935   6.420  10.902  2.3841 -1.0264  1.3031
   69SLPC   O31 5863   2.820   6.364  10.744 -0.6835  0.3814  0.4960
   69SLPC   C31 5864   2.807   6.411  10.621 -0.1568 -0.1571  0.4232
   69SLPC   O32 5865   2.887   6.480  10.564 -0.6446  0.3184 -0.3777
   69SLPC   C32 5866   2.670   6.372  10.566  0.2507 -0.2499  0.2117
   69SLPC   H2X 5867   2.588   6.445  10.584  0.3339 -0.0914 -0.0486
   69SLPC   H2Y 5868   2.637   6.280  10.618  2.1445 -0.2841  1.4431
   69SLPC   C23 5869   3.087   5.974  10.385 -0.0605  0.1316 -0.2214
   69SLPC   H3R 5870   2.977   5.980  10.366  0.1618  0.8979 -1.3984
   69SLPC   H3S 5871   3.112   5.888  10.450 -1.5387  0.7918  1.2941
   69SLPC   C24 5872   3.156   5.933  10.250  0.4061  0.7403  0.0957
   69SLPC   H4R 5873   3.117   5.833  10.223 -0.5600 -0.0240  3.7558
   69SLPC   H4S 5874   3.265   5.917  10.265  0.1971 -2.2598 -0.9153
   69SLPC   C25 5875   3.130   6.032  10.135  0.0710  0.5696 -0.0288
   69SLPC   H5R 5876   3.158   6.131  10.177 -0.0461  0.3496  0.5824
   69SLPC   H5S 5877   3.024   6.018  10.104  0.6553 -0.8220 -1.5286
   69SLPC   C26 5878   3.213   5.997  10.013 -0.3690 -0.0144  0.0403
   69SLPC   H6R 5879   3.233   5.888  10.015 -0.4740 -0.0337  1.8685
   69SLPC   H6S 5880   3.312   6.048  10.020  1.0591 -2.7050  1.0313
   69SLPC   C27 5881   3.140   6.028   9.888  0.1039 -0.2891  0.3320
   69SLPC   H7R 5882   3.114   6.136   9.882 -1.0031 -0.4671  1.4276
   69SLPC   H7S 5883   3.049   5.964   9.880 -0.6624  0.9894 -2.4624
   69SLPC   C28 5884   3.221   5.981   9.763 -0.2909 -0.2121 -0.0775
   69SLPC   H8R 5885   3.231   5.871   9.771  1.6292 -0.0504  0.1266
   69SLPC   H8S 5886   3.323   6.022   9.778  0.8004 -1.7601 -2.6580
   69SLPC   C29 5887   3.149   6.008   9.639  0.3424  0.1933 -0.1098
   69SLPC   H9R 5888   3.042   6.034   9.642  0.7852  2.2272 -0.1490
   69SLPC  C210 5889   3.205   6.014   9.519  0.1526  0.4908  0.1875
   69SLPC  H10R 5890   3.139   6.039   9.435 -1.9673 -1.3253  1.1966
   69SLPC  C211 5891   3.348   5.998   9.482 -0.1715  0.0330  0.8477
   69SLPC  H11R 5892   3.353   5.917   9.405  0.2268  1.5923 -0.8489
   69SLPC  H11S 5893   3.416   5.955   9.558  0.3263  2.3236  1.7593
   69SLPC  C212 5894   3.393   6.129   9.421 -0.0439  0.5426  0.3566
   69SLPC  H12R 5895   3.426   6.208   9.490 -0.7181 -0.5203  1.9476
   69SLPC  C213 5896   3.400   6.152   9.286  0.5654 -0.6201 -0.3738
   69SLPC  H13R 5897   3.429   6.251   9.246 -0.6127 -1.1985 -2.8707
   69SLPC  C214 5898   3.366   6.070   9.168  0.3530  0.0399  0.0603
   69SLPC  H14R 5899   3.332   5.972   9.209  0.3724  0.4188  1.0210
   69SLPC  H14S 5900   3.457   6.057   9.105  1.9954  3.5139  1.4589
   69SLPC  C215 5901   3.251   6.127   9.076 -0.1522 -0.2020 -0.1423
   69SLPC  H15R 5902   3.293   6.215   9.023 -0.6337  0.2648  0.2315
   69SLPC  H15S 5903   3.175   6.149   9.155  2.8696 -0.8793  3.1844
   69SLPC  C216 5904   3.212   6.020   8.971 -0.1764 -0.4850  0.2937
   69SLPC  H16R 5905   3.295   5.998   8.901 -0.4925  3.2751 -1.5535
   69SLPC  H16S 5906   3.137   6.072   8.907 -0.2579 -0.9853 -0.0246
   69SLPC  C217 5907   3.151   5.888   9.025  0.2971 -0.0762 -0.4903
   69SLPC  H17R 5908   3.062   5.922   9.082 -1.5074 -1.9056 -2.0422
   69SLPC  H17S 5909   3.219   5.848   9.102 -0.4404  0.6562  0.5664
   69SLPC  C218 5910   3.104   5.784   8.928  0.7118 -0.3025  0.3261
   69SLPC  H18R 5911   3.008   5.806   8.875  0.6723 -0.1675  0.4540
   69SLPC  H18S 5912   3.090   5.683   8.972  0.2411  0.4111  1.8786
   69SLPC  H18T 5913   3.181   5.774   8.849 -0.8315  0.4329 -1.3486
   69SLPC   C33 5914   2.691   6.350  10.416  0.0392  0.3779  1.0754
   69SLPC   H3X 5915   2.729   6.438  10.359 -1.3845  0.9907  1.0345
   69SLPC   H3Y 5916   2.594   6.321  10.371  0.0703  1.9221 -0.1054
   69SLPC   C34 5917   2.788   6.240  10.371  1.2237 -0.2611 -0.9544
   69SLPC   H4X 5918   2.788   6.155  10.443 -1.0187 -0.1644 -0.7671
   69SLPC   H4Y 5919   2.883   6.297  10.377  2.0900 -1.8091  2.6923
   69SLPC   C35 5920   2.776   6.186  10.226  0.6783  0.5185  0.6370
   69SLPC   H5X 5921   2.691   6.115  10.219  1.5921 -0.4229 -1.9205
   69SLPC   H5Y 5922   2.864   6.120  10.207 -0.3957 -0.4147 -1.3300
   69SLPC   C36 5923   2.765   6.292  10.119 -0.4166 -0.6778  0.1232
   69SLPC   H6X 5924   2.825   6.381  10.149 -2.3122  1.1211 -1.1741
   69SLPC   H6Y 5925   2.659   6.323  10.122  0.2495  1.7906  0.9710
   69SLPC   C37 5926   2.812   6.237   9.985  0.2795  0.4145 -0.2694
   69SLPC   H7X 5927   2.757   6.146   9.954  1.8819 -0.9998  0.8732
   69SLPC   H7Y 5928   2.920   6.212   9.988 -0.1494 -1.5999 -0.2061
   69SLPC   C38 5929   2.801   6.336   9.867 -0.2786  0.8518 -0.0651
   69SLPC   H8X 5930   2.846   6.436   9.888 -2.3561  1.4905  1.6956
   69SLPC   H8Y 5931   2.697   6.363   9.836 -0.4621  0.3577  0.1238
   69SLPC   C39 5932   2.866   6.276   9.747 -0.5364 -0.4456 -0.0375
   69SLPC   H9X 5933   2.829   6.173   9.733  0.6817 -0.6695 -1.9337
   69SLPC   H9Y 5934   2.974   6.261   9.769 -0.7796 -1.3114  0.6256
   69SLPC  C310 5935   2.832   6.357   9.629 -0.1359 -0.0630 -0.0875
   69SLPC  H10X 5936   2.886   6.453   9.634  2.4942 -1.5237  1.3026
   69SLPC  H10Y 5937   2.723   6.376   9.622 -0.6253 -2.2046  0.7326
   69SLPC  C311 5938   2.885   6.282   9.512  0.1957  0.0651 -0.0416
   69SLPC  H11X 5939   2.853   6.176   9.517  0.1502  0.0375 -0.8073
   69SLPC  H11Y 5940   2.996   6.275   9.517  0.1681 -0.0478  0.4025
   69SLPC  C312 5941   2.860   6.350   9.372  0.5536  0.1398  0.0314
   69SLPC  H12X 5942   2.888   6.457   9.372  2.9991 -0.4281 -0.9215
   69SLPC  H12Y 5943   2.757   6.326   9.339 -0.1990  1.3343  1.3848
   69SLPC  C313 5944   2.949   6.279   9.267  0.2703 -0.1988 -0.6122
   69SLPC  H13X 5945   2.906   6.177   9.261 -1.8020  0.3859  2.1795
   69SLPC  H13Y 5946   3.049   6.257   9.309  0.0072  0.3703  0.3394
   69SLPC  C314 5947   2.954   6.346   9.130  0.7250  0.2502  1.0874
   69SLPC  H14X 5948   3.059   6.361   9.097  0.6762  0.6380  1.1078
   69SLPC  H14Y 5949   2.913   6.449   9.131 -0.4028 -0.1541 -0.1193
   69SLPC  C315 5950   2.884   6.260   9.018 -0.0439  0.2531 -0.8624
   69SLPC  H15X 5951   2.778   6.252   9.051  0.4630  0.7979  0.9864
   69SLPC  H15Y 5952   2.917   6.154   9.018 -2.0923 -0.4485 -2.0083
   69SLPC  C316 5953   2.909   6.329   8.891 -0.5012 -0.4855  0.1776
   69SLPC  H16X 5954   3.016   6.358   8.890 -0.7110  0.6094  2.4540
   69SLPC  H16Y 5955   2.850   6.423   8.882  0.3744  0.1681  0.9970
   69SLPC  C317 5956   2.869   6.244   8.763  0.5027 -0.0875 -0.8058
   69SLPC  H17X 5957   2.927   6.150   8.759 -1.1533 -1.2333  0.4092
   69SLPC  H17Y 5958   2.877   6.301   8.668  0.9044 -2.7886 -2.4856
   69SLPC  C318 5959   2.720   6.196   8.779  0.5949  0.0815 -0.0175
   69SLPC  H18X 5960   2.647   6.276   8.800 -2.2166 -1.7917 -1.9822
   69SLPC  H18Y 5961   2.717   6.121   8.860  2.7870  0.3201  0.3392
   69SLPC  H18Z 5962   2.691   6.143   8.685  1.6215  0.8399 -0.7865
   70SLPC     N 5963   1.307   2.996  10.673 -0.0245 -0.1658 -0.3833
   70SLPC   C13 5964   1.268   3.072  10.549 -0.5402 -0.2558 -0.1085
   70SLPC  H13A 5965   1.353   3.079  10.483 -0.1344 -3.3456 -0.0782
   70SLPC  H13B 5966   1.186   3.023  10.498  0.1832 -0.5574 -1.0175
   70SLPC  H13C 5967   1.244   3.174  10.574  0.6884  1.0530 -3.5930
   70SLPC   C14 5968   1.425   3.063  10.736  0.4163 -0.2796 -0.0356
   70SLPC  H14A 5969   1.459   3.012  10.826 -0.4813 -0.3619  0.2677
   70SLPC  H14B 5970   1.501   3.080  10.661 -0.0312 -0.9669 -0.6571
   70SLPC  H14C 5971   1.400   3.160  10.776 -1.4529 -1.3373  1.4942
   70SLPC   C15 5972   1.342   2.859  10.638  0.4320 -0.2692 -0.4658
   70SLPC  H15A 5973   1.408   2.849  10.553  0.9899  2.3421 -0.4246
   70SLPC  H15B 5974   1.390   2.813  10.723  2.7265 -0.9505 -2.0501
   70SLPC  H15C 5975   1.253   2.807  10.606 -0.0507  2.2502 -3.7650
   70SLPC   C12 5976   1.181   2.994  10.768 -0.2871 -0.3547  1.1002
   70SLPC  H12A 5977   1.148   3.097  10.764 -0.2270 -0.3757 -2.1808
   70SLPC  H12B 5978   1.219   2.966  10.865  2.2226 -0.8644  0.0546
   70SLPC   C11 5979   1.069   2.894  10.733  0.6778 -0.7042 -0.6218
   70SLPC  H11A 5980   1.059   2.902  10.622  2.8528 -0.3334 -0.8252
   70SLPC  H11B 5981   0.975   2.918  10.788  1.7750  1.5031  0.4084
   70SLPC     P 5982   1.011   2.636  10.737  0.0454 -0.1280  0.4199
   70SLPC   O13 5983   1.099   2.519  10.743  0.5279 -0.0587  0.3905
   70SLPC   O14 5984   0.901   2.640  10.835 -0.2980 -0.8326  0.4270
   70SLPC   O12 5985   1.111   2.763  10.764  0.1198  0.2520  0.0163
   70SLPC   O11 5986   0.966   2.658  10.591  1.2066 -0.3570 -0.1437
   70SLPC    C1 5987   1.056   2.616  10.490 -1.0333 -0.2808  0.0358
   70SLPC    HA 5988   1.163   2.628  10.518 -0.1824 -1.5034 -2.3953
   70SLPC    HB 5989   1.045   2.509  10.461 -2.5969  0.1071 -0.9222
   70SLPC    C2 5990   1.038   2.720  10.375  0.9017  0.0403 -0.4954
   70SLPC    HS 5991   1.032   2.818  10.426  1.8785  1.4099 -2.8596
   70SLPC   O21 5992   0.927   2.673  10.302 -0.1011 -0.6690  0.7183
   70SLPC   C21 5993   0.833   2.768  10.272 -0.2852  0.2488 -0.4390
   70SLPC   O22 5994   0.837   2.877  10.320  0.1662  0.3976  0.4685
   70SLPC   C22 5995   0.708   2.706  10.208  0.6390  0.6829  0.1254
   70SLPC   H2R 5996   0.734   2.603  10.178 -1.3195  0.4096 -0.8348
   70SLPC   H2S 5997   0.628   2.697  10.285 -0.1196 -2.1063 -0.8707
   70SLPC    C3 5998   1.164   2.730  10.289  0.5930 -0.2387 -0.4872
   70SLPC    HX 5999   1.188   2.627  10.255 -1.2212 -0.5728 -0.8513
   70SLPC    HY 6000   1.247   2.778  10.344 -0.7914  1.1526  0.4835
   70SLPC   O31 6001   1.138   2.797  10.162  0.4191 -0.0398  0.5052
   70SLPC   C31 6002   1.129   2.928  10.167  0.9385 -0.4727  0.5413
   70SLPC   O32 6003   1.160   2.997  10.265  0.2720  0.5072  0.3255
   70SLPC   C32 6004   1.058   2.971  10.037  0.0356 -0.2931 -0.7661
   70SLPC   H2X 6005   0.959   2.922  10.049 -1.2876  2.1228 -1.1695
   70SLPC   H2Y 6006   1.118   2.927   9.954  1.7965 -2.8583  1.6694
   70SLPC   C23 6007   0.655   2.784  10.082 -0.4084 -0.0773  0.2835
   70SLPC   H3R 6008   0.650   2.895  10.096  0.2171  0.1530 -1.1544
   70SLPC   H3S 6009   0.550   2.749  10.072  0.0193 -1.1531 -0.6152
   70SLPC   C24 6010   0.709   2.734   9.943 -0.0013  1.0758  0.5019
   70SLPC   H4R 6011   0.692   2.626   9.921  0.9082  1.2041 -0.9072
   70SLPC   H4S 6012   0.818   2.749   9.927  0.0473  2.7729  2.1297
   70SLPC   C25 6013   0.645   2.818   9.830  0.2176 -0.9118  0.5336
   70SLPC   H5R 6014   0.628   2.922   9.865 -0.9349 -0.9103 -0.0030
   70SLPC   H5S 6015   0.547   2.779   9.796  0.2227  0.0746 -0.6683
   70SLPC   C26 6016   0.725   2.802   9.696  0.3638  0.0440 -0.2016
   70SLPC   H6R 6017   0.710   2.701   9.653 -0.0552 -0.4020  0.9348
   70SLPC   H6S 6018   0.830   2.809   9.730 -0.2183 -2.6674  2.6145
   70SLPC   C27 6019   0.698   2.910   9.590  0.9390  1.1950 -0.1328
   70SLPC   H7R 6020   0.693   3.007   9.643  1.7605  1.7501 -1.0365
   70SLPC   H7S 6021   0.598   2.907   9.543  0.7537  2.3289  0.1761
   70SLPC   C28 6022   0.811   2.926   9.478 -0.0392  0.0721  0.0451
   70SLPC   H8R 6023   0.912   2.916   9.522  0.3231  1.1414 -0.4989
   70SLPC   H8S 6024   0.806   3.025   9.427  2.7342 -0.4069 -1.3407
   70SLPC   C29 6025   0.781   2.815   9.376 -0.2007 -0.7907 -0.2752
   70SLPC   H9R 6026   0.773   2.719   9.429 -3.2192 -0.7749 -0.5218
   70SLPC  C210 6027   0.769   2.814   9.241 -0.6273  0.2559  0.9318
   70SLPC  H10R 6028   0.778   2.715   9.193  0.9440  1.2796 -1.0020
   70SLPC  C211 6029   0.776   2.937   9.157 -0.1275 -0.0570  0.2438
   70SLPC  H11R 6030   0.763   3.025   9.223  0.2304 -0.7568  1.2692
   70SLPC  H11S 6031   0.689   2.934   9.088 -0.9234 -0.3333  1.2333
   70SLPC  C212 6032   0.906   2.954   9.081 -0.7903  0.5308 -0.1960
   70SLPC  H12R 6033   0.988   3.005   9.133 -0.7860 -0.0118  0.3476
   70SLPC  C213 6034   0.925   2.941   8.951 -0.2074  0.7803 -0.1793
   70SLPC  H13R 6035   1.028   2.935   8.912 -0.1523 -1.4013  0.1602
   70SLPC  C214 6036   0.816   2.912   8.853 -0.0211 -0.3258 -0.6241
   70SLPC  H14R 6037   0.724   2.964   8.887 -0.1424 -0.0936 -1.2918
   70SLPC  H14S 6038   0.807   2.801   8.854  0.0783 -0.3845  2.1325
   70SLPC  C215 6039   0.856   2.968   8.715 -0.8394  0.0615  0.1198
   70SLPC  H15R 6040   0.782   2.933   8.640  2.1897 -0.2215 -2.9819
   70SLPC  H15S 6041   0.944   2.917   8.669  0.7640  3.8542 -1.4203
   70SLPC  C216 6042   0.872   3.126   8.712 -0.2159  0.4216 -0.0925
   70SLPC  H16R 6043   0.980   3.148   8.726 -0.0661 -0.5481  0.3245
   70SLPC  H16S 6044   0.817   3.175   8.795  0.5517 -0.5530  1.0150
   70SLPC  C217 6045   0.837   3.193   8.571  0.3586  0.5757  0.3319
   70SLPC  H17R 6046   0.732   3.166   8.545  0.0222  1.5439  0.6437
   70SLPC  H17S 6047   0.907   3.148   8.497  1.6257  0.8936  1.3095
   70SLPC  C218 6048   0.848   3.341   8.578 -0.2661 -0.8357 -0.1157
   70SLPC  H18R 6049   0.945   3.370   8.623  0.3611  3.4208 -3.5295
   70SLPC  H18S 6050   0.769   3.377   8.648 -2.1214 -0.9047 -2.0634
   70SLPC  H18T 6051   0.832   3.393   8.481  1.4230  0.8496  0.4444
   70SLPC   C33 6052   1.026   3.122  10.022  0.6700 -0.5143 -0.3707
   70SLPC   H3X 6053   1.119   3.179  10.045  0.1771 -0.5089  1.8895
   70SLPC   H3Y 6054   0.947   3.149  10.096 -0.0294 -1.3611 -0.7891
   70SLPC   C34 6055   0.984   3.159   9.877  0.0638 -0.3276  0.5316
   70SLPC   H4X 6056   0.938   3.260   9.888  2.0144  0.5956  0.8114
   70SLPC   H4Y 6057   0.915   3.079   9.844 -0.5250  0.6733 -0.7684
   70SLPC   C35 6058   1.100   3.179   9.772  0.4408 -0.4558 -0.3218
   70SLPC   H5X 6059   1.166   3.089   9.774 -0.7448 -1.3556 -0.6592
   70SLPC   H5Y 6060   1.148   3.273   9.805 -1.8809  0.7584 -0.2331
   70SLPC   C36 6061   1.041   3.205   9.635 -0.2018  0.4191 -0.1393
   70SLPC   H6X 6062   0.995   3.305   9.619  0.5614  1.0311  1.3781
   70SLPC   H6Y 6063   0.967   3.127   9.605  0.9927 -0.6761 -0.2925
   70SLPC   C37 6064   1.154   3.207   9.530 -0.3739  0.0626 -0.7878
   70SLPC   H7X 6065   1.245   3.154   9.566  1.3415  2.9059 -0.6324
   70SLPC   H7Y 6066   1.188   3.310   9.508  0.2827 -0.2634 -1.3442
   70SLPC   C38 6067   1.101   3.145   9.396 -0.2646  0.5003 -0.6110
   70SLPC   H8X 6068   1.007   3.196   9.366 -1.1877 -0.0278  1.1924
   70SLPC   H8Y 6069   1.058   3.046   9.423 -1.1044  0.6190 -1.4566
   70SLPC   C39 6070   1.206   3.133   9.296  0.0426  0.0867 -0.4681
   70SLPC   H9X 6071   1.149   3.065   9.228 -1.6688  2.5808 -1.7133
   70SLPC   H9Y 6072   1.297   3.077   9.326  0.6385  1.0895 -0.3932
   70SLPC  C310 6073   1.231   3.266   9.226  0.1902 -0.7716  0.1676
   70SLPC  H10X 6074   1.281   3.340   9.292  2.7378 -2.6663  0.4871
   70SLPC  H10Y 6075   1.136   3.310   9.188  1.5546 -0.8216 -3.8206
   70SLPC  C311 6076   1.317   3.256   9.097  0.0224  1.4078 -0.8501
   70SLPC  H11X 6077   1.415   3.216   9.130 -0.2511 -0.4048 -2.0529
   70SLPC  H11Y 6078   1.339   3.356   9.053 -0.3514  1.2912 -1.3094
   70SLPC  C312 6079   1.261   3.161   8.989 -0.4877 -0.5494  0.1358
   70SLPC  H12X 6080   1.156   3.195   8.982 -0.8250 -0.6847  3.0548
   70SLPC  H12Y 6081   1.256   3.055   9.023 -0.5717 -0.2972  0.9408
   70SLPC  C313 6082   1.331   3.168   8.856  0.0187 -0.2996  0.4941
   70SLPC  H13X 6083   1.284   3.095   8.787  0.2897  0.5568 -0.6268
   70SLPC  H13Y 6084   1.438   3.138   8.861  0.7431  1.9900 -0.2870
   70SLPC  C314 6085   1.321   3.299   8.789 -0.3584 -0.1587  0.4317
   70SLPC  H14X 6086   1.396   3.362   8.843  0.1341 -1.9341  1.9248
   70SLPC  H14Y 6087   1.218   3.335   8.808 -0.2771  0.4200 -0.1699
   70SLPC  C315 6088   1.347   3.310   8.632 -0.0807  0.3340  0.3819
   70SLPC  H15X 6089   1.345   3.417   8.604  0.7285  0.5285  1.0201
   70SLPC  H15Y 6090   1.263   3.250   8.592 -0.2105  1.5199 -1.2049
   70SLPC  C316 6091   1.470   3.242   8.582  0.5329 -0.2834 -0.0312
   70SLPC  H16X 6092   1.467   3.217   8.474  1.7564 -0.1001 -0.1200
   70SLPC  H16Y 6093   1.484   3.141   8.627 -0.5593 -0.4541 -0.0394
   70SLPC  C317 6094   1.595   3.331   8.602 -0.8900 -0.2297  0.4376
   70SLPC  H17X 6095   1.591   3.346   8.712 -0.2427  4.7931  0.0354
   70SLPC  H17Y 6096   1.577   3.426   8.546 -1.6363 -0.7396 -0.2171
   70SLPC  C318 6097   1.723   3.260   8.565 -0.3183 -0.1262  0.0435
   70SLPC  H18X 6098   1.732   3.167   8.626 -0.0511  0.0207  0.2342
   70SLPC  H18Y 6099   1.812   3.317   8.600 -0.2661 -0.7445  0.9845
   70SLPC  H18Z 6100   1.721   3.239   8.456 -0.3018  3.2525 -0.6866
   71SLPC     N 6101   3.796   1.629  10.903 -0.0752 -0.4063  0.3170
   71SLPC   C13 6102   3.743   1.717  11.009 -0.6438  0.9549 -0.1250
   71SLPC  H13A 6103   3.635   1.719  11.015 -0.5696  1.0765  2.5586
   71SLPC  H13B 6104   3.791   1.677  11.098  1.8295  2.2807 -0.7622
   71SLPC  H13C 6105   3.782   1.814  10.983 -1.5585  1.8173  1.5440
   71SLPC   C14 6106   3.769   1.487  10.942 -0.9978  0.2859 -0.4582
   71SLPC  H14A 6107   3.661   1.476  10.940 -1.3556  2.4523  2.0801
   71SLPC  H14B 6108   3.798   1.412  10.869 -0.1188 -1.5172  1.6277
   71SLPC  H14C 6109   3.809   1.465  11.040  0.6710 -2.8408 -1.6840
   71SLPC   C15 6110   3.942   1.645  10.901 -0.5007 -0.2955  0.2887
   71SLPC  H15A 6111   3.970   1.748  10.886  0.1084 -0.3525  0.9910
   71SLPC  H15B 6112   3.987   1.604  10.990 -1.0931 -0.8994  0.3154
   71SLPC  H15C 6113   3.988   1.590  10.820 -0.2448  0.6634 -0.2430
   71SLPC   C12 6114   3.733   1.668  10.769 -0.5655  0.3521  0.5312
   71SLPC  H12A 6115   3.786   1.614  10.692 -0.2857 -0.5822  1.3512
   71SLPC  H12B 6116   3.755   1.770  10.742  0.9783  0.6504  2.5968
   71SLPC   C11 6117   3.576   1.656  10.759 -0.5540 -0.0965  0.0217
   71SLPC  H11A 6118   3.532   1.561  10.797 -1.1968  0.4398  0.6524
   71SLPC  H11B 6119   3.547   1.667  10.653 -0.1029  0.5174 -0.0446
   71SLPC     P 6120   3.508   1.907  10.790  0.2467 -0.1653  0.5361
   71SLPC   O13 6121   3.427   1.987  10.886 -0.0939 -0.2730  0.1838
   71SLPC   O14 6122   3.649   1.957  10.771  0.0721 -0.0225  0.1160
   71SLPC   O12 6123   3.509   1.754  10.839 -0.4196 -0.3583  0.0146
   71SLPC   O11 6124   3.441   1.903  10.646  0.1275 -0.3574  0.5749
   71SLPC    C1 6125   3.297   1.926  10.633 -0.2957 -0.0986  0.0881
   71SLPC    HA 6126   3.240   1.831  10.629 -0.4889  0.0472 -0.7748
   71SLPC    HB 6127   3.258   1.996  10.710  1.2210  0.6529  0.2091
   71SLPC    C2 6128   3.276   1.977  10.485  0.3650  0.2354  0.7607
   71SLPC    HS 6129   3.168   1.957  10.471  0.6536 -0.5208 -0.6015
   71SLPC   O21 6130   3.368   1.919  10.394 -0.4436 -0.0573 -0.2536
   71SLPC   C21 6131   3.342   1.799  10.365  0.1955  0.0228  0.3661
   71SLPC   O22 6132   3.251   1.731  10.405 -0.5781 -0.0049  0.4455
   71SLPC   C22 6133   3.440   1.744  10.259  0.2018 -0.1399 -0.4379
   71SLPC   H2R 6134   3.540   1.717  10.300  0.1537  0.2090 -0.0896
   71SLPC   H2S 6135   3.392   1.656  10.210 -0.4828 -1.2096  2.0015
   71SLPC    C3 6136   3.305   2.126  10.484  0.4591 -0.0342  0.3781
   71SLPC    HX 6137   3.412   2.128  10.514  0.2413 -4.4051  2.2711
   71SLPC    HY 6138   3.246   2.173  10.565  1.3713 -0.4553  1.3178
   71SLPC   O31 6139   3.273   2.194  10.360  0.1049  0.4062 -0.2840
   71SLPC   C31 6140   3.366   2.231  10.271  0.6520  0.3155  0.0297
   71SLPC   O32 6141   3.490   2.215  10.287  0.0894  0.1654  0.4349
   71SLPC   C32 6142   3.292   2.296  10.157  0.1171  0.2893 -0.2286
   71SLPC   H2X 6143   3.253   2.395  10.190 -1.0611 -0.4407  0.6854
   71SLPC   H2Y 6144   3.205   2.233  10.126 -0.2373  0.4844  0.3507
   71SLPC   C23 6145   3.467   1.855  10.162  0.8671 -0.6307  0.7458
   71SLPC   H3R 6146   3.546   1.919  10.207 -1.2141  1.0749  2.1629
   71SLPC   H3S 6147   3.391   1.933  10.143  1.2155 -1.0079 -2.9205
   71SLPC   C24 6148   3.512   1.797  10.026 -0.8573  0.3001 -0.5014
   71SLPC   H4R 6149   3.435   1.724   9.995 -0.6638  0.4279 -1.2895
   71SLPC   H4S 6150   3.604   1.738  10.045 -1.0759 -0.6142 -2.1427
   71SLPC   C25 6151   3.546   1.908   9.921 -0.3771 -0.0011  0.1632
   71SLPC   H5R 6152   3.632   1.957   9.971 -1.9610  1.6308  1.3833
   71SLPC   H5S 6153   3.458   1.975   9.925 -1.2073 -1.0151 -0.5999
   71SLPC   C26 6154   3.597   1.852   9.792  0.0593  0.3313  0.5600
   71SLPC   H6R 6155   3.519   1.782   9.754  0.5201  0.0863  0.0510
   71SLPC   H6S 6156   3.691   1.807   9.831  0.6216  1.6397  0.7525
   71SLPC   C27 6157   3.632   1.959   9.685  0.1595 -0.5143  0.3366
   71SLPC   H7R 6158   3.712   2.028   9.721  1.6880 -1.0189 -1.8671
   71SLPC   H7S 6159   3.541   2.021   9.671  0.2829 -0.5091 -0.4836
   71SLPC   C28 6160   3.691   1.899   9.556 -0.2383  0.2362  0.7740
   71SLPC   H8R 6161   3.775   1.833   9.584 -0.4306 -0.8987 -1.1100
   71SLPC   H8S 6162   3.738   1.982   9.499  1.0850 -1.3768 -0.5989
   71SLPC   C29 6163   3.588   1.825   9.474  0.2409  0.1064  0.7966
   71SLPC   H9R 6164   3.499   1.800   9.534 -0.8791 -0.8296 -1.1575
   71SLPC  C210 6165   3.588   1.797   9.343 -0.7683 -0.5877 -0.3412
   71SLPC  H10R 6166   3.506   1.745   9.291 -2.2358  1.3684 -0.1241
   71SLPC  C211 6167   3.709   1.833   9.256  0.6141  0.0817 -0.3074
   71SLPC  H11R 6168   3.762   1.918   9.303  1.5845 -0.7604  0.1495
   71SLPC  H11S 6169   3.655   1.872   9.166 -2.8076  1.2325  2.0185
   71SLPC  C212 6170   3.804   1.717   9.240  0.0888 -0.2881 -0.5488
   71SLPC  H12R 6171   3.869   1.688   9.324  0.3115 -0.9081 -0.9292
   71SLPC  C213 6172   3.818   1.651   9.123 -0.0689 -0.1166  0.1327
   71SLPC  H13R 6173   3.888   1.566   9.132 -0.7299 -0.5394  1.8208
   71SLPC  C214 6174   3.752   1.684   9.001 -0.2654  1.0620 -0.2274
   71SLPC  H14R 6175   3.644   1.706   9.015  0.0055  3.0681 -0.9776
   71SLPC  H14S 6176   3.753   1.594   8.935  2.0147  0.4524  0.5466
   71SLPC  C215 6177   3.811   1.793   8.912  0.0310  0.0670 -0.6581
   71SLPC  H15R 6178   3.897   1.752   8.855 -0.2837 -1.2193 -0.2258
   71SLPC  H15S 6179   3.831   1.875   8.984 -0.0588 -1.5877  1.3200
   71SLPC  C216 6180   3.707   1.843   8.812  0.3220  0.0451 -0.0305
   71SLPC  H16R 6181   3.608   1.847   8.862  0.0170  0.0630 -0.6369
   71SLPC  H16S 6182   3.696   1.771   8.728  2.4126  0.3190 -0.5978
   71SLPC  C217 6183   3.738   1.979   8.755 -0.1497  0.9001 -0.0413
   71SLPC  H17R 6184   3.745   2.039   8.848 -0.6208 -0.0952  0.6542
   71SLPC  H17S 6185   3.650   2.013   8.696 -0.5700 -1.2019 -0.7010
   71SLPC  C218 6186   3.861   1.982   8.669 -0.2855 -0.6869 -0.2044
   71SLPC  H18R 6187   3.841   1.923   8.577 -1.2931 -1.3109  0.3833
   71SLPC  H18S 6188   3.950   1.935   8.717  0.5560  1.0515  0.0038
   71SLPC  H18T 6189   3.885   2.086   8.639  2.2401 -1.3022 -0.5134
   71SLPC   C33 6190   3.386   2.297  10.035 -0.3777  0.5219 -0.3255
   71SLPC   H3X 6191   3.416   2.195  10.006 -0.3749  0.0601  1.2066
   71SLPC   H3Y 6192   3.473   2.364  10.053  2.2459 -2.4691 -0.9859
   71SLPC   C34 6193   3.299   2.351   9.919  0.3012  0.3076 -0.0812
   71SLPC   H4X 6194   3.247   2.446   9.945  0.4109  0.5355 -0.6706
   71SLPC   H4Y 6195   3.222   2.273   9.899  1.3496 -0.4818 -1.1990
   71SLPC   C35 6196   3.378   2.367   9.790 -0.0105 -0.1248 -0.0250
   71SLPC   H5X 6197   3.419   2.267   9.763 -0.5632 -0.7045  1.2080
   71SLPC   H5Y 6198   3.467   2.431   9.808  0.1771 -0.2053 -0.6299
   71SLPC   C36 6199   3.288   2.415   9.683  1.1987 -0.2044  0.1857
   71SLPC   H6X 6200   3.257   2.516   9.716  1.5146 -0.6956  2.1218
   71SLPC   H6Y 6201   3.190   2.363   9.678  1.4180 -0.5823 -0.2733
   71SLPC   C37 6202   3.353   2.433   9.546 -0.0341  0.1093  0.6528
   71SLPC   H7X 6203   3.407   2.339   9.522 -1.0180  0.3210 -3.0681
   71SLPC   H7Y 6204   3.430   2.509   9.570  0.8013  0.0346 -1.5932
   71SLPC   C38 6205   3.252   2.484   9.440  0.5647  0.0174 -0.4349
   71SLPC   H8X 6206   3.200   2.579   9.465 -1.2572  0.5281 -5.0856
   71SLPC   H8Y 6207   3.176   2.403   9.443 -0.3957  0.9146  2.0096
   71SLPC   C39 6208   3.316   2.511   9.304 -0.0997 -0.6611 -0.7646
   71SLPC   H9X 6209   3.360   2.415   9.268  0.6409 -0.0999 -1.3666
   71SLPC   H9Y 6210   3.393   2.591   9.302 -0.6412 -0.1156 -2.8716
   71SLPC  C310 6211   3.218   2.541   9.188 -0.7507  0.2737  0.2595
   71SLPC  H10X 6212   3.180   2.642   9.215  0.4786  0.2092  2.4378
   71SLPC  H10Y 6213   3.131   2.473   9.183 -0.6922  0.2599 -0.9385
   71SLPC  C311 6214   3.281   2.539   9.050  0.5322  0.3124  0.5916
   71SLPC  H11X 6215   3.318   2.438   9.020  1.1645  0.5762  0.4706
   71SLPC  H11Y 6216   3.369   2.607   9.047  1.1313 -0.4679 -2.6299
   71SLPC  C312 6217   3.175   2.573   8.949 -0.1872 -0.6883 -0.1546
   71SLPC  H12X 6218   3.116   2.661   8.982  2.7619  0.4522  2.6665
   71SLPC  H12Y 6219   3.103   2.489   8.952 -2.0790  0.8923  0.9622
   71SLPC  C313 6220   3.219   2.605   8.807  0.0330 -0.3427 -0.1571
   71SLPC  H13X 6221   3.263   2.707   8.806  2.9843 -1.4953  0.1323
   71SLPC  H13Y 6222   3.126   2.608   8.746 -0.3327  1.6276  0.4418
   71SLPC  C314 6223   3.313   2.499   8.752  0.0189  0.3382  0.8357
   71SLPC  H14X 6224   3.268   2.398   8.748  0.8535 -0.0059 -0.8082
   71SLPC  H14Y 6225   3.400   2.493   8.821  0.5404  0.0305  0.1563
   71SLPC  C315 6226   3.366   2.537   8.608  0.3805 -0.4076 -0.0034
   71SLPC  H15X 6227   3.465   2.487   8.595  0.3471 -0.9003  1.3665
   71SLPC  H15Y 6228   3.401   2.642   8.611  1.7567 -0.8622  1.0596
   71SLPC  C316 6229   3.273   2.506   8.492 -0.8743  0.1603  0.0453
   71SLPC  H16X 6230   3.175   2.543   8.528 -0.1105  0.9026  1.4371
   71SLPC  H16Y 6231   3.276   2.398   8.468 -0.4422  0.3000 -0.5881
   71SLPC  C317 6232   3.320   2.581   8.367 -0.0718 -0.5039 -0.3023
   71SLPC  H17X 6233   3.400   2.519   8.322  0.7711 -1.4983  2.3424
   71SLPC  H17Y 6234   3.378   2.669   8.404 -0.0987 -0.7837  0.4193
   71SLPC  C318 6235   3.202   2.615   8.268 -0.7085 -0.6505 -0.7706
   71SLPC  H18X 6236   3.120   2.677   8.312 -0.0304  0.1092 -0.5435
   71SLPC  H18Y 6237   3.168   2.522   8.219 -0.1752 -2.8982  2.7563
   71SLPC  H18Z 6238   3.227   2.678   8.180 -0.3219 -0.8693 -0.8150
   72SLPC     N 6239   5.023   2.270  10.933  0.0610  0.0532 -0.5470
   72SLPC   C13 6240   5.086   2.274  11.072 -0.6235 -0.2047  1.0050
   72SLPC  H13A 6241   5.098   2.374  11.111 -1.8434  0.0994  0.6344
   72SLPC  H13B 6242   5.012   2.233  11.139 -2.5010  0.1571 -0.7477
   72SLPC  H13C 6243   5.183   2.225  11.077 -0.7800 -0.5374  0.8007
   72SLPC   C14 6244   5.124   2.308  10.831 -0.2181  0.3292  0.5657
   72SLPC  H14A 6245   5.187   2.393  10.851  0.6895 -0.0189 -0.6888
   72SLPC  H14B 6246   5.200   2.232  10.844  0.4847  0.7521 -0.8495
   72SLPC  H14C 6247   5.093   2.299  10.728  2.2833 -0.0167 -0.2294
   72SLPC   C15 6248   4.905   2.374  10.928 -0.0135 -0.6841 -0.0382
   72SLPC  H15A 6249   4.935   2.459  10.989 -0.6675 -1.0637  0.8392
   72SLPC  H15B 6250   4.880   2.403  10.827 -2.9625  1.3927  1.1369
   72SLPC  H15C 6251   4.817   2.339  10.980  0.7596 -0.8914  1.1932
   72SLPC   C12 6252   4.959   2.137  10.900 -0.0608 -0.0984  0.2982
   72SLPC  H12A 6253   5.044   2.077  10.871  0.5836  0.7896  0.3510
   72SLPC  H12B 6254   4.898   2.147  10.811  1.0949  0.6584 -0.4272
   72SLPC   C11 6255   4.891   2.066  11.016 -0.0148 -0.3793  0.0044
   72SLPC  H11A 6256   4.961   2.030  11.095  1.3768  0.6333 -0.7259
   72SLPC  H11B 6257   4.855   1.970  10.972 -0.2815  0.6063 -2.0821
   72SLPC     P 6258   4.637   2.114  11.015  0.3365 -0.1448  0.1235
   72SLPC   O13 6259   4.607   1.970  11.024  0.1497  0.0711 -0.0448
   72SLPC   O14 6260   4.537   2.212  11.074  0.3639  0.3899 -0.2906
   72SLPC   O12 6261   4.784   2.134  11.078  0.4752 -0.0819  0.3158
   72SLPC   O11 6262   4.664   2.157  10.866 -0.5500 -0.3925  0.3176
   72SLPC    C1 6263   4.573   2.152  10.759  0.6762  0.1643  0.0964
   72SLPC    HA 6264   4.471   2.162  10.800  1.3811  2.7365  1.4196
   72SLPC    HB 6265   4.600   2.232  10.686  2.2438  1.6700  2.1871
   72SLPC    C2 6266   4.585   2.019  10.679 -0.1601  0.3006  0.1274
   72SLPC    HS 6267   4.523   1.947  10.736 -0.6846  0.2100 -0.5363
   72SLPC   O21 6268   4.726   1.987  10.672  0.1053 -0.3710  0.4230
   72SLPC   C21 6269   4.758   1.860  10.695  0.0875 -0.3140  0.2755
   72SLPC   O22 6270   4.685   1.769  10.725 -0.2758  0.1496  0.3686
   72SLPC   C22 6271   4.905   1.844  10.654  0.4649  0.4974  0.1883
   72SLPC   H2R 6272   4.959   1.934  10.619  1.9931 -1.2583 -2.2745
   72SLPC   H2S 6273   4.958   1.801  10.742 -2.1090 -0.6666  1.2940
   72SLPC    C3 6274   4.527   2.022  10.531  0.0736  0.2679 -0.4593
   72SLPC    HX 6275   4.419   2.046  10.539 -0.5583 -1.2140 -3.1398
   72SLPC    HY 6276   4.537   1.918  10.491 -2.3239  0.3742 -1.5338
   72SLPC   O31 6277   4.601   2.113  10.444 -0.0421 -0.1483 -0.2833
   72SLPC   C31 6278   4.519   2.172  10.355  0.2435 -0.3905  0.4716
   72SLPC   O32 6279   4.399   2.148  10.347 -0.2405  0.2541 -0.6811
   72SLPC   C32 6280   4.593   2.259  10.258  0.6742 -0.0435 -0.1458
   72SLPC   H2X 6281   4.698   2.224  10.251  0.0504 -2.0261 -0.1654
   72SLPC   H2Y 6282   4.602   2.364  10.295  0.3876  0.1525 -0.6175
   72SLPC   C23 6283   4.918   1.734  10.540  0.1578  0.2639  0.1309
   72SLPC   H3R 6284   4.817   1.700  10.509  0.4199 -1.0302  0.6529
   72SLPC   H3S 6285   4.967   1.647  10.589 -1.7772 -0.0125  1.7158
   72SLPC   C24 6286   4.998   1.772  10.414 -0.0426 -0.1039  0.1393
   72SLPC   H4R 6287   5.022   1.680  10.356 -0.2789 -0.2554  0.2819
   72SLPC   H4S 6288   5.096   1.819  10.437 -0.1078  1.7425 -2.7662
   72SLPC   C25 6289   4.930   1.872  10.318 -0.4637  1.1413  0.9205
   72SLPC   H5R 6290   4.902   1.960  10.380 -1.5207  1.1735  0.4158
   72SLPC   H5S 6291   4.833   1.835  10.277 -1.1036  1.0013  2.4546
   72SLPC   C26 6292   5.025   1.909  10.203  0.5823  0.1560  0.1814
   72SLPC   H6R 6293   5.128   1.886  10.237  0.3123  0.3789  1.1889
   72SLPC   H6S 6294   5.014   2.019  10.192 -1.2143  0.2803  2.4225
   72SLPC   C27 6295   4.989   1.832  10.068  0.1361  0.0647 -0.2188
   72SLPC   H7R 6296   4.881   1.851  10.048  0.1574  0.4244  0.0181
   72SLPC   H7S 6297   4.995   1.726  10.101  0.0614  0.4915  1.2218
   72SLPC   C28 6298   5.073   1.866   9.946  0.6278 -0.8991 -0.2476
   72SLPC   H8R 6299   5.054   1.787   9.870 -2.4641 -1.3191  0.7809
   72SLPC   H8S 6300   5.182   1.868   9.965  0.3712 -0.2866  1.3305
   72SLPC   C29 6301   5.037   2.005   9.895  0.2663 -0.3786  0.5792
   72SLPC   H9R 6302   4.987   2.068   9.971 -0.0272  1.7511 -1.2697
   72SLPC  C210 6303   5.039   2.038   9.761 -0.2740 -0.0469 -0.2247
   72SLPC  H10R 6304   5.014   2.145   9.749  0.7017  0.2427  0.2822
   72SLPC  C211 6305   5.091   1.950   9.661 -0.1801 -0.2648  0.2787
   72SLPC  H11R 6306   5.016   1.877   9.625  1.0845 -0.5388 -1.9812
   72SLPC  H11S 6307   5.181   1.898   9.702 -0.5005 -0.3483  0.8881
   72SLPC  C212 6308   5.124   2.017   9.534 -0.2047 -0.1003  0.8000
   72SLPC  H12R 6309   5.061   2.103   9.508  1.6002  1.5935  1.8472
   72SLPC  C213 6310   5.216   1.986   9.446  0.0425  0.1984 -0.6355
   72SLPC  H13R 6311   5.210   2.034   9.347 -1.3150 -0.0500 -0.7031
   72SLPC  C214 6312   5.305   1.865   9.444 -0.0964  0.0326 -0.0072
   72SLPC  H14R 6313   5.274   1.781   9.377  2.4770  0.2572 -1.6110
   72SLPC  H14S 6314   5.314   1.811   9.541 -1.4451  0.1779  0.2236
   72SLPC  C215 6315   5.447   1.902   9.396 -0.4963 -1.3497 -0.2496
   72SLPC  H15R 6316   5.512   1.814   9.414  1.0650  0.0888  1.5779
   72SLPC  H15S 6317   5.477   1.985   9.463 -0.0850 -2.4956  1.0401
   72SLPC  C216 6318   5.465   1.949   9.242  1.0683  0.4003  0.3924
   72SLPC  H16R 6319   5.425   2.052   9.233 -3.5227 -0.8704  2.8704
   72SLPC  H16S 6320   5.408   1.880   9.176  2.0959 -1.2597  1.1692
   72SLPC  C217 6321   5.601   1.940   9.186 -0.4178  0.6282  0.5705
   72SLPC  H17R 6322   5.641   1.837   9.190  0.9971  1.0347 -1.5560
   72SLPC  H17S 6323   5.674   2.007   9.237  0.2853 -0.1484  0.6029
   72SLPC  C218 6324   5.622   1.990   9.043 -0.0217 -0.0943 -0.4776
   72SLPC  H18R 6325   5.565   1.925   8.973 -1.3815 -0.4771  0.9159
   72SLPC  H18S 6326   5.726   1.992   9.006  0.0444 -1.2986 -0.4071
   72SLPC  H18T 6327   5.580   2.092   9.027  1.9954  0.7944 -0.4049
   72SLPC   C33 6328   4.527   2.264  10.120  0.7378  0.0221 -1.0197
   72SLPC   H3X 6329   4.585   2.339  10.062 -0.5601  1.3478 -0.6471
   72SLPC   H3Y 6330   4.421   2.296  10.123  1.1727  1.3965  0.6580
   72SLPC   C34 6331   4.553   2.129  10.043  0.4995 -0.4597  0.4294
   72SLPC   H4X 6332   4.470   2.067  10.082  0.7117 -1.0021  0.0387
   72SLPC   H4Y 6333   4.650   2.079  10.067 -1.4129 -4.7294  0.1770
   72SLPC   C35 6334   4.531   2.149   9.893  0.0527 -0.1693 -0.4275
   72SLPC   H5X 6335   4.433   2.201   9.894  1.2263  2.1396  1.2511
   72SLPC   H5Y 6336   4.526   2.046   9.851  2.7868 -0.8289  0.6455
   72SLPC   C36 6337   4.630   2.239   9.819  0.7193 -0.5365 -0.0081
   72SLPC   H6X 6338   4.732   2.206   9.849  0.4849 -1.3466 -0.0785
   72SLPC   H6Y 6339   4.617   2.347   9.844 -0.7672 -0.3742 -1.3642
   72SLPC   C37 6340   4.623   2.223   9.668 -0.3109  0.4501 -0.2112
   72SLPC   H7X 6341   4.705   2.281   9.621  0.6006 -0.7554 -0.1701
   72SLPC   H7Y 6342   4.519   2.249   9.639 -0.4643 -0.9273 -1.0077
   72SLPC   C38 6343   4.651   2.081   9.621  0.1986  0.2337  0.2486
   72SLPC   H8X 6344   4.578   2.007   9.661  0.4083 -1.0607 -1.6701
   72SLPC   H8Y 6345   4.746   2.048   9.667  0.8472  1.9028  0.1651
   72SLPC   C39 6346   4.677   2.069   9.469 -0.0812 -0.1133  0.4125
   72SLPC   H9X 6347   4.779   2.108   9.447  0.6517 -1.1492  1.8225
   72SLPC   H9Y 6348   4.604   2.134   9.416  1.6854 -0.4453 -2.6567
   72SLPC  C310 6349   4.690   1.928   9.417 -0.2532  0.2474 -0.1262
   72SLPC  H10X 6350   4.596   1.871   9.432  0.0277 -0.4613 -0.9996
   72SLPC  H10Y 6351   4.755   1.875   9.490 -0.5191 -0.1015 -0.1439
   72SLPC  C311 6352   4.738   1.912   9.270 -0.4062  0.6412  0.0805
   72SLPC  H11X 6353   4.677   1.962   9.192  1.1821  1.3995 -0.7474
   72SLPC  H11Y 6354   4.732   1.805   9.239 -0.8575  0.5495  0.4782
   72SLPC  C312 6355   4.880   1.958   9.242 -0.3786 -0.1558  0.6149
   72SLPC  H12X 6356   4.921   1.975   9.344 -1.0972  2.0811  0.6034
   72SLPC  H12Y 6357   4.868   2.055   9.188  1.2233 -1.1031 -1.5731
   72SLPC  C313 6358   4.959   1.864   9.152  0.0679  0.2751 -0.6469
   72SLPC  H13X 6359   4.946   1.760   9.190  0.7000 -0.4466 -2.2915
   72SLPC  H13Y 6360   5.067   1.890   9.163  0.1630  0.6336 -2.2161
   72SLPC  C314 6361   4.903   1.872   9.013  0.1283 -0.3868  0.2857
   72SLPC  H14X 6362   4.919   1.972   8.967  0.2361  0.0216  1.1744
   72SLPC  H14Y 6363   4.794   1.848   9.015  0.3635 -1.5237  0.1205
   72SLPC  C315 6364   4.952   1.759   8.922 -0.5950 -0.1298 -0.4326
   72SLPC  H15X 6365   4.914   1.660   8.954  0.6614 -0.5355 -0.1063
   72SLPC  H15Y 6366   5.063   1.765   8.928 -0.6130 -0.1273 -0.0786
   72SLPC  C316 6367   4.917   1.786   8.776 -0.9101 -1.0108  0.1949
   72SLPC  H16X 6368   4.974   1.877   8.749 -3.0950 -0.1908 -2.0132
   72SLPC  H16Y 6369   4.809   1.814   8.777 -1.3382 -2.5528  0.0389
   72SLPC  C317 6370   4.958   1.664   8.688  0.2325 -0.3314  0.3300
   72SLPC  H17X 6371   4.913   1.570   8.727 -0.8091 -0.9723 -2.2222
   72SLPC  H17Y 6372   5.067   1.643   8.686 -0.0079 -1.8012  0.8927
   72SLPC  C318 6373   4.903   1.681   8.545  0.8420 -0.1913  0.1006
   72SLPC  H18X 6374   4.800   1.642   8.539  0.8689 -0.1393 -0.8699
   72SLPC  H18Y 6375   4.958   1.628   8.464  1.4436  1.2924 -0.5013
   72SLPC  H18Z 6376   4.906   1.789   8.520 -1.6413 -0.3529 -1.1170
   73SLPC     N 6377   5.078   0.424  10.740  0.0404 -0.2421 -0.0820
   73SLPC   C13 6378   5.197   0.468  10.825  0.0058 -0.4367 -0.2162
   73SLPC  H13A 6379   5.214   0.406  10.912  0.5440 -0.1437 -0.1071
   73SLPC  H13B 6380   5.283   0.464  10.760 -0.7929 -1.5504 -1.2457
   73SLPC  H13C 6381   5.196   0.574  10.848  1.8646 -0.5948  0.8016
   73SLPC   C14 6382   5.088   0.274  10.723  0.2452 -0.0406  0.5151
   73SLPC  H14A 6383   5.086   0.234  10.824  2.4491  1.4883  1.2503
   73SLPC  H14B 6384   5.002   0.223  10.682  0.3826  0.5205 -0.5076
   73SLPC  H14C 6385   5.179   0.245  10.673  1.8319  3.5816  0.9631
   73SLPC   C15 6386   5.070   0.487  10.607 -0.5813 -1.8315  0.1687
   73SLPC  H15A 6387   5.062   0.594  10.608  1.4865 -1.6391  0.0353
   73SLPC  H15B 6388   5.150   0.466  10.538 -0.7625 -0.5965 -0.4549
   73SLPC  H15C 6389   4.971   0.469  10.566 -0.6690 -1.3481  0.1652
   73SLPC   C12 6390   4.951   0.459  10.818  0.6338  0.4970  0.0439
   73SLPC  H12A 6391   4.971   0.562  10.847  2.7495  0.7996 -2.1715
   73SLPC  H12B 6392   4.946   0.405  10.911 -0.3999 -2.8513 -1.8215
   73SLPC   C11 6393   4.817   0.435  10.750  0.1940 -0.3831  0.6141
   73SLPC  H11A 6394   4.809   0.484  10.651  0.4779 -1.7282 -0.0931
   73SLPC  H11B 6395   4.741   0.479  10.819  1.5702  1.9236  0.7586
   73SLPC     P 6396   4.750   0.207  10.850  0.0190 -0.0419  0.2638
   73SLPC   O13 6397   4.740   0.062  10.818  0.3517  0.0291 -0.2786
   73SLPC   O14 6398   4.846   0.240  10.961  0.1968 -0.1183  0.1842
   73SLPC   O12 6399   4.796   0.296  10.728  0.8736 -0.1311  0.4320
   73SLPC   O11 6400   4.609   0.273  10.886 -0.9661  0.2857  0.7639
   73SLPC    C1 6401   4.489   0.221  10.829 -0.1615  0.0495  0.1487
   73SLPC    HA 6402   4.483   0.110  10.828  1.1517 -0.0423 -1.8249
   73SLPC    HB 6403   4.406   0.267  10.887  1.3517  1.0356  1.6188
   73SLPC    C2 6404   4.470   0.250  10.684 -0.0063 -0.2024  0.3591
   73SLPC    HS 6405   4.572   0.230  10.644  0.3363  0.5101  0.8570
   73SLPC   O21 6406   4.448   0.394  10.666  0.0578 -0.0824  0.4872
   73SLPC   C21 6407   4.489   0.452  10.554 -0.3314  0.5264  0.3187
   73SLPC   O22 6408   4.548   0.390  10.465 -0.0264 -0.2408  0.0456
   73SLPC   C22 6409   4.447   0.593  10.552  0.3195  0.6268  0.8268
   73SLPC   H2R 6410   4.369   0.618  10.628 -0.4197 -0.9813  0.6423
   73SLPC   H2S 6411   4.533   0.657  10.579 -0.9085  2.3649  0.8143
   73SLPC    C3 6412   4.366   0.165  10.616 -0.3659  0.2428  0.3459
   73SLPC    HX 6413   4.271   0.220  10.634 -0.2890  0.4409  0.1467
   73SLPC    HY 6414   4.358   0.064  10.661 -0.4269  0.1463  0.1189
   73SLPC   O31 6415   4.383   0.155  10.473  0.2315  0.2354  0.0659
   73SLPC   C31 6416   4.490   0.100  10.423 -0.2715  0.4137 -0.6162
   73SLPC   O32 6417   4.586   0.045  10.483  0.0538 -0.3279  0.1715
   73SLPC   C32 6418   4.484   0.119  10.271 -0.2703  0.4440  0.3247
   73SLPC   H2X 6419   4.457   0.221  10.235 -0.5518 -0.3480 -1.8807
   73SLPC   H2Y 6420   4.406   0.048  10.235 -0.9755  0.2339  2.1757
   73SLPC   C23 6421   4.393   0.635  10.412  0.6437 -0.2883 -0.8149
   73SLPC   H3R 6422   4.471   0.625  10.333 -0.6359  0.4310 -2.2157
   73SLPC   H3S 6423   4.372   0.743  10.427 -4.6055 -1.1962  0.5560
   73SLPC   C24 6424   4.265   0.559  10.376 -0.0874 -0.3461 -0.1582
   73SLPC   H4R 6425   4.195   0.562  10.462 -0.5109  1.3972 -0.5199
   73SLPC   H4S 6426   4.300   0.456  10.352 -1.8220 -1.1423  0.5167
   73SLPC   C25 6427   4.193   0.612  10.255 -0.0349  0.5414  0.4854
   73SLPC   H5R 6428   4.163   0.716  10.282 -1.7143  0.1158  0.3770
   73SLPC   H5S 6429   4.098   0.555  10.245 -0.1645  0.6866  0.8550
   73SLPC   C26 6430   4.273   0.607  10.117 -0.4983 -0.1743  0.3089
   73SLPC   H6R 6431   4.309   0.502  10.105 -1.3229 -0.8009  2.6124
   73SLPC   H6S 6432   4.361   0.674  10.126 -0.5609  0.2972 -2.0159
   73SLPC   C27 6433   4.179   0.641   9.999 -0.0836 -0.4494 -0.4229
   73SLPC   H7R 6434   4.138   0.744  10.010 -2.2469 -1.3124  0.0922
   73SLPC   H7S 6435   4.090   0.575  10.001 -2.4212  2.5079  0.1483
   73SLPC   C28 6436   4.252   0.631   9.862  0.5940  0.0715  0.2441
   73SLPC   H8R 6437   4.185   0.673   9.784  1.8851 -0.9178 -1.4609
   73SLPC   H8S 6438   4.262   0.523   9.837  0.2262  0.9116 -4.1920
   73SLPC   C29 6439   4.387   0.688   9.834 -0.4697 -0.5141  0.3571
   73SLPC   H9R 6440   4.456   0.678   9.919  0.3903 -1.5177 -0.4256
   73SLPC  C210 6441   4.428   0.748   9.722 -0.0291 -0.4619  0.1001
   73SLPC  H10R 6442   4.525   0.801   9.723 -1.5280  2.5044  0.5977
   73SLPC  C211 6443   4.345   0.776   9.601 -0.6807  0.0602  0.6581
   73SLPC  H11R 6444   4.317   0.884   9.601 -1.4407 -0.1311  1.1349
   73SLPC  H11S 6445   4.246   0.729   9.615 -1.6803  1.2056 -2.0295
   73SLPC  C212 6446   4.413   0.725   9.475 -0.1999  0.0734  0.4538
   73SLPC  H12R 6447   4.431   0.618   9.493 -1.7835 -0.3585 -0.3278
   73SLPC  C213 6448   4.426   0.791   9.359  0.5036 -0.1235  0.5860
   73SLPC  H13R 6449   4.492   0.755   9.279 -1.4907 -1.1792 -0.6681
   73SLPC  C214 6450   4.364   0.919   9.311 -0.1702 -0.0191 -0.1450
   73SLPC  H14R 6451   4.441   0.987   9.269 -1.7896  1.5195 -0.7744
   73SLPC  H14S 6452   4.302   0.972   9.386 -0.2933 -0.8280  0.3376
   73SLPC  C215 6453   4.278   0.893   9.188  0.1232  0.3892  0.1800
   73SLPC  H15R 6454   4.223   0.988   9.175 -1.0923 -0.3958 -0.5367
   73SLPC  H15S 6455   4.198   0.828   9.230  1.0698 -0.5834  0.5501
   73SLPC  C216 6456   4.343   0.845   9.053  0.1300 -0.0437 -0.2337
   73SLPC  H16R 6457   4.399   0.755   9.086  2.0330  0.1423 -2.6323
   73SLPC  H16S 6458   4.399   0.930   9.009  0.7170 -1.3585 -2.1549
   73SLPC  C217 6459   4.237   0.816   8.949  0.9213 -0.0548  0.6296
   73SLPC  H17R 6460   4.185   0.909   8.920 -0.1571 -1.0931 -0.8558
   73SLPC  H17S 6461   4.158   0.747   8.986  0.5222 -1.8656 -3.1430
   73SLPC  C218 6462   4.288   0.752   8.820  0.5954 -0.3908  0.1514
   73SLPC  H18R 6463   4.352   0.823   8.763  2.2908 -0.1696  2.1875
   73SLPC  H18S 6464   4.205   0.727   8.751 -0.4389  0.2528  1.1178
   73SLPC  H18T 6465   4.352   0.665   8.847  1.5001  0.9413  2.6697
   73SLPC   C33 6466   4.610   0.074  10.199 -0.1984  0.5995  0.1491
   73SLPC   H3X 6467   4.627  -0.036  10.203  0.4398  0.7151  0.7074
   73SLPC   H3Y 6468   4.693   0.126  10.251 -1.2862  1.7423  0.8182
   73SLPC   C34 6469   4.614   0.109  10.047  0.1279 -0.1021 -0.7224
   73SLPC   H4X 6470   4.555   0.041   9.982 -2.0672 -0.2657  1.2668
   73SLPC   H4Y 6471   4.718   0.104  10.009  0.9664  0.4876  1.3300
   73SLPC   C35 6472   4.583   0.256  10.020  0.2396 -0.7422 -0.3637
   73SLPC   H5X 6473   4.621   0.310  10.110 -1.0658 -0.1966 -0.1127
   73SLPC   H5Y 6474   4.473   0.273  10.016  0.3070 -0.5041 -1.9901
   73SLPC   C36 6475   4.643   0.323   9.895 -0.7509  0.3391  0.2181
   73SLPC   H6X 6476   4.751   0.296   9.895 -0.8724 -0.1784  1.0540
   73SLPC   H6Y 6477   4.628   0.432   9.905  0.3600  0.6706 -1.2065
   73SLPC   C37 6478   4.594   0.275   9.759  0.6985  0.0265  0.2159
   73SLPC   H7X 6479   4.599   0.165   9.773 -0.5645 -0.0497  0.1350
   73SLPC   H7Y 6480   4.647   0.322   9.672 -0.5873  0.5479 -0.3075
   73SLPC   C38 6481   4.446   0.308   9.725 -0.2606 -0.4670  0.1763
   73SLPC   H8X 6482   4.431   0.415   9.749  0.7234 -0.6444  1.8012
   73SLPC   H8Y 6483   4.379   0.238   9.779 -0.7025 -1.5033 -1.6414
   73SLPC   C39 6484   4.417   0.294   9.579 -0.7405 -0.0358 -0.7534
   73SLPC   H9X 6485   4.429   0.191   9.540 -0.3645  1.1233 -3.9510
   73SLPC   H9Y 6486   4.483   0.364   9.524 -1.0598  0.3512 -0.6492
   73SLPC  C310 6487   4.271   0.340   9.550 -0.5399  0.1529  0.0514
   73SLPC  H10X 6488   4.259   0.438   9.600  0.9576  0.7102 -0.6266
   73SLPC  H10Y 6489   4.193   0.268   9.583 -2.0946  1.8384  0.2503
   73SLPC  C311 6490   4.245   0.354   9.401 -0.4517 -0.0880  0.2128
   73SLPC  H11X 6491   4.270   0.250   9.369 -0.2907  0.5232 -1.8102
   73SLPC  H11Y 6492   4.320   0.423   9.356 -0.4534 -0.9246 -1.1530
   73SLPC  C312 6493   4.101   0.385   9.369  0.3182  0.6217 -0.0150
   73SLPC  H12X 6494   4.058   0.469   9.428 -0.1017  0.6085 -0.2940
   73SLPC  H12Y 6495   4.044   0.290   9.382 -1.9800  1.3156 -3.4695
   73SLPC  C313 6496   4.081   0.433   9.223  0.1126 -0.0515  0.3240
   73SLPC  H13X 6497   4.124   0.339   9.181  0.3102 -0.3314  1.1346
   73SLPC  H13Y 6498   4.148   0.517   9.194  1.0533 -0.8285  0.1620
   73SLPC  C314 6499   3.934   0.450   9.179  0.0275 -0.2585 -0.3098
   73SLPC  H14X 6500   3.889   0.534   9.235 -1.5234 -0.7937 -0.6975
   73SLPC  H14Y 6501   3.894   0.354   9.219 -3.1041  1.0306 -0.0942
   73SLPC  C315 6502   3.906   0.450   9.036 -0.4829 -0.6912  0.1466
   73SLPC  H15X 6503   3.948   0.366   8.979 -2.7048 -2.2704  0.7067
   73SLPC  H15Y 6504   3.942   0.545   8.990  1.0401 -1.7163 -0.8442
   73SLPC  C316 6505   3.754   0.461   9.014  0.0622  0.3147  0.0138
   73SLPC  H16X 6506   3.719   0.545   9.078 -1.4243  0.0861 -0.4640
   73SLPC  H16Y 6507   3.704   0.368   9.048 -1.6754  0.8047 -1.0924
   73SLPC  C317 6508   3.718   0.497   8.868  0.2428 -0.0498 -0.0938
   73SLPC  H17X 6509   3.746   0.424   8.789 -0.6918  1.4590 -1.8987
   73SLPC  H17Y 6510   3.765   0.591   8.833  1.0357  0.4087  2.0704
   73SLPC  C318 6511   3.570   0.532   8.846 -0.9767  0.0486  0.3616
   73SLPC  H18X 6512   3.529   0.594   8.929 -2.8724 -0.1119 -0.4100
   73SLPC  H18Y 6513   3.504   0.445   8.828  0.6539 -1.7798  2.5909
   73SLPC  H18Z 6514   3.559   0.585   8.749  1.7376 -0.3626 -0.2465
   74SLPC     N 6515   6.465   1.387  10.745  0.6216 -0.7128  0.3690
   74SLPC   C13 6516   6.441   1.348  10.603  0.6273  0.3817 -0.8318
   74SLPC  H13A 6517   6.373   1.413  10.551  0.9328  0.6756 -0.8612
   74SLPC  H13B 6518   6.532   1.355  10.546 -0.2677  1.7167 -2.1543
   74SLPC  H13C 6519   6.405   1.246  10.596  2.3729 -0.4267  0.9747
   74SLPC   C14 6520   6.328   1.387  10.814 -0.4230 -0.0941  0.4661
   74SLPC  H14A 6521   6.340   1.371  10.920 -2.1118 -0.9056  0.5749
   74SLPC  H14B 6522   6.275   1.476  10.786  1.4487  0.9644  0.1560
   74SLPC  H14C 6523   6.268   1.302  10.784  0.1459  0.1236 -1.3877
   74SLPC   C15 6524   6.521   1.531  10.752  0.5189  0.8437 -0.8593
   74SLPC  H15A 6525   6.451   1.600  10.708  0.9565  0.3038 -2.4532
   74SLPC  H15B 6526   6.533   1.553  10.857  0.0093 -2.1095 -0.1052
   74SLPC  H15C 6527   6.615   1.524  10.699  1.0280 -0.8801  0.2022
   74SLPC   C12 6528   6.565   1.296  10.808  0.5507  0.5410  0.0810
   74SLPC  H12A 6529   6.512   1.204  10.827  0.9153  0.5684  1.2971
   74SLPC  H12B 6530   6.598   1.336  10.902  0.7969  1.2851 -0.3156
   74SLPC   C11 6531   6.692   1.273  10.729  0.1952 -0.4520 -0.3243
   74SLPC  H11A 6532   6.772   1.249  10.802  0.1308 -0.2067 -0.1721
   74SLPC  H11B 6533   6.731   1.368  10.687  4.0708 -2.1300 -0.9594
   74SLPC     P 6534   6.818   1.125  10.554 -0.1129  0.2851 -0.1421
   74SLPC   O13 6535   6.932   1.102  10.648  0.2374 -0.3576 -0.0295
   74SLPC   O14 6536   6.772   1.002  10.483  0.2698  0.5772  0.1360
   74SLPC   O12 6537   6.691   1.170  10.629  0.2720  0.4785  0.3541
   74SLPC   O11 6538   6.860   1.239  10.458 -0.7169 -0.0897 -0.4062
   74SLPC    C1 6539   6.772   1.338  10.393 -0.1750  0.4278 -1.1224
   74SLPC    HA 6540   6.691   1.283  10.339 -0.6395  0.3821 -0.3974
   74SLPC    HB 6541   6.734   1.404  10.473  0.6655  0.4241 -0.7136
   74SLPC    C2 6542   6.846   1.420  10.288  0.0192  0.7706  0.2492
   74SLPC    HS 6543   6.775   1.489  10.238  0.6453  3.0980  2.3357
   74SLPC   O21 6544   6.911   1.335  10.193 -0.2410  0.2861 -0.0888
   74SLPC   C21 6545   6.835   1.291  10.085 -0.1901  0.1852  0.2250
   74SLPC   O22 6546   6.721   1.324  10.070 -0.1392 -0.5764 -0.1892
   74SLPC   C22 6547   6.916   1.196   9.996 -0.8540  0.4748  0.7837
   74SLPC   H2R 6548   6.908   1.102  10.054 -0.5192  1.1361  1.9354
   74SLPC   H2S 6549   6.852   1.167   9.910  0.5195 -0.6211  0.1017
   74SLPC    C3 6550   6.945   1.513  10.369 -0.3503 -0.0595  0.3396
   74SLPC    HX 6551   7.011   1.439  10.421  0.0074  1.3282  1.9780
   74SLPC    HY 6552   6.899   1.570  10.453  1.2396 -0.9889  1.9317
   74SLPC   O31 6553   7.022   1.595  10.286  0.1297  0.1007  0.4709
   74SLPC   C31 6554   6.974   1.707  10.225  0.1449  0.3723 -0.6663
   74SLPC   O32 6555   6.873   1.757  10.256  0.2204  0.4540  0.0872
   74SLPC   C32 6556   7.071   1.762  10.120 -0.4419 -0.7404 -0.2377
   74SLPC   H2X 6557   7.072   1.697  10.031  3.3340  0.0517 -0.9556
   74SLPC   H2Y 6558   7.172   1.755  10.166 -1.1664 -0.0794  1.5534
   74SLPC   C23 6559   7.057   1.247   9.956 -0.5741 -0.0454 -0.4779
   74SLPC   H3R 6560   7.114   1.153   9.948 -4.0341 -2.2585 -1.3281
   74SLPC   H3S 6561   7.093   1.301  10.047 -1.7545  0.5374 -0.3350
   74SLPC   C24 6562   7.058   1.322   9.824  0.0658  0.3167  0.0169
   74SLPC   H4R 6563   7.018   1.259   9.742  0.2154  0.6444 -0.3124
   74SLPC   H4S 6564   7.161   1.357   9.804 -0.0026  0.1397 -0.6740
   74SLPC   C25 6565   6.968   1.453   9.825 -0.6090 -0.5002  0.2674
   74SLPC   H5R 6566   6.997   1.511   9.916 -0.5869 -2.1288  1.3337
   74SLPC   H5S 6567   6.859   1.435   9.829 -1.3495  3.2548  0.1413
   74SLPC   C26 6568   7.012   1.542   9.703  0.8582  0.1047  0.3075
   74SLPC   H6R 6569   7.123   1.547   9.700  0.9544 -0.6242  1.8061
   74SLPC   H6S 6570   6.962   1.639   9.721  3.5760  1.6769 -0.1116
   74SLPC   C27 6571   6.969   1.475   9.570 -0.3955 -0.3087  0.0938
   74SLPC   H7R 6572   6.859   1.475   9.559 -0.6655  2.1568  2.0272
   74SLPC   H7S 6573   7.005   1.370   9.568 -0.9783 -0.5495  1.6779
   74SLPC   C28 6574   7.019   1.545   9.439 -0.4012  0.1817  0.0833
   74SLPC   H8R 6575   7.111   1.606   9.451  0.2223 -0.9228  1.1939
   74SLPC   H8S 6576   6.950   1.628   9.413  0.2629  0.8178  0.3298
   74SLPC   C29 6577   7.035   1.443   9.322 -0.3066 -0.9004  0.2818
   74SLPC   H9R 6578   7.128   1.385   9.336 -0.2289 -0.9889 -0.5535
   74SLPC  C210 6579   6.956   1.411   9.220  0.0279 -0.0625  0.2288
   74SLPC  H10R 6580   6.993   1.338   9.146 -0.4236  0.4756 -0.5453
   74SLPC  C211 6581   6.823   1.472   9.197 -0.2696  0.2094 -0.4204
   74SLPC  H11R 6582   6.835   1.552   9.121 -1.1015  0.7054 -0.0505
   74SLPC  H11S 6583   6.794   1.536   9.283  0.7953  0.9452 -0.5864
   74SLPC  C212 6584   6.713   1.377   9.163 -0.3289 -0.0101  0.6993
   74SLPC  H12R 6585   6.643   1.349   9.244  0.6942  0.4180  1.7555
   74SLPC  C213 6586   6.685   1.346   9.037 -0.5827 -0.2879 -0.0948
   74SLPC  H13R 6587   6.609   1.272   9.010  3.0109 -3.6891 -1.9189
   74SLPC  C214 6588   6.765   1.383   8.914  0.3404  0.2351  0.5147
   74SLPC  H14R 6589   6.861   1.432   8.939  1.7171 -3.1136  2.5316
   74SLPC  H14S 6590   6.712   1.464   8.859 -0.7694 -2.0026 -1.9770
   74SLPC  C215 6591   6.780   1.260   8.812 -0.9112 -0.0949 -0.2930
   74SLPC  H15R 6592   6.824   1.294   8.716  0.8497  1.1044  0.8793
   74SLPC  H15S 6593   6.688   1.198   8.805 -1.4734  0.5117  1.2176
   74SLPC  C216 6594   6.886   1.154   8.855 -0.0753 -0.1325  0.0261
   74SLPC  H16R 6595   6.859   1.111   8.954  1.7089  1.1564  1.1482
   74SLPC  H16S 6596   6.981   1.210   8.857 -0.4199  0.4519  0.4720
   74SLPC  C217 6597   6.900   1.047   8.752  0.0158 -0.4213  0.1132
   74SLPC  H17R 6598   6.923   1.085   8.649 -0.4508 -1.9685 -0.5943
   74SLPC  H17S 6599   6.802   0.996   8.754  0.4070 -1.1702  2.2849
   74SLPC  C218 6600   7.003   0.936   8.783  0.0285 -0.6297 -0.1936
   74SLPC  H18R 6601   7.009   0.859   8.704 -0.9586  0.8184 -1.7657
   74SLPC  H18S 6602   6.978   0.901   8.885  0.1580  0.5248  0.2581
   74SLPC  H18T 6603   7.104   0.982   8.783 -0.7247  1.3341  2.6755
   74SLPC   C33 6604   7.037   1.913  10.078  0.5343  0.1313  0.4488
   74SLPC   H3X 6605   7.074   1.976  10.161 -1.8098  3.6094 -0.9121
   74SLPC   H3Y 6606   6.926   1.916  10.079  0.5265  1.1351 -0.8026
   74SLPC   C34 6607   7.105   1.979   9.961  0.1347 -1.2111  0.0010
   74SLPC   H4X 6608   7.214   1.984   9.983  0.2533  0.8926 -0.8409
   74SLPC   H4Y 6609   7.067   2.082   9.943  2.0126 -0.9204 -3.0703
   74SLPC   C35 6610   7.085   1.918   9.824  0.2136 -0.6391  0.5682
   74SLPC   H5X 6611   6.976   1.899   9.812 -0.5386  1.2879  3.4206
   74SLPC   H5Y 6612   7.138   1.820   9.826  1.7276  0.1014 -0.9166
   74SLPC   C36 6613   7.135   2.001   9.701  0.2311 -0.1025 -0.2689
   74SLPC   H6X 6614   7.240   2.037   9.710 -0.5000  3.0951 -2.7396
   74SLPC   H6Y 6615   7.076   2.096   9.703 -1.6731 -1.1910 -1.7525
   74SLPC   C37 6616   7.112   1.941   9.567  0.2713  0.5334 -0.6258
   74SLPC   H7X 6617   7.001   1.943   9.555  0.0446 -0.7529  0.9582
   74SLPC   H7Y 6618   7.156   1.840   9.561  0.8477  0.6217  1.3586
   74SLPC   C38 6619   7.164   2.020   9.449 -0.4334  0.1468 -0.0232
   74SLPC   H8X 6620   7.267   1.987   9.423 -0.9519 -0.0425 -1.9972
   74SLPC   H8Y 6621   7.177   2.129   9.464 -0.2552  0.5446 -2.7146
   74SLPC   C39 6622   7.074   2.021   9.321  0.2811  0.3321  0.3177
   74SLPC   H9X 6623   6.983   2.082   9.337 -0.4130 -0.2769 -1.1440
   74SLPC   H9Y 6624   7.037   1.921   9.290 -0.4576  0.3514  1.0742
   74SLPC  C310 6625   7.147   2.078   9.194  0.6709  0.6842 -0.1776
   74SLPC  H10X 6626   7.218   1.996   9.170 -0.6812 -1.2764  2.0328
   74SLPC  H10Y 6627   7.206   2.169   9.220  0.0682  0.4266  2.3771
   74SLPC  C311 6628   7.058   2.109   9.073 -0.0026 -0.3209  0.2153
   74SLPC  H11X 6629   7.003   2.205   9.083 -0.6911 -0.7991  1.1502
   74SLPC  H11Y 6630   6.985   2.030   9.049 -0.5276  0.8439 -2.4153
   74SLPC  C312 6631   7.136   2.132   8.939 -0.5819  0.7954 -0.6009
   74SLPC  H12X 6632   7.188   2.228   8.960  0.4047  0.3592 -0.9917
   74SLPC  H12Y 6633   7.060   2.157   8.862 -0.1158  0.0412 -1.3247
   74SLPC  C313 6634   7.230   2.017   8.883  0.4464  0.1643 -0.2694
   74SLPC  H13X 6635   7.172   1.923   8.891  0.4792  0.2303  0.7846
   74SLPC  H13Y 6636   7.315   2.002   8.952 -1.4996  0.0067  2.2308
   74SLPC  C314 6637   7.271   2.038   8.733 -0.2345  0.9229  0.2022
   74SLPC  H14X 6638   7.356   2.109   8.732 -0.9408  1.8037  1.1108
   74SLPC  H14Y 6639   7.188   2.079   8.672 -0.6003  0.1979  0.1953
   74SLPC  C315 6640   7.322   1.907   8.666  0.6578  0.2146 -0.6423
   74SLPC  H15X 6641   7.245   1.827   8.661 -0.2149  1.1361 -3.8588
   74SLPC  H15Y 6642   7.411   1.868   8.720 -0.5413 -1.4519  0.2321
   74SLPC  C316 6643   7.358   1.922   8.518 -0.1464 -0.4113  0.5699
   74SLPC  H16X 6644   7.413   2.017   8.502  0.2838 -0.9430 -1.3748
   74SLPC  H16Y 6645   7.266   1.922   8.456 -1.0555  0.0929  1.8752
   74SLPC  C317 6646   7.438   1.797   8.467 -0.0119  0.1864 -1.0248
   74SLPC  H17X 6647   7.375   1.706   8.481 -1.4188  1.4445  1.4668
   74SLPC  H17Y 6648   7.531   1.781   8.527 -0.7294  1.6004  0.5459
   74SLPC  C318 6649   7.486   1.809   8.320  0.6888 -0.7619 -0.6018
   74SLPC  H18X 6650   7.399   1.794   8.253  0.7716 -0.3741 -0.7987
   74SLPC  H18Y 6651   7.562   1.732   8.294 -0.4388 -2.3956  0.7350
   74SLPC  H18Z 6652   7.533   1.909   8.305 -4.2709  1.9430 -0.2470
   75SLPC     N 6653   5.304   1.196   6.645 -0.2570  0.2287 -0.1599
   75SLPC   C13 6654   5.279   1.295   6.535 -0.2848 -0.5919  0.3135
   75SLPC  H13A 6655   5.362   1.284   6.467 -1.0264 -1.1878 -0.5070
   75SLPC  H13B 6656   5.190   1.272   6.478  1.8913 -0.4797 -3.4541
   75SLPC  H13C 6657   5.279   1.399   6.564  0.3073 -0.2965 -0.7081
   75SLPC   C14 6658   5.189   1.202   6.740  0.6438  0.0065 -0.3235
   75SLPC  H14A 6659   5.186   1.304   6.775  3.8660  0.9638 -2.3726
   75SLPC  H14B 6660   5.101   1.177   6.681 -0.8719  4.7558 -0.4943
   75SLPC  H14C 6661   5.204   1.138   6.825  0.4196  0.6613  0.2105
   75SLPC   C15 6662   5.433   1.216   6.715 -0.2974  0.0284 -0.0089
   75SLPC  H15A 6663   5.449   1.134   6.784 -2.0375 -1.1151 -0.8793
   75SLPC  H15B 6664   5.511   1.204   6.642 -0.1540 -0.6250  0.2413
   75SLPC  H15C 6665   5.443   1.318   6.748  1.8247 -0.4315  0.9086
   75SLPC   C12 6666   5.307   1.053   6.588 -0.2818 -0.1610  0.0541
   75SLPC  H12A 6667   5.361   0.982   6.649  0.2739  1.3040  1.3710
   75SLPC  H12B 6668   5.376   1.056   6.505  0.2471  1.4928  0.5155
   75SLPC   C11 6669   5.182   0.990   6.534  0.4052 -0.3359  0.2503
   75SLPC  H11A 6670   5.107   0.988   6.616  0.1197 -1.2165 -0.0214
   75SLPC  H11B 6671   5.198   0.884   6.505  0.3331 -0.2808  0.0060
   75SLPC     P 6672   4.977   1.049   6.386 -0.5351 -0.2810  0.3076
   75SLPC   O13 6673   4.938   1.165   6.304 -0.0545 -0.3878 -0.2389
   75SLPC   O14 6674   4.960   0.914   6.337 -0.7301 -0.3667  1.0045
   75SLPC   O12 6675   5.129   1.069   6.424 -0.5784 -0.1452 -0.2097
   75SLPC   O11 6676   4.910   1.053   6.529  0.4336  0.0843 -0.7535
   75SLPC    C1 6677   4.789   1.132   6.549  0.2446 -0.1748 -0.6444
   75SLPC    HA 6678   4.811   1.236   6.519  1.7003 -0.0001  0.8444
   75SLPC    HB 6679   4.712   1.089   6.482  0.1754 -2.8638  1.0195
   75SLPC    C2 6680   4.734   1.127   6.690  0.2590 -0.0069 -0.7633
   75SLPC    HS 6681   4.802   1.178   6.763  0.9373 -3.1359  1.0096
   75SLPC   O21 6682   4.714   0.991   6.728  0.2731 -0.4758 -0.2542
   75SLPC   C21 6683   4.815   0.920   6.778  0.4527  0.3087  0.6455
   75SLPC   O22 6684   4.921   0.959   6.813 -0.6503 -0.6734  0.3689
   75SLPC   C22 6685   4.774   0.769   6.764 -0.3592 -0.1817 -0.5935
   75SLPC   H2R 6686   4.665   0.747   6.771 -0.6886  1.3689 -0.4684
   75SLPC   H2S 6687   4.814   0.746   6.663 -3.2716 -1.1360 -1.6445
   75SLPC    C3 6688   4.601   1.202   6.706 -0.2817 -0.2163  0.2488
   75SLPC    HX 6689   4.537   1.182   6.618 -0.0686 -0.0600  0.0564
   75SLPC    HY 6690   4.629   1.309   6.714 -1.7166  0.1760  0.2017
   75SLPC   O31 6691   4.520   1.179   6.818  0.4757  0.2562  0.3464
   75SLPC   C31 6692   4.561   1.226   6.942  0.5651  0.4375  0.0976
   75SLPC   O32 6693   4.670   1.272   6.964  0.5744  0.1099 -0.3467
   75SLPC   C32 6694   4.463   1.168   7.040  0.9343 -0.8025  0.1322
   75SLPC   H2X 6695   4.420   1.069   7.013 -0.6658 -0.5257  1.4920
   75SLPC   H2Y 6696   4.383   1.245   7.037  1.6750 -0.0523 -0.7328
   75SLPC   C23 6697   4.847   0.671   6.859 -1.0562  0.0953 -0.2354
   75SLPC   H3R 6698   4.956   0.694   6.852 -1.1378  0.3794 -0.6578
   75SLPC   H3S 6699   4.841   0.564   6.829 -0.9779 -0.3617  1.3234
   75SLPC   C24 6700   4.794   0.665   7.000 -0.0580 -0.4454 -0.1979
   75SLPC   H4R 6701   4.824   0.564   7.035 -0.8492 -0.4002  0.6507
   75SLPC   H4S 6702   4.683   0.673   6.990 -0.1201 -1.7175 -0.6453
   75SLPC   C25 6703   4.854   0.774   7.096  0.2026  0.0498  0.0040
   75SLPC   H5R 6704   4.838   0.881   7.072 -0.1848 -0.2904 -1.3239
   75SLPC   H5S 6705   4.961   0.747   7.099 -0.0674 -0.9655  1.0762
   75SLPC   C26 6706   4.800   0.763   7.245 -0.9512 -0.4183  0.4889
   75SLPC   H6R 6707   4.814   0.660   7.284  0.6849 -0.7171 -0.7759
   75SLPC   H6S 6708   4.691   0.784   7.243 -1.0787 -0.3608  3.2761
   75SLPC   C27 6709   4.871   0.865   7.335 -0.7243 -0.6410 -0.4493
   75SLPC   H7R 6710   4.859   0.962   7.283 -3.1596 -0.8593 -0.4114
   75SLPC   H7S 6711   4.980   0.847   7.349 -0.4188  1.9732  1.0359
   75SLPC   C28 6712   4.819   0.884   7.484  0.2319 -0.3105 -0.0256
   75SLPC   H8R 6713   4.716   0.927   7.489 -0.1130 -1.1876  0.9780
   75SLPC   H8S 6714   4.883   0.962   7.530 -1.8281  1.1851  0.4713
   75SLPC   C29 6715   4.815   0.747   7.554  0.1440  0.7650 -0.5412
   75SLPC   H9R 6716   4.870   0.660   7.516  0.9373  0.5146  1.0891
   75SLPC  C210 6717   4.737   0.715   7.657 -0.7499 -0.0925  0.5359
   75SLPC  H10R 6718   4.739   0.611   7.693 -2.8168 -1.5063 -2.9616
   75SLPC  C211 6719   4.626   0.798   7.720 -0.5712  0.3682 -0.0757
   75SLPC  H11R 6720   4.578   0.868   7.648 -0.3566  0.3924 -0.1963
   75SLPC  H11S 6721   4.671   0.872   7.790 -1.1198  1.7535 -1.1402
   75SLPC  C212 6722   4.521   0.706   7.800  0.1338  0.0445 -0.3056
   75SLPC  H12R 6723   4.480   0.619   7.745 -0.2868  0.6172 -0.9153
   75SLPC  C213 6724   4.475   0.732   7.922  0.2179  0.2754 -0.0010
   75SLPC  H13R 6725   4.404   0.662   7.968  0.4884  0.9117  1.4612
   75SLPC  C214 6726   4.524   0.854   8.004  0.4698 -0.6359  0.2437
   75SLPC  H14R 6727   4.441   0.907   8.055  1.8395  1.2877  0.6255
   75SLPC  H14S 6728   4.571   0.932   7.940  1.5724 -0.1034  1.6438
   75SLPC  C215 6729   4.646   0.840   8.101 -0.4937 -0.4580  0.0282
   75SLPC  H15R 6730   4.677   0.941   8.136  0.6542 -1.2530  1.4313
   75SLPC  H15S 6731   4.730   0.797   8.042 -0.7444  0.2507 -0.8601
   75SLPC  C216 6732   4.604   0.763   8.225 -1.3742 -0.1499  0.4078
   75SLPC  H16R 6733   4.576   0.660   8.195  0.2671  0.1385 -2.4380
   75SLPC  H16S 6734   4.512   0.810   8.266 -0.7456  0.9046  0.6435
   75SLPC  C217 6735   4.718   0.754   8.326 -0.0374  0.2048 -0.2214
   75SLPC  H17R 6736   4.672   0.703   8.414 -1.1111 -1.2394 -1.5584
   75SLPC  H17S 6737   4.719   0.860   8.361  0.6982  0.1457 -0.0591
   75SLPC  C218 6738   4.852   0.703   8.283  0.1687  0.6504 -0.0793
   75SLPC  H18R 6739   4.901   0.757   8.200  4.6448 -1.6408  0.7307
   75SLPC  H18S 6740   4.832   0.602   8.241  0.2743  0.3138  0.6545
   75SLPC  H18T 6741   4.927   0.699   8.366  0.4834  0.3582 -0.3733
   75SLPC   C33 6742   4.524   1.167   7.179  0.0942 -0.8914  0.7222
   75SLPC   H3X 6743   4.611   1.098   7.181  0.2138 -0.8039 -0.7317
   75SLPC   H3Y 6744   4.572   1.265   7.197  0.4217 -1.2386  1.8473
   75SLPC   C34 6745   4.434   1.136   7.295 -0.1116  0.2588 -0.7348
   75SLPC   H4X 6746   4.421   1.025   7.298  0.5242  0.1774  2.5165
   75SLPC   H4Y 6747   4.338   1.191   7.292 -0.2097  0.1965  0.6840
   75SLPC   C35 6748   4.500   1.184   7.421 -0.1839 -0.9764  0.1270
   75SLPC   H5X 6749   4.509   1.293   7.402 -1.7406 -1.1127 -1.7894
   75SLPC   H5Y 6750   4.596   1.128   7.419 -0.4654 -1.4785  0.4239
   75SLPC   C36 6751   4.422   1.154   7.552  0.3461  0.5775 -0.1554
   75SLPC   H6X 6752   4.415   1.044   7.557 -1.0119  0.6689  0.2647
   75SLPC   H6Y 6753   4.322   1.198   7.532  1.0614  2.1986 -0.3289
   75SLPC   C37 6754   4.483   1.214   7.680 -0.2515 -0.2395  0.3141
   75SLPC   H7X 6755   4.491   1.319   7.645  0.0675 -0.7618 -1.2529
   75SLPC   H7Y 6756   4.584   1.180   7.710  1.0971  4.0477  1.4516
   75SLPC   C38 6757   4.393   1.209   7.810 -0.2814  0.1226  0.2480
   75SLPC   H8X 6758   4.387   1.100   7.829  1.8825  0.1972  1.6752
   75SLPC   H8Y 6759   4.296   1.260   7.790 -1.4150 -2.2530 -0.7451
   75SLPC   C39 6760   4.464   1.269   7.937  0.2161  0.8375 -0.4785
   75SLPC   H9X 6761   4.474   1.377   7.910 -1.0226  0.7282 -1.4674
   75SLPC   H9Y 6762   4.565   1.225   7.948 -0.0503 -0.1295 -1.6761
   75SLPC  C310 6763   4.374   1.243   8.057 -0.3229  0.6230  0.2047
   75SLPC  H10X 6764   4.375   1.136   8.087  2.2703  0.9671  1.6817
   75SLPC  H10Y 6765   4.273   1.267   8.018  0.6105  0.3792 -2.5863
   75SLPC  C311 6766   4.424   1.320   8.180  0.1569  1.4814 -0.3390
   75SLPC  H11X 6767   4.414   1.428   8.153 -1.9228  1.4310  0.0631
   75SLPC  H11Y 6768   4.532   1.299   8.195 -0.0160  0.1507 -0.8450
   75SLPC  C312 6769   4.341   1.288   8.319 -0.3582  0.3442  2.3782
   75SLPC  H12X 6770   4.368   1.182   8.339 -3.4764 -1.1523 -0.2443
   75SLPC  H12Y 6771   4.232   1.289   8.298 -0.0694 -3.4972 -0.5515
   75SLPC  C313 6772   4.377   1.386   8.432  0.0694 -1.0745 -0.1571
   75SLPC  H13X 6773   4.486   1.386   8.454 -0.0117  1.1602  0.4653
   75SLPC  H13Y 6774   4.330   1.361   8.530  0.7318  0.8325  0.6839
   75SLPC  C314 6775   4.326   1.530   8.414 -0.7997  0.5612  0.2150
   75SLPC  H14X 6776   4.220   1.520   8.382 -0.3759 -1.1754 -0.7393
   75SLPC  H14Y 6777   4.384   1.578   8.332  2.1112 -1.8420  0.7030
   75SLPC  C315 6778   4.341   1.608   8.541  0.3784  0.0877 -0.0063
   75SLPC  H15X 6779   4.256   1.581   8.608  2.1755 -1.1471  1.9147
   75SLPC  H15Y 6780   4.331   1.713   8.508  1.3880  0.5549  1.0882
   75SLPC  C316 6781   4.477   1.597   8.610  0.0324 -0.1417  0.0055
   75SLPC  H16X 6782   4.564   1.634   8.552  0.1556 -1.0189 -0.3739
   75SLPC  H16Y 6783   4.495   1.494   8.646  0.8771 -0.6436 -1.7528
   75SLPC  C317 6784   4.473   1.693   8.731 -0.1560  0.9658 -0.6696
   75SLPC  H17X 6785   4.374   1.686   8.781  0.3070 -0.2228  0.1109
   75SLPC  H17Y 6786   4.491   1.799   8.702  2.0964  0.1621 -2.4806
   75SLPC  C318 6787   4.578   1.648   8.839 -0.3875  0.0501  0.4267
   75SLPC  H18X 6788   4.677   1.641   8.789 -0.8014 -1.2632 -0.2734
   75SLPC  H18Y 6789   4.550   1.552   8.889 -2.7691  0.5993  0.2626
   75SLPC  H18Z 6790   4.591   1.724   8.918  2.2760 -0.1646  0.2938
   76SLPC     N 6791   1.116   0.028   6.095  0.2165  0.7133 -0.5062
   76SLPC   C13 6792   1.034   0.002   5.980  0.2332  0.9450 -0.3407
   76SLPC  H13A 6793   0.931  -0.024   5.998 -0.2687  0.5250 -3.2827
   76SLPC  H13B 6794   1.018   0.093   5.924  0.3849  1.3279  0.2355
   76SLPC  H13C 6795   1.067  -0.082   5.921 -1.8569 -0.7942  0.8347
   76SLPC   C14 6796   1.066   0.150   6.164  0.0225 -0.7019  0.0147
   76SLPC  H14A 6797   1.124   0.170   6.253  0.7407  0.1605 -0.6359
   76SLPC  H14B 6798   1.098   0.231   6.102  1.5359 -0.4657  1.0517
   76SLPC  H14C 6799   0.961   0.133   6.187 -0.8425 -0.9057 -3.4916
   76SLPC   C15 6800   1.260   0.057   6.053 -0.4215 -0.1526 -0.3993
   76SLPC  H15A 6801   1.320   0.056   6.142 -0.6883 -0.1393 -0.2193
   76SLPC  H15B 6802   1.304  -0.024   5.997 -0.4125 -0.1664 -0.3724
   76SLPC  H15C 6803   1.272   0.151   6.002 -0.7873  0.2243  0.2078
   76SLPC   C12 6804   1.112  -0.088   6.188 -0.1103  0.1001 -0.1871
   76SLPC  H12A 6805   1.119  -0.184   6.139 -1.3329 -1.4958  2.5370
   76SLPC  H12B 6806   1.015  -0.082   6.237  0.0710  0.4366  0.1339
   76SLPC   C11 6807   1.212  -0.095   6.301  0.1083  0.7540 -0.3268
   76SLPC  H11A 6808   1.188  -0.173   6.376  2.2641  1.0355  0.7371
   76SLPC  H11B 6809   1.208  -0.003   6.364  0.3509  0.5929 -0.0754
   76SLPC     P 6810   1.472  -0.071   6.345  0.3701 -0.3773  0.2126
   76SLPC   O13 6811   1.578  -0.161   6.298 -0.3315  0.5998 -0.8223
   76SLPC   O14 6812   1.500   0.073   6.336 -0.5291 -0.2560 -0.1927
   76SLPC   O12 6813   1.351  -0.104   6.254 -0.1542 -0.1071  0.2997
   76SLPC   O11 6814   1.426  -0.122   6.490  0.5830 -0.2565  0.1028
   76SLPC    C1 6815   1.522  -0.111   6.591 -0.2270 -0.3057  0.1335
   76SLPC    HA 6816   1.619  -0.144   6.549 -1.3320 -1.9900 -1.2887
   76SLPC    HB 6817   1.518  -0.006   6.626 -3.3080  0.0844 -1.0809
   76SLPC    C2 6818   1.488  -0.199   6.713  0.5259 -0.4218  0.2058
   76SLPC    HS 6819   1.481  -0.302   6.670 -1.2090  0.6310 -2.2083
   76SLPC   O21 6820   1.367  -0.159   6.778  0.0566 -0.0692 -0.7510
   76SLPC   C21 6821   1.288  -0.262   6.811  0.4677  0.4589  0.3475
   76SLPC   O22 6822   1.316  -0.381   6.799  0.0639  0.1807 -0.2240
   76SLPC   C22 6823   1.161  -0.206   6.867 -0.3731 -0.4714 -0.0542
   76SLPC   H2R 6824   1.187  -0.122   6.934 -0.9956  0.3783 -0.8464
   76SLPC   H2S 6825   1.099  -0.162   6.786  0.2995 -0.5360 -0.6114
   76SLPC    C3 6826   1.604  -0.192   6.816  0.1801  0.1834 -0.0283
   76SLPC    HX 6827   1.626  -0.088   6.848  0.6820  0.4282 -1.1351
   76SLPC    HY 6828   1.696  -0.215   6.758  1.5110 -2.2897  2.7457
   76SLPC   O31 6829   1.591  -0.289   6.920  0.7122 -0.7762  0.0601
   76SLPC   C31 6830   1.623  -0.421   6.886 -0.7785  0.8329 -0.2998
   76SLPC   O32 6831   1.670  -0.454   6.779 -0.3371 -0.3724  0.5243
   76SLPC   C32 6832   1.584  -0.504   7.010 -0.8491 -0.0666  0.1289
   76SLPC   H2X 6833   1.475  -0.501   7.028 -0.7769 -0.1911  0.6032
   76SLPC   H2Y 6834   1.631  -0.460   7.101 -0.8819  1.2578 -0.4711
   76SLPC   C23 6835   1.070  -0.310   6.946  0.0690  0.2509  0.2869
   76SLPC   H3R 6836   1.106  -0.316   7.051  1.0303 -1.6638 -0.0926
   76SLPC   H3S 6837   1.067  -0.411   6.898 -2.2060  1.2271 -1.8227
   76SLPC   C24 6838   0.932  -0.256   6.965 -0.4570  0.0269 -0.3093
   76SLPC   H4R 6839   0.894  -0.243   6.862 -1.3679 -1.2377 -0.1557
   76SLPC   H4S 6840   0.936  -0.154   7.008 -0.0883  0.0775 -0.4611
   76SLPC   C25 6841   0.839  -0.354   7.043  0.6914  0.4365 -0.9291
   76SLPC   H5R 6842   0.772  -0.295   7.110 -0.9866 -0.0419 -2.1185
   76SLPC   H5S 6843   0.900  -0.409   7.118  1.4362 -0.0566 -1.8869
   76SLPC   C26 6844   0.744  -0.450   6.962  0.3679  0.0386 -0.4077
   76SLPC   H6R 6845   0.810  -0.524   6.911 -1.6288 -2.0972 -0.0540
   76SLPC   H6S 6846   0.697  -0.390   6.881  3.0870  3.7211  0.4714
   76SLPC   C27 6847   0.632  -0.525   7.045 -0.3211  0.2323  0.0304
   76SLPC   H7R 6848   0.570  -0.583   6.974 -0.3082 -0.9046  0.9289
   76SLPC   H7S 6849   0.575  -0.445   7.098 -2.4123 -1.5996  0.6779
   76SLPC   C28 6850   0.682  -0.624   7.151 -0.0661 -0.0400  0.0541
   76SLPC   H8R 6851   0.736  -0.714   7.114  1.9166  1.0074  0.2158
   76SLPC   H8S 6852   0.763  -0.580   7.214 -3.6879  3.2227  2.9077
   76SLPC   C29 6853   0.570  -0.676   7.240  0.0533 -0.1490 -0.1412
   76SLPC   H9R 6854   0.497  -0.738   7.186 -1.4975  1.1978  0.3018
   76SLPC  C210 6855   0.552  -0.636   7.370  0.2689  0.1213 -0.0561
   76SLPC  H10R 6856   0.467  -0.675   7.427 -1.1487  3.6249  0.4829
   76SLPC  C211 6857   0.648  -0.544   7.436 -0.0676 -0.3053  0.6939
   76SLPC  H11R 6858   0.713  -0.488   7.366 -2.4957  0.6787 -0.9135
   76SLPC  H11S 6859   0.715  -0.606   7.500 -0.4250  0.4247  1.8156
   76SLPC  C212 6860   0.582  -0.453   7.532 -0.3006  0.0983  1.5073
   76SLPC  H12R 6861   0.580  -0.348   7.500 -4.4390 -0.3064 -0.2163
   76SLPC  C213 6862   0.531  -0.490   7.650 -0.3522  1.0194  0.0555
   76SLPC  H13R 6863   0.480  -0.408   7.703 -1.1171  0.4320  0.2496
   76SLPC  C214 6864   0.509  -0.634   7.701 -0.2116 -0.1115  0.2584
   76SLPC  H14R 6865   0.580  -0.696   7.643  2.0491 -0.1202  2.8156
   76SLPC  H14S 6866   0.403  -0.664   7.687 -0.1385  0.4673 -1.7351
   76SLPC  C215 6867   0.543  -0.636   7.855 -0.3205  0.7772 -0.2696
   76SLPC  H15R 6868   0.494  -0.556   7.915  1.9520  1.2896  1.0529
   76SLPC  H15S 6869   0.646  -0.597   7.872 -1.0007  2.0448  1.2178
   76SLPC  C216 6870   0.524  -0.772   7.921  0.7124  0.0964  1.4298
   76SLPC  H16R 6871   0.574  -0.843   7.852  0.3136  1.2788 -0.1364
   76SLPC  H16S 6872   0.415  -0.797   7.924  0.8382 -1.2610 -1.5908
   76SLPC  C217 6873   0.577  -0.767   8.065 -0.1914 -0.9639 -0.3906
   76SLPC  H17R 6874   0.533  -0.682   8.120  1.0278 -0.1388 -0.6530
   76SLPC  H17S 6875   0.683  -0.737   8.056 -0.5536  0.9772  1.2248
   76SLPC  C218 6876   0.580  -0.905   8.150  0.2403  0.0448 -0.6910
   76SLPC  H18R 6877   0.624  -0.988   8.091 -0.0718 -1.1816  0.7465
   76SLPC  H18S 6878   0.475  -0.923   8.182  0.8206 -1.9598  0.2793
   76SLPC  H18T 6879   0.644  -0.879   8.237 -0.9836  4.5726 -0.8781
   76SLPC   C33 6880   1.625  -0.651   6.976  0.5995 -0.1317 -0.4182
   76SLPC   H3X 6881   1.736  -0.651   6.974  0.6662  1.3539  1.1031
   76SLPC   H3Y 6882   1.588  -0.681   6.876 -1.0438 -1.4147  0.5163
   76SLPC   C34 6883   1.578  -0.745   7.086  0.2237  0.3571  0.2818
   76SLPC   H4X 6884   1.608  -0.849   7.062 -1.9991 -0.2501 -0.1532
   76SLPC   H4Y 6885   1.467  -0.737   7.089 -0.1473 -1.6062 -3.2091
   76SLPC   C35 6886   1.625  -0.720   7.233  0.5239 -0.6509  0.6387
   76SLPC   H5X 6887   1.581  -0.625   7.270  3.0730  0.1174  1.9104
   76SLPC   H5Y 6888   1.733  -0.700   7.221  0.2422  1.2707  0.9700
   76SLPC   C36 6889   1.593  -0.835   7.333  0.0046  0.0394  0.4132
   76SLPC   H6X 6890   1.659  -0.916   7.296  1.2583  0.5817  1.4120
   76SLPC   H6Y 6891   1.489  -0.871   7.318  0.2767 -0.7731  0.4277
   76SLPC   C37 6892   1.619  -0.805   7.482 -0.0354 -0.6815  0.1564
   76SLPC   H7X 6893   1.580  -0.706   7.515 -0.5031  0.6815 -3.9575
   76SLPC   H7Y 6894   1.729  -0.789   7.486 -0.3719  2.0521  1.0554
   76SLPC   C38 6895   1.561  -0.912   7.582 -0.2887  0.5010  0.0802
   76SLPC   H8X 6896   1.585  -1.016   7.551 -1.5538  0.6239 -1.4257
   76SLPC   H8Y 6897   1.451  -0.901   7.578 -0.3755  0.8133  2.2958
   76SLPC   C39 6898   1.601  -0.882   7.729  0.4982 -0.0036  0.6163
   76SLPC   H9X 6899   1.577  -0.778   7.761 -0.6839 -0.3966  1.0520
   76SLPC   H9Y 6900   1.712  -0.881   7.729  0.5082 -0.7200  0.3721
   76SLPC  C310 6901   1.559  -0.989   7.827  1.0928  0.1351 -0.2760
   76SLPC  H10X 6902   1.583  -1.091   7.790 -1.4204 -0.5045 -0.3080
   76SLPC  H10Y 6903   1.450  -0.994   7.847  1.3554 -0.9034  1.1046
   76SLPC  C311 6904   1.613  -0.966   7.964 -0.3165 -0.2007 -0.5893
   76SLPC  H11X 6905   1.571  -0.869   7.997  1.6240  1.0912 -1.7680
   76SLPC  H11Y 6906   1.720  -0.940   7.954 -0.7732  2.2281  0.2151
   76SLPC  C312 6907   1.588  -1.076   8.067  1.6849 -0.3545  1.1983
   76SLPC  H12X 6908   1.664  -1.156   8.056  1.9530  0.0481 -0.0006
   76SLPC  H12Y 6909   1.485  -1.112   8.049  1.9823 -0.1904 -1.0921
   76SLPC  C313 6910   1.600  -1.022   8.213  0.2937  0.7551  0.5319
   76SLPC  H13X 6911   1.508  -0.964   8.236 -1.3284 -1.2365 -0.5971
   76SLPC  H13Y 6912   1.678  -0.943   8.204  0.1008  0.9439  0.4772
   76SLPC  C314 6913   1.624  -1.143   8.306 -1.0117 -0.4269  0.2941
   76SLPC  H14X 6914   1.724  -1.188   8.289 -1.1255 -1.0933  1.3230
   76SLPC  H14Y 6915   1.551  -1.224   8.288 -1.6123  0.5505 -1.9855
   76SLPC  C315 6916   1.617  -1.109   8.463  0.1172 -0.2518  0.0925
   76SLPC  H15X 6917   1.512  -1.124   8.497  0.6329 -0.8813  1.4780
   76SLPC  H15Y 6918   1.642  -1.001   8.476  0.5850 -0.4498  0.8813
   76SLPC  C316 6919   1.725  -1.184   8.546  0.0241  0.0699  0.3431
   76SLPC  H16X 6920   1.707  -1.294   8.549  1.6425 -0.1999  1.6269
   76SLPC  H16Y 6921   1.712  -1.140   8.647 -0.6859  2.9599 -0.8959
   76SLPC  C317 6922   1.876  -1.163   8.513  0.0656  0.1261  0.5832
   76SLPC  H17X 6923   1.902  -1.058   8.538  1.3974  0.8039 -2.9617
   76SLPC  H17Y 6924   1.906  -1.168   8.406  2.6960  2.1870  1.1175
   76SLPC  C318 6925   1.974  -1.252   8.590 -0.1327  0.1925  0.4205
   76SLPC  H18X 6926   2.077  -1.216   8.572 -0.9796  2.1626 -0.8190
   76SLPC  H18Y 6927   1.967  -1.357   8.553 -1.2494  1.0427 -1.9649
   76SLPC  H18Z 6928   1.950  -1.241   8.698 -0.6794 -2.9548  0.7232
   77SLPC     N 6929   3.700   3.018   6.396 -0.5645  0.2531 -0.3060
   77SLPC   C13 6930   3.751   2.917   6.296  0.3094  0.2385  0.4017
   77SLPC  H13A 6931   3.807   2.957   6.213 -0.1409 -0.7533 -0.4082
   77SLPC  H13B 6932   3.798   2.830   6.339  0.6911  0.5115  0.5366
   77SLPC  H13C 6933   3.661   2.869   6.260  0.8649 -0.6233  0.1467
   77SLPC   C14 6934   3.809   3.075   6.472 -0.1583 -0.1198 -0.0167
   77SLPC  H14A 6935   3.775   3.157   6.533  2.1618  0.2623  0.8532
   77SLPC  H14B 6936   3.852   3.005   6.542 -0.6765 -1.0418 -0.5950
   77SLPC  H14C 6937   3.895   3.105   6.414 -0.5175  1.9103  0.4349
   77SLPC   C15 6938   3.600   2.949   6.487  0.3446 -0.1292  0.0524
   77SLPC  H15A 6939   3.651   2.883   6.555  0.1316 -0.8740 -0.5047
   77SLPC  H15B 6940   3.554   3.028   6.545  2.7624  0.0289  1.9610
   77SLPC  H15C 6941   3.520   2.900   6.434 -0.6210 -0.3830  1.6800
   77SLPC   C12 6942   3.618   3.125   6.316  0.3510 -0.0457 -0.6636
   77SLPC  H12A 6943   3.547   3.065   6.262  0.3123 -1.6164  1.0148
   77SLPC  H12B 6944   3.687   3.168   6.245  0.7560 -0.8283 -0.7531
   77SLPC   C11 6945   3.543   3.229   6.398 -0.0057 -0.0850 -0.1779
   77SLPC  H11A 6946   3.493   3.186   6.488  0.1911  2.2037  1.1019
   77SLPC  H11B 6947   3.452   3.274   6.352 -2.2999 -1.5136  2.6029
   77SLPC     P 6948   3.697   3.449   6.410  0.1055 -0.0368  0.1319
   77SLPC   O13 6949   3.838   3.445   6.448 -0.5228  0.1665  0.6346
   77SLPC   O14 6950   3.668   3.473   6.266  0.2149 -0.8140  0.0752
   77SLPC   O12 6951   3.633   3.311   6.463  0.0187  0.0728  0.3949
   77SLPC   O11 6952   3.619   3.541   6.497  0.2255 -0.6434 -0.3211
   77SLPC    C1 6953   3.557   3.662   6.448 -0.2555  1.3620 -0.1013
   77SLPC    HA 6954   3.629   3.746   6.437  3.4513 -1.6122 -0.6250
   77SLPC    HB 6955   3.519   3.640   6.346  1.1354  2.4151 -0.8877
   77SLPC    C2 6956   3.452   3.715   6.539 -0.0337  0.2605  0.4760
   77SLPC    HS 6957   3.385   3.775   6.473  0.5651 -0.8784 -1.2320
   77SLPC   O21 6958   3.530   3.794   6.629 -0.1867  0.3284  0.5612
   77SLPC   C21 6959   3.459   3.882   6.699  0.0730 -0.1207  0.3174
   77SLPC   O22 6960   3.357   3.929   6.660 -0.2225  0.5638 -0.1934
   77SLPC   C22 6961   3.515   3.897   6.839 -0.2300  0.0642  0.0426
   77SLPC   H2R 6962   3.558   3.799   6.869  1.4818  0.7956  0.1406
   77SLPC   H2S 6963   3.597   3.972   6.827 -0.5140  0.3816  0.0847
   77SLPC    C3 6964   3.372   3.603   6.596 -0.1271 -0.1256 -0.0359
   77SLPC    HX 6965   3.435   3.562   6.677  1.7042 -1.5987 -2.0896
   77SLPC    HY 6966   3.363   3.517   6.526  0.3200  1.2060 -1.8113
   77SLPC   O31 6967   3.246   3.646   6.655 -0.3853  0.0901 -0.3751
   77SLPC   C31 6968   3.147   3.643   6.563  1.1194 -0.4173  0.1034
   77SLPC   O32 6969   3.155   3.624   6.445 -0.3263  0.7609 -0.8579
   77SLPC   C32 6970   3.009   3.663   6.635 -0.6811 -0.0536  0.0242
   77SLPC   H2X 6971   2.945   3.583   6.591  0.8693 -1.3472  0.0162
   77SLPC   H2Y 6972   2.971   3.762   6.603 -0.4592  0.1306  0.3266
   77SLPC   C23 6973   3.421   3.954   6.953  0.1185 -0.1671  0.2401
   77SLPC   H3R 6974   3.357   4.022   6.893  0.7792 -1.3910 -1.9659
   77SLPC   H3S 6975   3.471   4.030   7.018 -1.1920 -0.4678  1.6544
   77SLPC   C24 6976   3.352   3.839   7.009  0.1893  0.2202  0.3419
   77SLPC   H4R 6977   3.433   3.764   7.022  0.5657 -0.2324 -3.6066
   77SLPC   H4S 6978   3.280   3.784   6.944  0.8192 -1.0719  0.6921
   77SLPC   C25 6979   3.274   3.866   7.141 -0.7579 -0.3546 -0.2260
   77SLPC   H5R 6980   3.182   3.924   7.116  0.4874  1.6026 -0.4748
   77SLPC   H5S 6981   3.329   3.935   7.208 -0.8435 -1.1185  0.6518
   77SLPC   C26 6982   3.234   3.739   7.217 -0.0803 -0.3940  0.1542
   77SLPC   H6R 6983   3.323   3.690   7.262 -0.7123 -0.1393  1.7569
   77SLPC   H6S 6984   3.184   3.664   7.151 -0.9378 -1.7914  2.2868
   77SLPC   C27 6985   3.136   3.764   7.333  0.4578  0.5085 -0.8782
   77SLPC   H7R 6986   3.105   3.664   7.370 -0.8910  1.4787  0.7715
   77SLPC   H7S 6987   3.048   3.820   7.294 -1.4903 -3.0421 -2.0085
   77SLPC   C28 6988   3.191   3.836   7.453  0.3116 -0.6240 -0.3547
   77SLPC   H8R 6989   3.216   3.940   7.425 -1.8213  0.3643  1.1029
   77SLPC   H8S 6990   3.283   3.788   7.493 -0.9841 -1.1161  2.2640
   77SLPC   C29 6991   3.077   3.835   7.552  0.2600 -0.9800 -0.2503
   77SLPC   H9R 6992   2.990   3.894   7.518  0.9006 -0.4579 -1.0066
   77SLPC  C210 6993   3.079   3.785   7.674  0.4176 -0.4412 -0.3198
   77SLPC  H10R 6994   2.988   3.800   7.734  0.5190 -1.4372  0.1033
   77SLPC  C211 6995   3.197   3.716   7.742  0.6374  0.1516  0.3205
   77SLPC  H11R 6996   3.271   3.671   7.672  1.0637 -0.5195  1.1784
   77SLPC  H11S 6997   3.154   3.628   7.794  1.3975  1.1425  2.7368
   77SLPC  C212 6998   3.273   3.815   7.827 -0.0844 -0.0551  0.0982
   77SLPC  H12R 6999   3.296   3.909   7.776  2.3791 -0.9558 -0.6109
   77SLPC  C213 7000   3.301   3.790   7.958 -0.0603  0.0570 -0.1441
   77SLPC  H13R 7001   3.361   3.859   8.019 -0.7352  0.9789 -0.5150
   77SLPC  C214 7002   3.276   3.659   8.028  0.0983  0.1388  0.4843
   77SLPC  H14R 7003   3.363   3.612   8.079  0.9159 -0.1022 -1.0956
   77SLPC  H14S 7004   3.252   3.576   7.959  1.5287 -1.2936  1.6484
   77SLPC  C215 7005   3.147   3.671   8.111 -0.0398 -0.1495  0.0252
   77SLPC  H15R 7006   3.057   3.671   8.046  1.5262 -1.3229 -2.2971
   77SLPC  H15S 7007   3.156   3.768   8.164  0.9964  2.0884 -3.8282
   77SLPC  C216 7008   3.127   3.560   8.218 -0.3447  0.0269 -0.3505
   77SLPC  H16R 7009   3.225   3.552   8.270  1.0504  2.0178 -2.4927
   77SLPC  H16S 7010   3.102   3.460   8.175  0.5433  0.1641 -1.1993
   77SLPC  C217 7011   3.016   3.607   8.322 -0.0449  0.4941  0.3888
   77SLPC  H17R 7012   3.065   3.697   8.364  1.4823 -0.4181  0.6104
   77SLPC  H17S 7013   3.012   3.535   8.407  0.2268 -0.4757 -0.4072
   77SLPC  C218 7014   2.881   3.638   8.254  0.2360 -0.1825 -0.7109
   77SLPC  H18R 7015   2.859   3.543   8.202  0.4180 -1.2605  1.1023
   77SLPC  H18S 7016   2.882   3.726   8.186 -0.8506 -0.2580 -0.8392
   77SLPC  H18T 7017   2.809   3.656   8.337  1.5194  1.3773  0.1528
   77SLPC   C33 7018   3.012   3.649   6.791 -0.9143 -0.1748 -0.0575
   77SLPC   H3X 7019   3.062   3.740   6.830 -2.4478  0.9092 -0.5183
   77SLPC   H3Y 7020   3.077   3.568   6.831  0.6478  0.3565 -1.3959
   77SLPC   C34 7021   2.874   3.624   6.844  0.3889  0.5405 -0.1041
   77SLPC   H4X 7022   2.819   3.556   6.775 -0.0969  0.3715  0.4449
   77SLPC   H4Y 7023   2.825   3.724   6.841 -3.0307 -1.0324 -1.6883
   77SLPC   C35 7024   2.869   3.574   6.992  0.8407  0.5848 -0.2795
   77SLPC   H5X 7025   2.919   3.656   7.047  2.6609 -1.3820  1.1612
   77SLPC   H5Y 7026   2.925   3.481   7.013 -2.0580 -1.5415 -1.3801
   77SLPC   C36 7027   2.732   3.542   7.046  0.9915  0.5773  0.4166
   77SLPC   H6X 7028   2.700   3.448   6.996  1.8040  0.1139  0.7420
   77SLPC   H6Y 7029   2.663   3.622   7.012  0.0513 -0.7945 -1.1113
   77SLPC   C37 7030   2.729   3.538   7.197 -0.2990 -0.0474  0.3772
   77SLPC   H7X 7031   2.787   3.450   7.232  1.4784  0.4915 -1.0491
   77SLPC   H7Y 7032   2.621   3.530   7.224  0.3766 -0.8683  3.1563
   77SLPC   C38 7033   2.796   3.648   7.275  0.5245 -0.6047  0.2035
   77SLPC   H8X 7034   2.793   3.741   7.215  1.9668 -0.7373 -0.1082
   77SLPC   H8Y 7035   2.905   3.633   7.285  0.4184 -1.4855  0.1539
   77SLPC   C39 7036   2.736   3.652   7.419  0.4274 -0.2724  0.3319
   77SLPC   H9X 7037   2.628   3.630   7.403  0.4493  0.7154 -1.3837
   77SLPC   H9Y 7038   2.752   3.754   7.460 -1.3052  0.6552 -1.1601
   77SLPC  C310 7039   2.804   3.540   7.497  0.0660 -0.0228 -0.5140
   77SLPC  H10X 7040   2.915   3.540   7.487 -0.0002 -1.2978 -1.3769
   77SLPC  H10Y 7041   2.774   3.453   7.436  0.9578  0.2152 -1.3308
   77SLPC  C311 7042   2.758   3.529   7.644 -0.1385 -0.0441  0.3916
   77SLPC  H11X 7043   2.662   3.473   7.646  1.0963 -2.3182 -0.4715
   77SLPC  H11Y 7044   2.748   3.631   7.689  0.2026 -0.3914  1.2840
   77SLPC  C312 7045   2.864   3.462   7.733  0.3718  0.6575  0.1412
   77SLPC  H12X 7046   2.953   3.529   7.733  0.4876  0.6387  3.2247
   77SLPC  H12Y 7047   2.897   3.362   7.697  0.6038  0.7596  0.0667
   77SLPC  C313 7048   2.820   3.439   7.882  0.4795  0.1677  0.4911
   77SLPC  H13X 7049   2.795   3.539   7.922  1.4690 -0.3604  2.5398
   77SLPC  H13Y 7050   2.909   3.398   7.934  0.2235 -1.8044 -0.5206
   77SLPC  C314 7051   2.719   3.325   7.897 -0.4591  0.0205 -0.0379
   77SLPC  H14X 7052   2.760   3.235   7.846 -0.0119 -0.3996  1.0271
   77SLPC  H14Y 7053   2.628   3.360   7.844  0.7258  1.3242 -1.2781
   77SLPC  C315 7054   2.691   3.297   8.045  0.2998 -0.1162  0.8690
   77SLPC  H15X 7055   2.608   3.223   8.051 -2.9583  3.0971 -0.5089
   77SLPC  H15Y 7056   2.657   3.389   8.097 -0.6679 -0.8545  1.5676
   77SLPC  C316 7057   2.818   3.250   8.119  0.1850 -0.1273  0.0357
   77SLPC  H16X 7058   2.900   3.324   8.110  1.0808 -1.3178 -2.4817
   77SLPC  H16Y 7059   2.852   3.153   8.077  0.3822 -0.1478  0.2492
   77SLPC  C317 7060   2.790   3.229   8.269 -0.2278  0.1026 -0.4507
   77SLPC  H17X 7061   2.718   3.148   8.294  0.1760  0.6592  3.0196
   77SLPC  H17Y 7062   2.742   3.326   8.297 -0.2043  0.4758 -1.6488
   77SLPC  C318 7063   2.910   3.213   8.360 -0.8828  0.0437 -0.2686
   77SLPC  H18X 7064   2.964   3.307   8.385 -1.7384  0.7675 -1.0915
   77SLPC  H18Y 7065   2.976   3.131   8.326  1.2271  2.5118 -2.5205
   77SLPC  H18Z 7066   2.886   3.164   8.457 -0.2518 -0.6695 -0.4576
   78SLPC     N 7067   0.491   6.137   6.266  0.1678 -0.2672  0.7163
   78SLPC   C13 7068   0.371   6.228   6.235  0.1064  1.0038 -0.3848
   78SLPC  H13A 7069   0.396   6.330   6.259 -0.9078  1.3307 -0.6466
   78SLPC  H13B 7070   0.352   6.217   6.129 -4.3916  3.7874 -0.1450
   78SLPC  H13C 7071   0.281   6.200   6.288  0.3788 -2.4435 -1.4714
   78SLPC   C14 7072   0.484   6.012   6.182 -0.1946  0.2898  0.6924
   78SLPC  H14A 7073   0.507   6.035   6.079  0.2190  0.2313  0.7683
   78SLPC  H14B 7074   0.558   5.938   6.212 -0.4452 -1.2229 -2.0717
   78SLPC  H14C 7075   0.385   5.968   6.179 -0.2196  0.2999  1.3023
   78SLPC   C15 7076   0.478   6.100   6.412 -0.1656  0.1328  0.4203
   78SLPC  H15A 7077   0.382   6.061   6.441  0.4082 -0.0966  2.1390
   78SLPC  H15B 7078   0.559   6.036   6.442 -0.2114 -0.4300 -0.6016
   78SLPC  H15C 7079   0.500   6.189   6.470  0.6968 -0.3459  0.8471
   78SLPC   C12 7080   0.620   6.220   6.247  0.1056 -0.1457  0.4620
   78SLPC  H12A 7081   0.625   6.259   6.147 -1.7466 -1.0028  0.0084
   78SLPC  H12B 7082   0.703   6.152   6.245 -0.7260 -1.1594 -0.3950
   78SLPC   C11 7083   0.644   6.339   6.339  0.1987 -0.2763 -0.4504
   78SLPC  H11A 7084   0.748   6.367   6.311 -0.1004 -0.1609 -1.4863
   78SLPC  H11B 7085   0.641   6.312   6.447 -0.0596  3.5465  0.6137
   78SLPC     P 7086   0.481   6.537   6.393  0.1780 -0.2118 -0.0238
   78SLPC   O13 7087   0.572   6.630   6.463  0.0851 -0.3629 -0.5220
   78SLPC   O14 7088   0.372   6.593   6.309  0.3077 -0.7488  0.8295
   78SLPC   O12 7089   0.568   6.454   6.298  0.2669  0.1132 -0.5455
   78SLPC   O11 7090   0.427   6.429   6.496  0.6292  0.3753 -0.0631
   78SLPC    C1 7091   0.285   6.434   6.526  0.2388  0.1697 -0.1590
   78SLPC    HA 7092   0.224   6.422   6.434 -1.9022 -3.2812  1.4873
   78SLPC    HB 7093   0.263   6.344   6.588 -0.0335 -1.0275 -1.9406
   78SLPC    C2 7094   0.258   6.548   6.624 -1.1489 -0.1295  0.4211
   78SLPC    HS 7095   0.275   6.643   6.569 -1.7773  0.5098  1.3033
   78SLPC   O21 7096   0.350   6.532   6.730 -0.1835  0.3314 -0.5423
   78SLPC   C21 7097   0.365   6.640   6.806  0.3913 -0.0313  0.0538
   78SLPC   O22 7098   0.336   6.755   6.777 -0.0135 -0.4215  0.0952
   78SLPC   C22 7099   0.422   6.604   6.941  0.4521 -0.1265  0.2566
   78SLPC   H2R 7100   0.415   6.493   6.941 -1.5431 -0.0492 -0.8040
   78SLPC   H2S 7101   0.526   6.639   6.955  0.7301 -1.1628  0.8642
   78SLPC    C3 7102   0.109   6.581   6.669  0.3698  0.5273 -0.8232
   78SLPC    HX 7103   0.040   6.538   6.593 -0.0485 -2.5971  1.1667
   78SLPC    HY 7104   0.081   6.689   6.678 -1.0065  0.2077 -0.9848
   78SLPC   O31 7105   0.083   6.523   6.805  0.8127 -0.5133  0.3658
   78SLPC   C31 7106   0.076   6.388   6.810 -0.4951 -0.4103 -0.2397
   78SLPC   O32 7107   0.076   6.313   6.714  0.0211  0.4716 -0.3416
   78SLPC   C32 7108   0.086   6.338   6.955  0.3103  0.5949 -0.5742
   78SLPC   H2X 7109   0.109   6.424   7.021  1.8166 -1.0394  1.1556
   78SLPC   H2Y 7110   0.166   6.262   6.964 -0.4576 -0.2231 -0.5120
   78SLPC   C23 7111   0.324   6.645   7.055 -0.4377 -0.4914  0.1691
   78SLPC   H3R 7112   0.221   6.605   7.050  0.0586 -1.9634  1.2209
   78SLPC   H3S 7113   0.312   6.756   7.062 -0.2658 -0.4750  0.2096
   78SLPC   C24 7114   0.386   6.600   7.182 -0.0817 -0.2927 -0.0933
   78SLPC   H4R 7115   0.487   6.647   7.181 -0.6495  1.0028 -2.1462
   78SLPC   H4S 7116   0.402   6.491   7.198 -1.1675 -0.5268 -0.5244
   78SLPC   C25 7117   0.304   6.662   7.301  0.3180 -0.2106 -0.0389
   78SLPC   H5R 7118   0.205   6.614   7.314 -1.1353  2.6661  0.2995
   78SLPC   H5S 7119   0.288   6.771   7.295  1.1640 -0.1231 -0.8536
   78SLPC   C26 7120   0.362   6.638   7.440 -0.3522  0.5382 -0.3254
   78SLPC   H6R 7121   0.471   6.658   7.438 -0.4237  1.2002  1.1651
   78SLPC   H6S 7122   0.342   6.531   7.464  1.3934  0.5057  1.1481
   78SLPC   C27 7123   0.294   6.734   7.543 -0.3945  0.6530  0.0874
   78SLPC   H7R 7124   0.184   6.719   7.547 -0.5349  1.7896  0.9010
   78SLPC   H7S 7125   0.313   6.827   7.487 -1.3635  0.1768 -1.0790
   78SLPC   C28 7126   0.363   6.729   7.681 -0.0554  0.1712  0.3106
   78SLPC   H8R 7127   0.343   6.825   7.732 -0.4339  1.4208 -2.0299
   78SLPC   H8S 7128   0.474   6.736   7.672 -0.1728  3.7301  0.3452
   78SLPC   C29 7129   0.327   6.615   7.775 -0.0718 -0.1105 -0.1550
   78SLPC   H9R 7130   0.269   6.531   7.734 -1.4060  1.1261 -0.8881
   78SLPC  C210 7131   0.371   6.615   7.899  0.0951 -0.0020  0.7277
   78SLPC  H10R 7132   0.351   6.529   7.964 -2.9519 -0.0157 -0.0966
   78SLPC  C211 7133   0.434   6.728   7.974  0.3034  0.5255 -1.0021
   78SLPC  H11R 7134   0.424   6.700   8.081 -1.5813 -2.3776 -1.8046
   78SLPC  H11S 7135   0.377   6.822   7.963 -0.7605  0.0459  0.2069
   78SLPC  C212 7136   0.581   6.751   7.939 -0.2803  0.6035  0.3810
   78SLPC  H12R 7137   0.626   6.676   7.873  0.8606  1.1589  0.5136
   78SLPC  C213 7138   0.660   6.847   7.985  0.4249  0.1253  0.4018
   78SLPC  H13R 7139   0.762   6.852   7.943  0.3840 -0.4987  0.2194
   78SLPC  C214 7140   0.622   6.951   8.080  0.8124  0.3837  0.2784
   78SLPC  H14R 7141   0.511   6.961   8.082  0.8208  0.6029 -0.2635
   78SLPC  H14S 7142   0.657   7.049   8.039  1.0969  1.0777  2.0867
   78SLPC  C215 7143   0.673   6.927   8.223  0.0454  0.2699  0.9036
   78SLPC  H15R 7144   0.656   7.013   8.292 -0.4702  2.0506 -1.3271
   78SLPC  H15S 7145   0.783   6.914   8.216  0.1045  0.6584  1.0587
   78SLPC  C216 7146   0.618   6.803   8.298  0.1337 -0.6693 -0.3543
   78SLPC  H16R 7147   0.693   6.723   8.279 -0.0700 -0.3298 -2.9332
   78SLPC  H16S 7148   0.515   6.784   8.262 -0.6087  0.9525  0.8016
   78SLPC  C217 7149   0.611   6.834   8.450  0.2466 -0.5885  0.1331
   78SLPC  H17R 7150   0.525   6.903   8.463  0.9221  0.1451  0.8148
   78SLPC  H17S 7151   0.699   6.896   8.479  0.9942 -1.3591 -0.4354
   78SLPC  C218 7152   0.581   6.711   8.532 -0.5742  0.2453 -0.2242
   78SLPC  H18R 7153   0.495   6.651   8.494 -0.4805 -0.1871  0.2367
   78SLPC  H18S 7154   0.564   6.743   8.636  0.1205  0.0413 -0.0396
   78SLPC  H18T 7155   0.665   6.638   8.534  0.2790  1.0267 -2.7466
   78SLPC   C33 7156  -0.048   6.267   6.991 -0.1110 -0.3271 -0.3710
   78SLPC   H3X 7157  -0.085   6.207   6.905 -1.9671 -0.7562  0.6802
   78SLPC   H3Y 7158  -0.131   6.338   7.014 -1.2664 -1.7240 -0.0857
   78SLPC   C34 7159  -0.028   6.177   7.114 -0.0162 -0.2198  0.1279
   78SLPC   H4X 7160   0.063   6.113   7.106  0.4049  0.3395  0.4096
   78SLPC   H4Y 7161  -0.120   6.116   7.128 -1.1361  1.1956 -0.8388
   78SLPC   C35 7162  -0.001   6.265   7.241  0.4966 -0.4642 -0.1834
   78SLPC   H5X 7163  -0.098   6.302   7.282 -0.0039 -4.8799  3.5363
   78SLPC   H5Y 7164   0.075   6.345   7.230  2.9263 -2.4380  1.1827
   78SLPC   C36 7165   0.064   6.183   7.358  0.4226 -0.3178 -0.7000
   78SLPC   H6X 7166   0.174   6.168   7.347  0.6689  0.0509  0.9614
   78SLPC   H6Y 7167   0.013   6.087   7.381  1.9857 -0.8028  0.9788
   78SLPC   C37 7168   0.071   6.268   7.486  0.8213 -0.9388 -0.6095
   78SLPC   H7X 7169  -0.033   6.296   7.512  0.9387 -0.5839 -0.5120
   78SLPC   H7Y 7170   0.133   6.359   7.467 -0.0941 -0.8729 -3.8293
   78SLPC   C38 7171   0.123   6.186   7.604  0.1616  0.2171 -0.1581
   78SLPC   H8X 7172   0.220   6.142   7.576  0.2447 -0.1581  0.7063
   78SLPC   H8Y 7173   0.060   6.096   7.623  0.7537  0.0464  1.0250
   78SLPC   C39 7174   0.143   6.265   7.737 -0.6993  0.3302  0.5327
   78SLPC   H9X 7175   0.069   6.348   7.747 -0.0990  0.9164  0.1786
   78SLPC   H9Y 7176   0.242   6.315   7.735 -0.2879 -0.4638 -1.2894
   78SLPC  C310 7177   0.116   6.184   7.861 -0.0814  0.0620 -0.2929
   78SLPC  H10X 7178   0.151   6.078   7.856 -0.3603  0.0005 -1.1502
   78SLPC  H10Y 7179   0.006   6.174   7.874 -0.0441  0.0543  0.0216
   78SLPC  C311 7180   0.183   6.254   7.982  0.3305 -0.1239 -0.8274
   78SLPC  H11X 7181   0.136   6.353   7.998  0.0432 -0.7090  2.7656
   78SLPC  H11Y 7182   0.293   6.258   7.968  0.6168  1.2323  1.3794
   78SLPC  C312 7183   0.157   6.167   8.107 -0.3383 -0.5855 -0.2548
   78SLPC  H12X 7184   0.211   6.070   8.104 -0.5003 -0.6906  0.1392
   78SLPC  H12Y 7185   0.050   6.148   8.131  0.0155 -0.2313  1.8684
   78SLPC  C313 7186   0.203   6.231   8.245  0.9601  0.0776  0.3255
   78SLPC  H13X 7187   0.180   6.340   8.247  1.5637  0.2423 -0.7377
   78SLPC  H13Y 7188   0.313   6.220   8.255  1.0277  1.0559  0.7833
   78SLPC  C314 7189   0.133   6.167   8.369 -0.0606  0.4799 -0.0908
   78SLPC  H14X 7190   0.023   6.157   8.361  0.0476  0.4365 -2.2097
   78SLPC  H14Y 7191   0.148   6.236   8.454 -0.4168 -0.3207  0.6268
   78SLPC  C315 7192   0.206   6.035   8.410 -0.2157 -0.1186  0.1886
   78SLPC  H15X 7193   0.316   6.048   8.423  0.5143 -3.2693 -1.8826
   78SLPC  H15Y 7194   0.201   5.966   8.324  3.7361 -1.4378  0.8125
   78SLPC  C316 7195   0.143   5.965   8.536  0.0190 -0.1940  0.1122
   78SLPC  H16X 7196   0.033   5.969   8.525  0.0229  1.6041  0.5117
   78SLPC  H16Y 7197   0.178   6.010   8.631  0.6300  0.4278 -0.3973
   78SLPC  C317 7198   0.177   5.813   8.537  0.2145 -0.1267  0.2636
   78SLPC  H17X 7199   0.282   5.800   8.570 -0.2212 -0.1459  1.7258
   78SLPC  H17Y 7200   0.158   5.785   8.431 -0.1587 -0.7149  0.4809
   78SLPC  C318 7201   0.082   5.729   8.622 -0.2581 -0.2920  0.5969
   78SLPC  H18X 7202   0.087   5.751   8.731 -0.7078 -0.8012  0.7276
   78SLPC  H18Y 7203   0.093   5.621   8.597  1.3739 -0.3188  1.3006
   78SLPC  H18Z 7204  -0.019   5.741   8.578 -0.0799 -2.1209 -0.4367
   79SLPC     N 7205   2.552   0.882   6.128  0.0467  0.3571  0.3880
   79SLPC   C13 7206   2.489   0.747   6.089 -0.1201  0.4014 -0.4280
   79SLPC  H13A 7207   2.381   0.742   6.093 -0.1192 -1.3152 -1.8599
   79SLPC  H13B 7208   2.510   0.736   5.984  0.0939 -0.5810 -0.2868
   79SLPC  H13C 7209   2.538   0.661   6.133  1.0372  1.1960 -0.1018
   79SLPC   C14 7210   2.502   0.997   6.049  0.2468  0.0180  0.3185
   79SLPC  H14A 7211   2.401   0.982   6.014  0.1113  0.4907  0.5003
   79SLPC  H14B 7212   2.503   1.087   6.108 -1.0191 -1.7220  3.1964
   79SLPC  H14C 7213   2.552   0.992   5.953  0.0317 -1.6766  0.2684
   79SLPC   C15 7214   2.703   0.878   6.098  0.3869 -0.0148  0.3627
   79SLPC  H15A 7215   2.716   0.866   5.992  2.4824 -1.7182  0.7362
   79SLPC  H15B 7216   2.758   0.958   6.145 -1.8447  1.1119  1.2263
   79SLPC  H15C 7217   2.744   0.788   6.142  0.8050  0.7557  1.5952
   79SLPC   C12 7218   2.515   0.897   6.273 -0.2841  0.1691  0.6225
   79SLPC  H12A 7219   2.524   0.797   6.314  1.0120  0.7060  1.7239
   79SLPC  H12B 7220   2.410   0.922   6.272 -0.7047 -1.4860 -0.6216
   79SLPC   C11 7221   2.593   0.996   6.360  0.6973  0.5691 -0.0200
   79SLPC  H11A 7222   2.542   0.994   6.458 -2.2155  0.5554 -1.4496
   79SLPC  H11B 7223   2.575   1.098   6.319 -1.3209  0.1841 -0.1925
   79SLPC     P 7224   2.793   0.856   6.448  0.1769 -0.3292  0.3439
   79SLPC   O13 7225   2.692   0.748   6.455 -0.1572  0.0553 -0.2502
   79SLPC   O14 7226   2.930   0.824   6.396 -0.5608 -0.1608  0.1388
   79SLPC   O12 7227   2.734   0.978   6.365 -0.3576 -0.4259  0.0913
   79SLPC   O11 7228   2.812   0.920   6.590 -0.8751 -0.0053 -0.0560
   79SLPC    C1 7229   2.914   1.021   6.603  0.1069  0.3495  0.2393
   79SLPC    HA 7230   3.017   0.983   6.587  1.9083  2.9259  4.0813
   79SLPC    HB 7231   2.905   1.104   6.529 -0.1306 -0.7608 -1.0096
   79SLPC    C2 7232   2.921   1.070   6.747  0.2242  0.0897 -0.5477
   79SLPC    HS 7233   2.998   1.149   6.759  1.8273 -1.3894 -0.6890
   79SLPC   O21 7234   2.948   0.966   6.847 -0.1375  0.4645  0.7328
   79SLPC   C21 7235   3.069   0.923   6.841 -0.2259 -0.1069 -0.2701
   79SLPC   O22 7236   3.154   0.952   6.762 -0.1617  0.1148  0.5766
   79SLPC   C22 7237   3.089   0.820   6.949 -0.0042 -0.2732 -0.7466
   79SLPC   H2R 7238   3.011   0.743   6.932 -1.3251  0.6048  1.0625
   79SLPC   H2S 7239   3.197   0.795   6.940  0.2001  0.0119  0.6877
   79SLPC    C3 7240   2.788   1.152   6.783  1.1445 -0.0533  0.0747
   79SLPC    HX 7241   2.700   1.098   6.742  1.0780  1.1774 -1.4774
   79SLPC    HY 7242   2.801   1.245   6.724 -0.8167 -0.1065 -0.5212
   79SLPC   O31 7243   2.785   1.180   6.921 -0.2667  0.0787  0.0211
   79SLPC   C31 7244   2.717   1.086   6.991  0.1087  0.2596 -0.7827
   79SLPC   O32 7245   2.663   0.993   6.941 -0.2329  0.1990  0.4436
   79SLPC   C32 7246   2.706   1.117   7.142  0.0773  0.0785 -0.4308
   79SLPC   H2X 7247   2.597   1.104   7.161 -0.0517  0.3815 -0.9584
   79SLPC   H2Y 7248   2.750   1.217   7.166 -0.1769 -0.0547  0.6787
   79SLPC   C23 7249   3.082   0.872   7.096  0.0899 -0.0836 -0.5086
   79SLPC   H3R 7250   2.978   0.908   7.112 -0.2636 -0.1188 -2.4879
   79SLPC   H3S 7251   3.142   0.963   7.119 -1.4309  0.4985  1.3964
   79SLPC   C24 7252   3.132   0.773   7.215 -0.2440  1.0275 -0.1098
   79SLPC   H4R 7253   3.241   0.753   7.202  0.2756  1.6611  2.6972
   79SLPC   H4S 7254   3.069   0.682   7.203 -1.2008  1.6480  0.1421
   79SLPC   C25 7255   3.111   0.829   7.353 -0.2802  0.4597  0.1323
   79SLPC   H5R 7256   3.008   0.866   7.370 -0.2152  0.2066  1.1494
   79SLPC   H5S 7257   3.166   0.924   7.337 -2.2937  1.2338 -2.9547
   79SLPC   C26 7258   3.175   0.759   7.465  0.1894  1.0866  0.5028
   79SLPC   H6R 7259   3.282   0.741   7.441  0.4392  2.5938  0.3975
   79SLPC   H6S 7260   3.128   0.660   7.482 -0.9830  1.9184  2.5293
   79SLPC   C27 7261   3.174   0.840   7.599 -0.1227 -0.4577 -0.0982
   79SLPC   H7R 7262   3.231   0.933   7.582 -1.6155  0.1772 -1.8722
   79SLPC   H7S 7263   3.214   0.784   7.687  1.0305 -0.2561 -0.4744
   79SLPC   C28 7264   3.032   0.886   7.641 -0.0389 -0.2448  1.1936
   79SLPC   H8R 7265   2.997   0.957   7.562  0.4010 -1.4741 -0.1415
   79SLPC   H8S 7266   3.032   0.952   7.730  1.6810 -0.1316  1.1422
   79SLPC   C29 7267   2.946   0.764   7.671 -0.0448  0.3794  0.1341
   79SLPC   H9R 7268   2.947   0.690   7.589 -0.4274  1.0103 -0.4605
   79SLPC  C210 7269   2.877   0.733   7.777 -0.0966 -0.1910 -0.1369
   79SLPC  H10R 7270   2.832   0.632   7.780 -1.6108  0.4427  2.3803
   79SLPC  C211 7271   2.866   0.808   7.912  0.0206 -0.5429  0.3161
   79SLPC  H11R 7272   2.780   0.876   7.895  1.6955  1.1704 -2.0314
   79SLPC  H11S 7273   2.957   0.867   7.938 -1.8465  3.7880 -1.9462
   79SLPC  C212 7274   2.843   0.719   8.029  0.2199 -1.1358  0.7571
   79SLPC  H12R 7275   2.867   0.613   8.014  0.6803 -1.0347  0.7841
   79SLPC  C213 7276   2.794   0.762   8.145  0.0063 -0.1537 -0.2265
   79SLPC  H13R 7277   2.799   0.694   8.231 -0.8893 -0.7470 -0.6234
   79SLPC  C214 7278   2.748   0.901   8.185  0.5534 -0.3053  0.4175
   79SLPC  H14R 7279   2.640   0.904   8.210  1.0124 -1.3867  2.7533
   79SLPC  H14S 7280   2.755   0.979   8.106 -0.3334 -2.2984 -1.7486
   79SLPC  C215 7281   2.820   0.963   8.307 -0.3859 -0.3478  0.1658
   79SLPC  H15R 7282   2.824   0.892   8.393  4.9017 -0.4552  0.1097
   79SLPC  H15S 7283   2.756   1.049   8.340  1.7744  2.1589 -1.7528
   79SLPC  C216 7284   2.969   1.004   8.265  0.0984  0.0090 -0.2109
   79SLPC  H16R 7285   2.960   1.068   8.175  0.8752  1.7029  0.8693
   79SLPC  H16S 7286   3.019   0.909   8.236 -0.9552 -0.1659 -1.5614
   79SLPC  C217 7287   3.056   1.079   8.365  0.3636  0.4936  0.5139
   79SLPC  H17R 7288   3.109   1.002   8.426  3.2290  0.1059 -2.1879
   79SLPC  H17S 7289   3.000   1.146   8.433  1.8954  1.7902  0.5578
   79SLPC  C218 7290   3.175   1.166   8.312 -0.3446  0.7849  0.7151
   79SLPC  H18R 7291   3.230   1.119   8.227  0.1384  1.0754  0.8630
   79SLPC  H18S 7292   3.249   1.191   8.390  0.5753 -1.7276  0.7347
   79SLPC  H18T 7293   3.138   1.265   8.277  2.3968  1.7937  0.4578
   79SLPC   C33 7294   2.778   1.016   7.233 -0.3841  0.1831 -0.3850
   79SLPC   H3X 7295   2.889   1.024   7.230  0.1101 -4.1952  0.3886
   79SLPC   H3Y 7296   2.762   0.911   7.200  0.2636 -0.1161  0.2395
   79SLPC   C34 7297   2.724   1.018   7.375  0.4893  0.5376 -0.0271
   79SLPC   H4X 7298   2.754   0.925   7.428 -1.9692  0.9486  2.2997
   79SLPC   H4Y 7299   2.614   1.024   7.389  0.2114 -0.3750 -1.6241
   79SLPC   C35 7300   2.794   1.126   7.463  0.0889  0.4541  0.2518
   79SLPC   H5X 7301   2.759   1.220   7.414 -1.9710 -0.3232  0.1448
   79SLPC   H5Y 7302   2.904   1.113   7.457  0.1240 -0.4708  2.2609
   79SLPC   C36 7303   2.744   1.120   7.611  0.9477  0.1911  0.1959
   79SLPC   H6X 7304   2.774   1.022   7.653  1.5306 -0.3994 -1.5257
   79SLPC   H6Y 7305   2.633   1.128   7.616  1.0176  2.6794 -0.5672
   79SLPC   C37 7306   2.795   1.240   7.696  0.1328  0.9827  0.1567
   79SLPC   H7X 7307   2.770   1.341   7.658 -0.1950  0.1997 -1.7993
   79SLPC   H7Y 7308   2.906   1.237   7.695  0.1315 -2.1263 -0.5181
   79SLPC   C38 7309   2.754   1.218   7.839  0.1206  0.9059  0.9077
   79SLPC   H8X 7310   2.806   1.131   7.883 -0.6619  1.0751  2.2298
   79SLPC   H8Y 7311   2.646   1.191   7.831  0.3580  0.4384 -1.3232
   79SLPC   C39 7312   2.791   1.333   7.934 -0.3877  0.0779  0.8655
   79SLPC   H9X 7313   2.743   1.421   7.886 -0.7079 -0.1737  0.7142
   79SLPC   H9Y 7314   2.900   1.352   7.933 -0.0355 -1.6874  1.6170
   79SLPC  C310 7315   2.752   1.311   8.075 -0.5308 -0.2344  0.2089
   79SLPC  H10X 7316   2.784   1.210   8.108 -3.6436 -1.7311 -1.0026
   79SLPC  H10Y 7317   2.643   1.328   8.091  0.0309  2.2363  2.0413
   79SLPC  C311 7318   2.822   1.423   8.157  0.0502 -0.1908  0.4236
   79SLPC  H11X 7319   2.807   1.522   8.108 -2.0472 -1.4996 -1.8245
   79SLPC  H11Y 7320   2.931   1.408   8.141 -0.0560 -0.2222 -0.2840
   79SLPC  C312 7321   2.792   1.429   8.308  0.0001 -0.0714 -0.2808
   79SLPC  H12X 7322   2.798   1.329   8.355  2.4522  0.1988  0.1146
   79SLPC  H12Y 7323   2.691   1.474   8.323 -0.0733 -0.1828 -0.4306
   79SLPC  C313 7324   2.883   1.518   8.389 -0.0772  0.3743 -0.8933
   79SLPC  H13X 7325   2.875   1.623   8.356  0.5087  1.0863  1.1073
   79SLPC  H13Y 7326   2.986   1.481   8.373 -0.9165 -1.6003 -2.1235
   79SLPC  C314 7327   2.850   1.514   8.539 -0.1645  0.7522  0.0476
   79SLPC  H14X 7328   2.861   1.409   8.570 -0.0275  1.2015  1.5728
   79SLPC  H14Y 7329   2.741   1.534   8.549  0.0228  1.6815  0.3867
   79SLPC  C315 7330   2.940   1.611   8.623  0.3166  0.2771  0.3909
   79SLPC  H15X 7331   2.935   1.717   8.590 -0.3396  0.5731  1.4196
   79SLPC  H15Y 7332   3.043   1.573   8.604  0.0130  0.4500 -1.8922
   79SLPC  C316 7333   2.927   1.614   8.781 -0.9448  0.4450  0.3536
   79SLPC  H16X 7334   2.917   1.508   8.815 -2.2545  0.5611  0.3826
   79SLPC  H16Y 7335   2.830   1.667   8.793 -1.6234 -0.5418 -0.5602
   79SLPC  C317 7336   3.026   1.694   8.869  0.1482  0.2540 -0.0344
   79SLPC  H17X 7337   3.026   1.799   8.834  1.6963  0.8912  1.7489
   79SLPC  H17Y 7338   3.131   1.662   8.852  0.2827 -0.4108  1.7822
   79SLPC  C318 7339   2.993   1.692   9.015  0.0491  0.2823  0.3035
   79SLPC  H18X 7340   3.034   1.600   9.062  2.4574 -0.0385 -2.1962
   79SLPC  H18Y 7341   2.884   1.694   9.039  0.2089  0.9019  1.0254
   79SLPC  H18Z 7342   3.036   1.777   9.072 -2.2493  1.4543  0.4358
   80SLPC     N 7343   3.613   6.403   5.917 -0.3268  0.4140 -0.3432
   80SLPC   C13 7344   3.690   6.524   5.871 -0.4113  0.5378  0.6405
   80SLPC  H13A 7345   3.794   6.501   5.858 -0.4039  1.6188 -1.8122
   80SLPC  H13B 7346   3.670   6.553   5.769 -0.1190 -1.0951  0.0961
   80SLPC  H13C 7347   3.669   6.607   5.937 -1.2912  0.6714  0.2157
   80SLPC   C14 7348   3.645   6.289   5.829  0.1418  0.3125  0.0090
   80SLPC  H14A 7349   3.607   6.198   5.873  1.7749 -0.5195 -0.2298
   80SLPC  H14B 7350   3.596   6.289   5.733 -2.2079 -0.3304  1.1142
   80SLPC  H14C 7351   3.750   6.278   5.809  0.1153  2.0151 -1.2161
   80SLPC   C15 7352   3.464   6.439   5.920 -0.1779  0.9952 -0.6483
   80SLPC  H15A 7353   3.436   6.529   5.972 -1.6755 -1.2601  2.8364
   80SLPC  H15B 7354   3.444   6.453   5.815  1.4606 -1.1382 -1.3178
   80SLPC  H15C 7355   3.399   6.360   5.954  0.6125  0.6547  0.1056
   80SLPC   C12 7356   3.648   6.365   6.059 -0.5199  0.1702  0.8013
   80SLPC  H12A 7357   3.754   6.345   6.057 -0.6693 -0.6113 -0.7664
   80SLPC  H12B 7358   3.614   6.265   6.083  0.9509 -0.6741 -0.4326
   80SLPC   C11 7359   3.640   6.467   6.174 -0.2582 -0.6750  0.1724
   80SLPC  H11A 7360   3.632   6.406   6.266 -0.1027  0.6806  1.1199
   80SLPC  H11B 7361   3.549   6.530   6.165  0.3033  0.2246  0.6514
   80SLPC     P 7362   3.873   6.519   6.274 -0.2076  0.0017 -0.0484
   80SLPC   O13 7363   3.910   6.386   6.237  0.0316 -0.5009 -0.4628
   80SLPC   O14 7364   3.978   6.619   6.259 -0.0983  0.4636  0.3591
   80SLPC   O12 7365   3.746   6.557   6.181 -0.0078 -0.4811 -0.0514
   80SLPC   O11 7366   3.815   6.524   6.423 -0.1921 -0.0443  0.0927
   80SLPC    C1 7367   3.739   6.641   6.468  0.8644  0.5792  0.1177
   80SLPC    HA 7368   3.718   6.721   6.393  2.1641 -0.5034 -1.4738
   80SLPC    HB 7369   3.641   6.602   6.503  0.2109 -0.9939 -3.1030
   80SLPC    C2 7370   3.791   6.708   6.598 -1.0728  0.3185 -0.4829
   80SLPC    HS 7371   3.890   6.752   6.576 -1.1848  0.0363 -1.6382
   80SLPC   O21 7372   3.795   6.618   6.709  0.0706  0.3208  0.4351
   80SLPC   C21 7373   3.916   6.561   6.737 -0.4591 -0.7193 -0.1882
   80SLPC   O22 7374   4.022   6.604   6.695  0.2295 -0.3049 -0.2570
   80SLPC   C22 7375   3.905   6.459   6.852 -0.2579 -0.1221 -0.1614
   80SLPC   H2R 7376   3.857   6.517   6.934  0.6679 -1.0554  1.0692
   80SLPC   H2S 7377   3.844   6.373   6.818  1.1335 -0.9776 -0.5555
   80SLPC    C3 7378   3.699   6.834   6.634  0.2382  0.0428 -0.8297
   80SLPC    HX 7379   3.591   6.816   6.616 -0.3128  0.8457  1.3363
   80SLPC    HY 7380   3.730   6.922   6.574  0.7321  0.5381  0.1283
   80SLPC   O31 7381   3.707   6.866   6.776  0.4006  0.3879  0.0074
   80SLPC   C31 7382   3.809   6.934   6.820  0.1917  0.7541  1.0994
   80SLPC   O32 7383   3.894   6.986   6.747  0.0939 -0.4363  0.3915
   80SLPC   C32 7384   3.810   6.930   6.969  0.0302  0.2806 -0.5752
   80SLPC   H2X 7385   3.910   6.898   7.004 -1.0288  0.1748  2.7598
   80SLPC   H2Y 7386   3.741   6.851   7.007  2.6351 -1.0286  1.8528
   80SLPC   C23 7387   4.048   6.408   6.893 -0.2737 -0.1441 -0.5829
   80SLPC   H3R 7388   4.110   6.492   6.931  0.2224 -1.3030  1.2623
   80SLPC   H3S 7389   4.098   6.379   6.798 -0.7689  1.4291 -1.3662
   80SLPC   C24 7390   4.050   6.298   7.005 -0.2101 -0.9521 -0.2004
   80SLPC   H4R 7391   4.158   6.270   7.014 -0.0846 -0.5499 -0.4514
   80SLPC   H4S 7392   3.989   6.207   6.984 -2.5220 -0.0510  2.1592
   80SLPC   C25 7393   4.006   6.345   7.137 -0.4834 -0.1281 -0.3616
   80SLPC   H5R 7394   3.900   6.376   7.147 -0.2792  0.1292  1.2519
   80SLPC   H5S 7395   4.074   6.418   7.186 -0.8867 -1.2018  1.9040
   80SLPC   C26 7396   4.007   6.219   7.228 -0.1687  0.0063  0.4697
   80SLPC   H6R 7397   4.102   6.164   7.245  0.8185  1.1404 -1.1107
   80SLPC   H6S 7398   3.928   6.148   7.196  1.0538 -1.1285 -0.0866
   80SLPC   C27 7399   3.967   6.263   7.366  0.4990 -0.3653 -0.4469
   80SLPC   H7R 7400   3.860   6.287   7.354  0.6064  0.0855 -0.5486
   80SLPC   H7S 7401   4.028   6.350   7.400  1.4184 -1.4553  0.8094
   80SLPC   C28 7402   3.973   6.150   7.467  0.1447 -0.0387 -0.3372
   80SLPC   H8R 7403   4.079   6.145   7.498  0.4264  1.8702 -0.8802
   80SLPC   H8S 7404   3.936   6.055   7.423 -1.9200 -1.0000  3.0632
   80SLPC   C29 7405   3.886   6.188   7.587  0.5819 -0.0279 -0.3666
   80SLPC   H9R 7406   3.778   6.193   7.565  0.3087 -0.3741  0.8305
   80SLPC  C210 7407   3.927   6.201   7.712 -0.9802 -0.5043  0.3540
   80SLPC  H10R 7408   3.854   6.229   7.789 -1.2388 -1.1613  0.3522
   80SLPC  C211 7409   4.069   6.184   7.771  0.7386  1.0620  0.4296
   80SLPC  H11R 7410   4.099   6.282   7.815  0.7633  1.6110 -0.7513
   80SLPC  H11S 7411   4.149   6.163   7.696  0.1058  0.8058 -0.1802
   80SLPC  C212 7412   4.076   6.081   7.876 -0.2210  0.1550 -0.7714
   80SLPC  H12R 7413   4.075   5.976   7.844 -1.8742 -0.8495  2.1573
   80SLPC  C213 7414   4.079   6.110   8.010 -1.5116  0.6188  0.3389
   80SLPC  H13R 7415   4.088   6.028   8.083  0.6895 -0.9860 -1.5900
   80SLPC  C214 7416   4.098   6.245   8.077  0.2460  0.1279  0.4635
   80SLPC  H14R 7417   4.001   6.290   8.106  0.1791  2.0397 -2.3609
   80SLPC  H14S 7418   4.152   6.322   8.018  1.0840 -0.8292 -0.0548
   80SLPC  C215 7419   4.182   6.217   8.208  0.2501 -0.0498  0.8565
   80SLPC  H15R 7420   4.286   6.199   8.174 -0.2545 -1.4107 -0.0763
   80SLPC  H15S 7421   4.148   6.132   8.272 -0.5224  0.3563  0.9930
   80SLPC  C216 7422   4.190   6.347   8.297 -0.0876 -0.4902  0.1910
   80SLPC  H16R 7423   4.087   6.381   8.320  0.4459  1.2284  0.1893
   80SLPC  H16S 7424   4.232   6.431   8.237  1.4314  0.0150  1.8691
   80SLPC  C217 7425   4.278   6.337   8.425  0.6876  1.0758 -0.0548
   80SLPC  H17R 7426   4.217   6.271   8.491  0.9985 -1.5177 -2.1541
   80SLPC  H17S 7427   4.278   6.436   8.474  0.4823  0.5222  1.0906
   80SLPC  C218 7428   4.418   6.271   8.415 -0.5312  0.4006  0.0052
   80SLPC  H18R 7429   4.450   6.228   8.512 -1.9111  0.7651  0.6459
   80SLPC  H18S 7430   4.496   6.347   8.392  1.1803 -1.2921  0.0171
   80SLPC  H18T 7431   4.415   6.195   8.334  3.4328 -0.0821  0.1316
   80SLPC   C33 7432   3.784   7.069   7.023 -0.3040 -0.4636  0.9504
   80SLPC   H3X 7433   3.678   7.099   7.006  0.2262  0.8533 -0.2525
   80SLPC   H3Y 7434   3.845   7.140   6.964 -0.9979 -0.6242  0.0036
   80SLPC   C34 7435   3.829   7.091   7.168  0.0542  0.0690 -0.1624
   80SLPC   H4X 7436   3.940   7.095   7.177  0.2642  3.8328 -2.4759
   80SLPC   H4Y 7437   3.791   7.015   7.240  0.8334 -0.7734 -0.6083
   80SLPC   C35 7438   3.786   7.236   7.202 -0.1759  0.1633  0.2885
   80SLPC   H5X 7439   3.676   7.234   7.190 -0.2254 -1.4843  0.8727
   80SLPC   H5Y 7440   3.824   7.306   7.124  0.9231  0.0045  0.6597
   80SLPC   C36 7441   3.831   7.304   7.338  0.1389  0.4618 -0.0549
   80SLPC   H6X 7442   3.784   7.405   7.345 -1.5310 -0.1413 -1.7442
   80SLPC   H6Y 7443   3.941   7.313   7.346 -0.0231  2.0166  0.9620
   80SLPC   C37 7444   3.816   7.213   7.463  0.1278  0.4245  0.6584
   80SLPC   H7X 7445   3.859   7.268   7.549  0.3520  2.4538 -0.6791
   80SLPC   H7Y 7446   3.877   7.121   7.454  0.9898  0.8014  2.4104
   80SLPC   C38 7447   3.664   7.195   7.497  0.2346 -0.2371  0.5508
   80SLPC   H8X 7448   3.625   7.109   7.439 -0.7732 -0.5172  1.5938
   80SLPC   H8Y 7449   3.608   7.290   7.486  1.8686  0.6558 -0.3287
   80SLPC   C39 7450   3.654   7.155   7.646 -0.0997  0.0790  0.5231
   80SLPC   H9X 7451   3.550   7.167   7.683 -0.4237  1.2856 -0.6496
   80SLPC   H9Y 7452   3.732   7.218   7.694  1.0508  1.5264 -2.8943
   80SLPC  C310 7453   3.689   7.004   7.676  0.9039 -0.1074 -0.5808
   80SLPC  H10X 7454   3.784   6.977   7.626  0.8381 -2.1270  0.2936
   80SLPC  H10Y 7455   3.597   6.950   7.645 -0.3274 -0.0796  2.6605
   80SLPC  C311 7456   3.701   6.979   7.830 -0.3412  0.3954  0.6123
   80SLPC  H11X 7457   3.797   7.029   7.856  1.1831 -0.5237 -2.6618
   80SLPC  H11Y 7458   3.716   6.869   7.840  0.4961  0.6527  2.7377
   80SLPC  C312 7459   3.582   7.019   7.921 -0.3357  0.5496  0.0760
   80SLPC  H12X 7460   3.492   6.970   7.879 -1.0555  0.8717  1.1983
   80SLPC  H12Y 7461   3.568   7.128   7.904  0.2031  0.4923 -0.7821
   80SLPC  C313 7462   3.607   6.983   8.071 -0.2470  0.0074  0.1689
   80SLPC  H13X 7463   3.627   6.875   8.086 -2.0673 -0.3943 -0.0291
   80SLPC  H13Y 7464   3.514   7.005   8.127  0.3958  0.8227  0.9405
   80SLPC  C314 7465   3.722   7.069   8.134  0.2435 -0.3736  0.5617
   80SLPC  H14X 7466   3.700   7.175   8.108  1.7628  0.9573  4.0250
   80SLPC  H14Y 7467   3.820   7.044   8.087 -0.6127  0.9888 -2.1593
   80SLPC  C315 7468   3.733   7.061   8.279 -0.1442 -0.0728  0.3703
   80SLPC  H15X 7469   3.778   6.963   8.303 -1.0406 -1.5039 -3.1143
   80SLPC  H15Y 7470   3.636   7.075   8.332  2.0860  0.3949  4.7611
   80SLPC  C316 7471   3.822   7.178   8.334 -0.0199  0.7843  0.6923
   80SLPC  H16X 7472   3.913   7.181   8.270 -1.8453 -3.4651 -2.5728
   80SLPC  H16Y 7473   3.860   7.127   8.426  1.4769  1.2724  0.3794
   80SLPC  C317 7474   3.762   7.313   8.375  0.7710 -0.0393 -0.7385
   80SLPC  H17X 7475   3.663   7.319   8.324  0.4772 -2.9167 -0.6658
   80SLPC  H17Y 7476   3.837   7.383   8.334  1.6744  0.2801  1.3525
   80SLPC  C318 7477   3.757   7.344   8.524  0.8840  0.0340 -0.0751
   80SLPC  H18X 7478   3.696   7.276   8.588 -0.2162  0.2244 -0.8899
   80SLPC  H18Y 7479   3.707   7.443   8.524 -0.2110 -0.4952  0.7722
   80SLPC  H18Z 7480   3.858   7.356   8.570  1.9378 -1.3563 -1.8569
   81SAPS     N 7481   1.354   3.122  11.139  0.3016  0.3142 -0.5866
   81SAPS   HN1 7482   1.261   3.112  11.095  0.2372  1.4472 -0.7257
   81SAPS   HN2 7483   1.425   3.063  11.092  0.4467  0.3402 -0.4033
   81SAPS   HN3 7484   1.358   3.086  11.237 -0.3715 -2.2250 -1.4138
   81SAPS   C12 7485   1.378   3.267  11.135 -0.5885 -0.5627 -0.4207
   81SAPS  H12A 7486   1.304   3.314  11.198 -0.3757  0.5316 -0.9646
   81SAPS   C13 7487   1.515   3.315  11.190  0.3234  0.2385 -0.4436
   81SAPS  O13A 7488   1.589   3.239  11.258  0.9027 -0.5571  0.6840
   81SAPS  O13B 7489   1.533   3.440  11.198 -0.0970  0.9248  0.7730
   81SAPS   C11 7490   1.372   3.309  10.991  0.6202 -0.3926 -0.1834
   81SAPS  H11A 7491   1.451   3.251  10.937  0.8597 -1.2645  1.0703
   81SAPS  H11B 7492   1.396   3.416  10.969 -1.9145 -0.1403 -2.1874
   81SAPS     P 7493   1.148   3.353  10.849  0.0557  0.0298 -0.0545
   81SAPS   O13 7494   1.004   3.301  10.848 -0.6533 -1.1754  0.1615
   81SAPS   O14 7495   1.158   3.497  10.881 -0.0569 -0.1391  0.6314
   81SAPS   O12 7496   1.241   3.263  10.939 -0.4938 -0.3880  0.0211
   81SAPS   O11 7497   1.203   3.331  10.701  0.4498 -0.3873  0.3430
   81SAPS    C1 7498   1.203   3.432  10.604 -0.5434  0.0698  0.6549
   81SAPS    HA 7499   1.252   3.520  10.651  0.9687 -0.2098 -0.3027
   81SAPS    HB 7500   1.268   3.417  10.514  0.3347  1.4900  1.0135
   81SAPS    C2 7501   1.066   3.469  10.547  0.1307  1.0257 -0.6185
   81SAPS    HS 7502   1.013   3.500  10.639  1.9841  0.4440  0.7009
   81SAPS   O21 7503   1.003   3.361  10.480  0.0136 -0.2071 -0.2812
   81SAPS   C21 7504   0.878   3.373  10.460  0.4244 -0.1770  0.1599
   81SAPS   O22 7505   0.802   3.449  10.520  0.2442 -0.6311 -0.2464
   81SAPS   C22 7506   0.838   3.282  10.349  0.3329  0.1799  0.4299
   81SAPS   H2R 7507   0.919   3.277  10.272  1.1688  0.1010  1.2963
   81SAPS   H2S 7508   0.825   3.185  10.402 -0.8565  0.5324  0.7993
   81SAPS    C3 7509   1.075   3.585  10.446  0.6097 -0.2385 -0.2650
   81SAPS    HX 7510   1.091   3.678  10.505 -0.7005 -0.9038  1.2135
   81SAPS    HY 7511   0.975   3.608  10.403 -0.7189  1.4129  3.2600
   81SAPS   O31 7512   1.176   3.559  10.350  0.1109 -0.6666  0.3029
   81SAPS   C31 7513   1.150   3.540  10.225  0.0704 -0.7005  0.2220
   81SAPS   O32 7514   1.038   3.536  10.173  0.1825  0.2860  0.0536
   81SAPS   C32 7515   1.290   3.505  10.158 -0.1446 -0.6186  0.5482
   81SAPS   H2X 7516   1.328   3.411  10.206  3.3762  0.5893  0.4219
   81SAPS   H2Y 7517   1.363   3.586  10.178  1.5125 -1.8012 -0.3751
   81SAPS   C23 7518   0.697   3.324  10.296  0.2549 -0.1370 -0.0993
   81SAPS   H3R 7519   0.713   3.421  10.243 -0.0284  0.9375  1.7102
   81SAPS   H3S 7520   0.623   3.340  10.377  0.4042 -0.1436  0.0373
   81SAPS   C24 7521   0.647   3.221  10.188 -0.0339 -0.0099 -0.7664
   81SAPS   H4R 7522   0.730   3.199  10.117  0.1266  1.1022 -0.9316
   81SAPS   H4S 7523   0.580   3.279  10.122  0.9871  2.3845  0.1926
   81SAPS   C25 7524   0.577   3.101  10.259  0.1114 -0.9421 -0.3533
   81SAPS   H5R 7525   0.641   3.038  10.324 -1.7561 -2.7444 -0.1646
   81SAPS   C26 7526   0.453   3.059  10.241 -0.3690 -0.5500 -0.5265
   81SAPS   H6R 7527   0.413   2.991  10.318 -0.9971  2.0539  1.6302
   81SAPS   C27 7528   0.355   3.137  10.155 -0.4382  0.2635  0.2283
   81SAPS   H7R 7529   0.387   3.112  10.052 -0.9410  1.3736 -0.2111
   81SAPS   H7S 7530   0.376   3.245  10.165  1.5916 -0.0228 -0.6172
   81SAPS   C28 7531   0.211   3.094  10.186 -0.1490  0.3264  0.3158
   81SAPS   H8R 7532   0.159   3.163  10.254  0.2251  0.0791  0.8578
   81SAPS   C29 7533   0.156   2.975  10.157 -0.6970  1.3589  0.2612
   81SAPS   H9R 7534   0.051   2.949  10.177 -0.8420 -0.8554 -2.6674
   81SAPS  C210 7535   0.208   2.860  10.073 -0.1510  0.2135 -0.4302
   81SAPS  H10R 7536   0.240   2.770  10.131  1.8823  1.7817  1.0488
   81SAPS  H10S 7537   0.311   2.881  10.037 -0.9863  0.5223 -2.7311
   81SAPS  C211 7538   0.117   2.813   9.958 -0.5529 -0.4124 -0.4274
   81SAPS  H11R 7539   0.029   2.750   9.978  0.3257 -1.3003  0.7573
   81SAPS  C212 7540   0.157   2.833   9.827  0.1643 -0.5094 -0.4145
   81SAPS  H12R 7541   0.110   2.777   9.746  2.3782 -2.6373 -0.3543
   81SAPS  C213 7542   0.284   2.900   9.786  0.0662  0.6294 -0.2374
   81SAPS  H13R 7543   0.321   2.854   9.692 -0.4791  1.0297 -0.6597
   81SAPS  H13S 7544   0.365   2.876   9.858  2.4443  1.3143 -2.5451
   81SAPS  C214 7545   0.276   3.046   9.776  0.8816 -0.3882 -0.4374
   81SAPS  H14R 7546   0.212   3.095   9.852 -0.2275 -0.1781 -1.4834
   81SAPS  C215 7547   0.323   3.119   9.674  0.1021 -0.5578 -0.6207
   81SAPS  H15R 7548   0.323   3.229   9.680 -2.9483 -0.3206 -2.6109
   81SAPS  C216 7549   0.393   3.081   9.550  0.3329 -0.2509 -0.0008
   81SAPS  H16R 7550   0.401   2.972   9.531 -0.2203 -0.4021  0.6069
   81SAPS  H16S 7551   0.496   3.123   9.552  1.1134 -2.0250 -0.6383
   81SAPS  C217 7552   0.318   3.128   9.414 -0.1371 -0.2131 -0.3218
   81SAPS  H17R 7553   0.373   3.094   9.324 -0.6086 -2.3453  0.1409
   81SAPS  H17S 7554   0.315   3.239   9.412  1.2181 -0.1701 -2.0710
   81SAPS  C218 7555   0.168   3.087   9.398 -0.1882 -0.1803 -0.8091
   81SAPS  H18R 7556   0.108   3.154   9.333 -0.9441 -1.6551 -1.7033
   81SAPS  H18S 7557   0.128   3.087   9.501  0.2107 -0.0838 -0.6524
   81SAPS  C219 7558   0.149   2.940   9.356  0.1893 -0.4431  0.1331
   81SAPS  H19R 7559   0.190   2.871   9.433 -1.9452 -1.0171  0.8187
   81SAPS  H19S 7560   0.209   2.924   9.263 -0.9388 -0.6213 -0.5896
   81SAPS  C220 7561   0.008   2.892   9.320 -0.2656  0.2147  0.4345
   81SAPS  H20R 7562  -0.039   2.868   9.418  1.2794 -1.8160  0.7560
   81SAPS  H20S 7563   0.013   2.799   9.259 -1.7450  1.5194 -1.8250
   81SAPS  H20T 7564  -0.047   2.962   9.253 -0.8377 -0.3364  0.3170
   81SAPS   C33 7565   1.270   3.484  10.005  0.3387  0.4265  0.1910
   81SAPS   H3X 7566   1.200   3.556   9.958 -0.4257 -1.4313 -1.6815
   81SAPS   H3Y 7567   1.227   3.386   9.975 -0.2212  1.9141 -4.5812
   81SAPS   C34 7568   1.390   3.510   9.908 -0.2942 -0.5591  0.1611
   81SAPS   H4X 7569   1.460   3.432   9.945 -2.0612 -1.5263  1.6191
   81SAPS   H4Y 7570   1.428   3.613   9.921  1.7409 -1.3560  1.0051
   81SAPS   C35 7571   1.361   3.483   9.755  0.3167 -0.0112  1.3907
   81SAPS   H5X 7572   1.286   3.552   9.711  2.0675  1.2352  0.2348
   81SAPS   H5Y 7573   1.313   3.384   9.743  0.6668  0.0754 -1.1965
   81SAPS   C36 7574   1.487   3.485   9.658 -0.1472  0.1987 -0.1726
   81SAPS   H6X 7575   1.552   3.404   9.696  1.5028  1.6829  0.2802
   81SAPS   H6Y 7576   1.532   3.584   9.681 -0.0704  0.3672 -1.0232
   81SAPS   C37 7577   1.455   3.469   9.510 -0.3710 -0.0533 -0.5826
   81SAPS   H7X 7578   1.376   3.535   9.470 -0.5869 -0.9018 -1.6191
   81SAPS   H7Y 7579   1.418   3.366   9.493  0.5295 -0.3786 -0.6532
   81SAPS   C38 7580   1.583   3.482   9.430 -0.4958  0.3092  0.1873
   81SAPS   H8X 7581   1.662   3.440   9.495 -0.6532  0.6982  0.6383
   81SAPS   H8Y 7582   1.614   3.588   9.431  1.1130 -0.0728  3.1087
   81SAPS   C39 7583   1.556   3.415   9.291  0.2165 -0.0373 -0.4054
   81SAPS   H9X 7584   1.475   3.479   9.251 -1.2893 -0.7758  1.3080
   81SAPS   H9Y 7585   1.527   3.308   9.284 -0.4002  0.1915 -1.5952
   81SAPS  C310 7586   1.684   3.447   9.217  0.0367 -0.0297  0.9113
   81SAPS  H10X 7587   1.761   3.380   9.261  0.4293 -0.0557  0.1871
   81SAPS  H10Y 7588   1.707   3.555   9.222 -4.9244  1.3905 -0.6455
   81SAPS  C311 7589   1.680   3.403   9.074 -0.6236  0.1710 -0.2598
   81SAPS  H11X 7590   1.588   3.436   9.022 -2.3323 -0.6320  2.0898
   81SAPS  H11Y 7591   1.675   3.293   9.079 -0.4382  0.1685 -0.1184
   81SAPS  C312 7592   1.802   3.439   8.991  0.0916 -0.3500  0.8691
   81SAPS  H12X 7593   1.774   3.389   8.896  0.3965  0.3644  0.4029
   81SAPS  H12Y 7594   1.901   3.404   9.027  0.1154 -2.8260 -1.3200
   81SAPS  C313 7595   1.796   3.593   8.959 -1.0279 -0.9415 -0.1419
   81SAPS  H13X 7596   1.801   3.637   9.061  0.2623  1.0109 -0.9901
   81SAPS  H13Y 7597   1.701   3.602   8.903 -0.8139  1.5964 -0.1792
   81SAPS  C314 7598   1.902   3.651   8.871  0.3137 -0.1157 -0.4555
   81SAPS  H14X 7599   2.000   3.631   8.920 -0.0898  1.6332  1.1931
   81SAPS  H14Y 7600   1.887   3.761   8.867  2.3225  0.1758 -1.3413
   81SAPS  C315 7601   1.904   3.599   8.725  0.2956 -0.0439 -0.2212
   81SAPS  H15X 7602   1.811   3.633   8.674 -0.1921  0.7477  1.1523
   81SAPS  H15Y 7603   1.915   3.488   8.728  1.1145 -0.0115 -1.3247
   81SAPS  C316 7604   2.013   3.675   8.643  0.0022  0.2305  0.5167
   81SAPS  H16X 7605   2.003   3.780   8.608  0.3723 -0.0486 -0.4632
   81SAPS  H16Y 7606   2.023   3.605   8.557 -1.0448 -2.5206  2.5071
   81SAPS  C317 7607   2.153   3.690   8.709 -0.2109 -0.1759  0.3355
   81SAPS  H17X 7608   2.190   3.585   8.705 -3.5220 -1.4437 -2.3219
   81SAPS  H17Y 7609   2.136   3.716   8.815 -2.0028  0.8360 -0.1567
   81SAPS  C318 7610   2.243   3.788   8.643  0.4490 -0.3607 -0.1944
   81SAPS  H18X 7611   2.193   3.887   8.648 -1.1861 -1.1428  4.4372
   81SAPS  H18Y 7612   2.280   3.766   8.541  1.6862  0.1009  0.1288
   81SAPS  H18Z 7613   2.335   3.803   8.704 -0.0452  1.8243  0.1119
   82SAPS     N 7614   0.690   2.499  10.910 -0.0557  0.0644  0.2172
   82SAPS   HN1 7615   0.609   2.540  10.859  0.9696  0.7233 -0.9311
   82SAPS   HN2 7616   0.649   2.470  11.001 -1.1539 -0.1986 -0.3412
   82SAPS   HN3 7617   0.758   2.577  10.921 -1.4029  1.1362  1.4019
   82SAPS   C12 7618   0.744   2.386  10.839  0.5879 -0.8760  0.2550
   82SAPS  H12A 7619   0.784   2.421  10.745  0.6709  0.4240  0.7518
   82SAPS   C13 7620   0.844   2.307  10.919 -0.5688  0.2315 -0.3527
   82SAPS  O13A 7621   0.883   2.349  11.030 -0.5153 -0.0521  0.1753
   82SAPS  O13B 7622   0.903   2.215  10.857  0.3413 -0.1931 -0.0454
   82SAPS   C11 7623   0.615   2.298  10.802  0.3338  0.4346 -0.0340
   82SAPS  H11A 7624   0.590   2.234  10.889  1.9737  0.9564  0.8703
   82SAPS  H11B 7625   0.653   2.236  10.718  1.9233  1.9979 -0.5493
   82SAPS     P 7626   0.364   2.287  10.760 -0.1888 -0.2308  0.1639
   82SAPS   O13 7627   0.380   2.153  10.833 -0.6157 -0.6100 -0.0204
   82SAPS   O14 7628   0.263   2.375  10.817 -0.0888  0.1100  0.0719
   82SAPS   O12 7629   0.503   2.367  10.766 -0.0229  0.1992  0.0777
   82SAPS   O11 7630   0.333   2.263  10.610  0.3954  0.6049  0.1538
   82SAPS    C1 7631   0.430   2.269  10.507  0.3792 -0.0450 -0.0035
   82SAPS    HA 7632   0.503   2.351  10.524  0.3006  0.1978 -0.8041
   82SAPS    HB 7633   0.486   2.173  10.507  0.8825  0.1905 -2.4692
   82SAPS    C2 7634   0.374   2.281  10.362  0.3501 -0.8981 -0.4925
   82SAPS    HS 7635   0.333   2.384  10.355  0.5589 -0.8713 -1.4859
   82SAPS   O21 7636   0.272   2.186  10.337 -0.1324  0.1845  0.8206
   82SAPS   C21 7637   0.143   2.222  10.360 -0.0710  0.3794  0.9539
   82SAPS   O22 7638   0.107   2.321  10.424 -0.1528 -0.3340  0.1935
   82SAPS   C22 7639   0.036   2.131  10.288 -0.4320  0.1007 -0.1602
   82SAPS   H2R 7640   0.076   2.027  10.286 -0.6827  0.0188 -1.0460
   82SAPS   H2S 7641  -0.058   2.139  10.348  0.8425 -0.3117  1.9908
   82SAPS    C3 7642   0.493   2.273  10.265  0.3589 -0.3265  0.4407
   82SAPS    HX 7643   0.561   2.186  10.280 -0.0861 -1.0637 -1.4628
   82SAPS    HY 7644   0.563   2.356  10.286 -0.4010  0.9524 -1.7550
   82SAPS   O31 7645   0.446   2.284  10.128  0.6527 -0.2203 -0.4083
   82SAPS   C31 7646   0.439   2.401  10.065  0.4616 -0.4337 -0.0459
   82SAPS   O32 7647   0.464   2.507  10.110 -0.1016 -0.8211  0.1782
   82SAPS   C32 7648   0.399   2.370   9.913  0.3666  0.2565 -0.2075
   82SAPS   H2X 7649   0.307   2.308   9.923  0.3313  0.3026 -0.2422
   82SAPS   H2Y 7650   0.479   2.303   9.877 -1.3819 -1.9614 -0.1613
   82SAPS   C23 7651  -0.002   2.178  10.144  0.4899 -0.2922  0.3779
   82SAPS   H3R 7652   0.089   2.184  10.081 -0.0792  0.8725 -0.3837
   82SAPS   H3S 7653  -0.040   2.283  10.150  1.3175  0.1864 -1.7788
   82SAPS   C24 7654  -0.090   2.075  10.074  0.3790  0.2457 -0.8044
   82SAPS   H4R 7655  -0.062   1.973  10.109 -0.5463 -0.0369 -0.8553
   82SAPS   H4S 7656  -0.069   2.072   9.965  1.5668  0.9235 -0.6099
   82SAPS   C25 7657  -0.233   2.110  10.112  0.0435 -0.1444  0.3181
   82SAPS   H5R 7658  -0.269   2.080  10.211 -0.7291 -0.3166 -0.0130
   82SAPS   C26 7659  -0.319   2.174  10.024 -0.4085  0.0662 -1.2036
   82SAPS   H6R 7660  -0.422   2.183  10.062 -0.0426 -1.6102  0.3137
   82SAPS   C27 7661  -0.279   2.218   9.884  0.4448 -0.8881 -0.3138
   82SAPS   H7R 7662  -0.376   2.228   9.830  0.5251  0.9826 -0.1572
   82SAPS   H7S 7663  -0.241   2.129   9.829  0.7388 -0.4677 -0.7923
   82SAPS   C28 7664  -0.189   2.335   9.866 -0.1706  0.5436 -0.0138
   82SAPS   H8R 7665  -0.151   2.374   9.961  3.3019 -0.0046 -1.0412
   82SAPS   C29 7666  -0.129   2.383   9.757  0.5641 -0.6539  0.4865
   82SAPS   H9R 7667  -0.058   2.465   9.775  1.7753 -0.7380 -3.0474
   82SAPS  C210 7668  -0.150   2.327   9.619 -0.4831 -0.2057 -0.1064
   82SAPS  H10R 7669  -0.201   2.406   9.561 -2.4571 -1.0707  0.3765
   82SAPS  H10S 7670  -0.226   2.248   9.601 -0.5099  0.4388 -3.5873
   82SAPS  C211 7671  -0.020   2.277   9.564 -0.5289 -0.2760  0.5683
   82SAPS  H11R 7672   0.034   2.206   9.629  0.1101 -0.9189 -0.6341
   82SAPS  C212 7673   0.041   2.307   9.449  0.0441 -0.2380  0.2273
   82SAPS  H12R 7674   0.139   2.262   9.427 -0.1323 -0.3959 -0.2424
   82SAPS  C213 7675  -0.013   2.406   9.346  0.6275  0.9278  0.2487
   82SAPS  H13R 7676   0.038   2.504   9.360 -0.7776  2.4017 -3.5593
   82SAPS  H13S 7677  -0.121   2.426   9.362  0.4349  0.5638 -0.5396
   82SAPS  C214 7678   0.004   2.355   9.205 -0.4610 -0.0117 -0.4166
   82SAPS  H14R 7679   0.077   2.275   9.186 -1.2651 -0.9723  0.4089
   82SAPS  C215 7680  -0.068   2.394   9.090 -0.2144  0.2049  0.3072
   82SAPS  H15R 7681  -0.040   2.353   8.992  1.5950  0.8298  0.5233
   82SAPS  C216 7682  -0.176   2.496   9.092 -0.1633  0.3732 -0.3661
   82SAPS  H16R 7683  -0.190   2.537   9.195  0.3259 -2.1291  0.7688
   82SAPS  H16S 7684  -0.276   2.458   9.062 -1.1738  1.6027  1.2605
   82SAPS  C217 7685  -0.144   2.613   8.998  0.1752  0.0735 -0.7495
   82SAPS  H17R 7686  -0.100   2.567   8.907 -0.4388 -1.5386 -0.2627
   82SAPS  H17S 7687  -0.062   2.677   9.038  1.1139 -1.8045  0.4534
   82SAPS  C218 7688  -0.268   2.681   8.946 -0.1122  0.3742 -0.0601
   82SAPS  H18R 7689  -0.356   2.613   8.955  0.0194 -0.2138 -2.4567
   82SAPS  H18S 7690  -0.263   2.701   8.837 -0.8582  1.1208  0.0414
   82SAPS  C219 7691  -0.301   2.802   9.025 -0.2871 -0.3074 -0.3455
   82SAPS  H19R 7692  -0.211   2.840   9.078 -0.7480 -0.6387  0.6948
   82SAPS  H19S 7693  -0.372   2.782   9.108 -0.2028  0.4625 -0.0840
   82SAPS  C220 7694  -0.363   2.910   8.934  0.0087  0.0062  0.4467
   82SAPS  H20R 7695  -0.465   2.889   8.894 -0.2427  0.3411  0.8994
   82SAPS  H20S 7696  -0.316   2.928   8.835 -3.5141  1.1723 -1.2122
   82SAPS  H20T 7697  -0.375   3.009   8.982  0.5061 -0.2619  1.1445
   82SAPS   C33 7698   0.378   2.495   9.825 -0.4348  0.4436  0.3695
   82SAPS   H3X 7699   0.464   2.563   9.847 -1.3964  1.8367 -0.0134
   82SAPS   H3Y 7700   0.287   2.548   9.861 -1.1915 -1.4940  1.4389
   82SAPS   C34 7701   0.369   2.455   9.677  0.3053 -0.0186  0.4350
   82SAPS   H4X 7702   0.277   2.394   9.670  1.0180 -1.0047 -0.7322
   82SAPS   H4Y 7703   0.463   2.400   9.655 -0.1247 -0.5149 -0.1785
   82SAPS   C35 7704   0.369   2.571   9.579  0.4101  0.5694 -0.0236
   82SAPS   H5X 7705   0.450   2.640   9.610 -0.6012  1.3261  1.0094
   82SAPS   H5Y 7706   0.278   2.634   9.587  1.6292  2.2839  0.7525
   82SAPS   C36 7707   0.397   2.533   9.433  0.0674  0.7462 -0.6436
   82SAPS   H6X 7708   0.320   2.473   9.380  1.6196 -0.6133 -1.4255
   82SAPS   H6Y 7709   0.496   2.484   9.437 -0.6548 -0.6942  1.1865
   82SAPS   C37 7710   0.408   2.666   9.360  0.5925  0.1392  0.2916
   82SAPS   H7X 7711   0.493   2.731   9.392 -0.0736  0.4457  1.5096
   82SAPS   H7Y 7712   0.308   2.710   9.379 -0.3342 -1.1754 -1.3011
   82SAPS   C38 7713   0.433   2.651   9.210 -0.1430 -0.4973 -0.1894
   82SAPS   H8X 7714   0.516   2.578   9.202  0.0781 -0.8414  3.4785
   82SAPS   H8Y 7715   0.461   2.754   9.176 -0.9708 -1.0654 -2.8756
   82SAPS   C39 7716   0.313   2.613   9.123 -0.5047 -0.3737 -0.0318
   82SAPS   H9X 7717   0.232   2.685   9.149 -0.3318  0.5516 -1.9229
   82SAPS   H9Y 7718   0.276   2.515   9.159  0.3457 -0.9059 -0.5689
   82SAPS  C310 7719   0.343   2.627   8.977  0.2450  0.2734  0.3985
   82SAPS  H10X 7720   0.432   2.564   8.958  0.8639  0.8065  1.4436
   82SAPS  H10Y 7721   0.355   2.735   8.952  0.4411 -0.4585 -3.3725
   82SAPS  C311 7722   0.233   2.572   8.894  0.6275 -0.5982 -0.4411
   82SAPS  H11X 7723   0.136   2.617   8.923  1.2494  0.1980  0.4775
   82SAPS  H11Y 7724   0.225   2.464   8.919  0.3163 -1.0706 -2.4441
   82SAPS  C312 7725   0.246   2.609   8.746  0.7637  0.0327  0.6438
   82SAPS  H12X 7726   0.235   2.719   8.732 -0.0193  0.0078  1.0417
   82SAPS  H12Y 7727   0.159   2.560   8.698  1.8865 -0.3593 -1.1276
   82SAPS  C313 7728   0.365   2.552   8.662 -0.1866 -0.3061 -0.2280
   82SAPS  H13X 7729   0.454   2.599   8.709 -0.6509  0.3853 -0.0309
   82SAPS  H13Y 7730   0.354   2.605   8.564 -1.6622  1.8773  1.0356
   82SAPS  C314 7731   0.393   2.404   8.642 -0.2571  0.2276 -0.7674
   82SAPS  H14X 7732   0.309   2.355   8.587 -1.5443  1.7879 -0.2641
   82SAPS  H14Y 7733   0.409   2.355   8.740  0.9866  0.3354 -0.8964
   82SAPS  C315 7734   0.512   2.367   8.555 -0.3766  0.5119  0.2402
   82SAPS  H15X 7735   0.524   2.413   8.454  0.8002 -0.4142 -0.0598
   82SAPS  H15Y 7736   0.498   2.260   8.531 -1.4695  0.9928 -1.4907
   82SAPS  C316 7737   0.647   2.371   8.632  0.4509 -0.0173  0.1102
   82SAPS  H16X 7738   0.697   2.273   8.614 -0.9787 -0.9303  0.9902
   82SAPS  H16Y 7739   0.631   2.366   8.741 -0.2400 -0.9873 -0.0274
   82SAPS  C317 7740   0.752   2.487   8.600  0.4043  0.0443  0.0939
   82SAPS  H17X 7741   0.692   2.579   8.619  4.1403  2.2591  2.3720
   82SAPS  H17Y 7742   0.786   2.479   8.495  1.4040 -1.5829  0.4947
   82SAPS  C318 7743   0.876   2.485   8.693  0.4256 -0.0391 -0.1990
   82SAPS  H18X 7744   0.857   2.449   8.796 -1.1199  0.0232 -0.4351
   82SAPS  H18Y 7745   0.913   2.589   8.707 -2.2815  0.6290  3.7054
   82SAPS  H18Z 7746   0.951   2.411   8.659 -1.7798 -2.6593  0.3260
   83SAPS     N 7747   3.206   3.899  11.053  0.1320 -0.2101  0.2590
   83SAPS   HN1 7748   3.247   3.803  11.059  0.6063  0.0467  1.2630
   83SAPS   HN2 7749   3.289   3.961  11.056  0.9918 -1.0288 -2.9138
   83SAPS   HN3 7750   3.136   3.919  11.127  0.1220 -1.5921  0.6632
   83SAPS   C12 7751   3.143   3.918  10.915 -0.9459  0.1284 -0.0641
   83SAPS  H12A 7752   3.215   3.888  10.841  1.5788  2.8075  1.1227
   83SAPS   C13 7753   3.018   3.836  10.893  0.0943  0.1161 -0.4479
   83SAPS  O13A 7754   2.977   3.766  10.987 -0.2886  0.0770 -0.6192
   83SAPS  O13B 7755   2.953   3.838  10.785 -0.7743 -0.5585  0.6725
   83SAPS   C11 7756   3.115   4.071  10.889 -0.0065  0.2321 -0.0043
   83SAPS  H11A 7757   3.049   4.110  10.970  0.3783 -1.9534  1.4333
   83SAPS  H11B 7758   3.067   4.069  10.788 -0.1990 -1.1012  0.0993
   83SAPS     P 7759   3.231   4.306  10.879 -0.6621 -0.1216 -0.8717
   83SAPS   O13 7760   3.171   4.358  11.000  0.1982  0.2475 -0.6515
   83SAPS   O14 7761   3.356   4.370  10.837  0.2613  0.7863 -0.3174
   83SAPS   O12 7762   3.244   4.148  10.885  0.1561  0.1300 -1.0009
   83SAPS   O11 7763   3.129   4.327  10.759 -0.1015 -0.2618 -0.6651
   83SAPS    C1 7764   3.150   4.287  10.628 -0.9683  0.8220 -0.2337
   83SAPS    HA 7765   3.255   4.258  10.605 -0.8468  0.6788  0.4762
   83SAPS    HB 7766   3.086   4.199  10.605  0.6675 -0.5861  0.3744
   83SAPS    C2 7767   3.116   4.397  10.526 -0.4467 -0.2169  0.1330
   83SAPS    HS 7768   3.145   4.369  10.423 -0.6733 -1.3034  0.3463
   83SAPS   O21 7769   3.178   4.522  10.564  0.0324  0.0040 -0.3078
   83SAPS   C21 7770   3.307   4.528  10.518  0.2376  0.2047 -0.4340
   83SAPS   O22 7771   3.354   4.466  10.424  0.8717 -0.3222  0.2979
   83SAPS   C22 7772   3.388   4.635  10.598  0.3473 -0.1125 -0.7950
   83SAPS   H2R 7773   3.333   4.658  10.691  0.6613 -1.8899 -0.1301
   83SAPS   H2S 7774   3.475   4.577  10.635 -0.8980 -0.6531  1.4302
   83SAPS    C3 7775   2.957   4.412  10.514  0.4559  0.0710  0.2351
   83SAPS    HX 7776   2.944   4.489  10.434 -1.1961  0.0432  0.4358
   83SAPS    HY 7777   2.922   4.448  10.613  0.6980 -0.5476  0.5513
   83SAPS   O31 7778   2.894   4.292  10.471 -0.2099 -0.0963 -0.4396
   83SAPS   C31 7779   2.795   4.238  10.549  0.0163  0.5998  0.4616
   83SAPS   O32 7780   2.776   4.270  10.664  0.0580 -0.6190  0.1024
   83SAPS   C32 7781   2.709   4.140  10.469  0.3898 -0.4568 -0.4369
   83SAPS   H2X 7782   2.683   4.063  10.545 -0.5001  0.3460  0.0968
   83SAPS   H2Y 7783   2.767   4.100  10.384 -0.6350  0.6227 -1.6831
   83SAPS   C23 7784   3.436   4.768  10.532  0.2883 -0.0088  0.6060
   83SAPS   H3R 7785   3.349   4.831  10.504 -0.8479 -1.6563  0.2965
   83SAPS   H3S 7786   3.485   4.733  10.438 -1.4072 -1.4068  0.1742
   83SAPS   C24 7787   3.538   4.850  10.606  0.0634 -0.0847  0.0239
   83SAPS   H4R 7788   3.483   4.895  10.691 -1.5668  1.3398 -1.6847
   83SAPS   H4S 7789   3.558   4.941  10.545 -4.2986  0.0371 -1.5847
   83SAPS   C25 7790   3.663   4.770  10.642 -0.1764 -0.2569 -0.1082
   83SAPS   H5R 7791   3.659   4.730  10.744 -0.2999 -0.4245 -0.1777
   83SAPS   C26 7792   3.774   4.770  10.571  0.6372 -0.0607 -0.3668
   83SAPS   H6R 7793   3.865   4.724  10.613  0.5907 -1.2540 -1.4982
   83SAPS   C27 7794   3.788   4.839  10.436  0.2997  0.2165 -0.0174
   83SAPS   H7R 7795   3.691   4.866  10.388  0.9044  2.5582 -0.0328
   83SAPS   H7S 7796   3.843   4.764  10.376  2.8024  0.5957  1.6509
   83SAPS   C28 7797   3.867   4.967  10.443  0.1998 -0.3342  0.8271
   83SAPS   H8R 7798   3.910   5.001  10.539 -0.3056  1.6264  0.4159
   83SAPS   C29 7799   3.892   5.055  10.344  0.5182 -0.1707 -0.6577
   83SAPS   H9R 7800   3.954   5.143  10.366  2.3930 -1.7005  0.5548
   83SAPS  C210 7801   3.854   5.041  10.196 -0.7302 -0.0735 -0.6666
   83SAPS  H10R 7802   3.821   4.937  10.174 -2.0427  0.0205  0.7032
   83SAPS  H10S 7803   3.948   5.044  10.136  1.7890  0.1840  2.9374
   83SAPS  C211 7804   3.758   5.151  10.158  0.1313  0.6703 -1.0412
   83SAPS  H11R 7805   3.707   5.198  10.244 -0.0653 -0.6115 -0.4316
   83SAPS  C212 7806   3.741   5.202  10.036  0.3332  0.2057  0.0111
   83SAPS  H12R 7807   3.658   5.273  10.023 -0.6726 -0.5588  1.9395
   83SAPS  C213 7808   3.815   5.165   9.917 -0.5251  0.4429 -0.0032
   83SAPS  H13R 7809   3.763   5.087   9.857 -0.2819 -0.6158  1.1103
   83SAPS  H13S 7810   3.915   5.118   9.931  0.5992  1.7529 -2.8462
   83SAPS  C214 7811   3.844   5.296   9.850  0.1237  0.6041 -0.9397
   83SAPS  H14R 7812   3.898   5.369   9.912 -0.6224  0.8207 -0.5271
   83SAPS  C215 7813   3.809   5.334   9.727 -0.1450 -0.5210  0.3600
   83SAPS  H15R 7814   3.830   5.438   9.700  1.3254 -0.4527  1.6149
   83SAPS  C216 7815   3.734   5.247   9.626 -0.6984  0.5992  0.0544
   83SAPS  H16R 7816   3.626   5.229   9.647 -0.8984  0.1018 -1.2836
   83SAPS  H16S 7817   3.777   5.145   9.630  3.1721  2.0474 -0.4280
   83SAPS  C217 7818   3.746   5.308   9.490 -0.2203 -0.0481  0.1552
   83SAPS  H17R 7819   3.839   5.362   9.465 -0.7851  0.2923 -1.3426
   83SAPS  H17S 7820   3.680   5.397   9.479  2.6054  2.1238 -0.2998
   83SAPS  C218 7821   3.726   5.200   9.386  0.2341  0.1063 -0.0685
   83SAPS  H18R 7822   3.626   5.160   9.413  0.1465 -0.4070 -1.1145
   83SAPS  H18S 7823   3.803   5.125   9.413 -1.4744 -1.0560  1.9154
   83SAPS  C219 7824   3.712   5.254   9.245  1.1370  0.3352  0.1288
   83SAPS  H19R 7825   3.608   5.292   9.233  0.3103 -1.4728  1.0880
   83SAPS  H19S 7826   3.724   5.168   9.176  1.1881 -0.0106  0.5627
   83SAPS  C220 7827   3.808   5.357   9.181 -0.2850  0.1653 -0.0823
   83SAPS  H20R 7828   3.832   5.449   9.239  3.3949 -0.7240  0.0393
   83SAPS  H20S 7829   3.766   5.395   9.085 -0.0420 -1.3180 -0.7878
   83SAPS  H20T 7830   3.906   5.318   9.147 -0.4514  0.6919 -1.2175
   83SAPS   C33 7831   2.584   4.213  10.412  0.6285 -0.4839 -0.2521
   83SAPS   H3X 7832   2.541   4.272  10.496  1.6889  0.4728 -0.3553
   83SAPS   H3Y 7833   2.505   4.137  10.396  0.3031 -0.1294 -0.3418
   83SAPS   C34 7834   2.613   4.300  10.291 -0.3827 -0.3238 -0.6848
   83SAPS   H4X 7835   2.703   4.363  10.311  0.1453 -1.0401 -0.7704
   83SAPS   H4Y 7836   2.522   4.361  10.270  0.3175  0.8911 -0.2947
   83SAPS   C35 7837   2.627   4.221  10.161 -0.2920  0.1213  0.1191
   83SAPS   H5X 7838   2.530   4.170  10.142 -0.8776  1.5337 -0.7868
   83SAPS   H5Y 7839   2.708   4.144  10.164  0.4616  0.9202  0.9274
   83SAPS   C36 7840   2.648   4.313  10.038  0.7858  0.2642 -0.3122
   83SAPS   H6X 7841   2.723   4.391  10.064 -1.5507  1.6723  2.8878
   83SAPS   H6Y 7842   2.553   4.370  10.031  0.0442 -0.8181  0.7238
   83SAPS   C37 7843   2.664   4.229   9.910 -0.1355  0.8672  0.0304
   83SAPS   H7X 7844   2.572   4.169   9.894  0.2367  0.4536 -0.5799
   83SAPS   H7Y 7845   2.748   4.158   9.926 -0.4980  0.3248 -0.4358
   83SAPS   C38 7846   2.682   4.314   9.778 -0.0088  0.2294 -0.4388
   83SAPS   H8X 7847   2.778   4.368   9.786 -0.2189  0.7032 -1.0850
   83SAPS   H8Y 7848   2.596   4.384   9.785  0.2231  0.4841 -0.1045
   83SAPS   C39 7849   2.677   4.235   9.650  0.0025  0.4628  0.5676
   83SAPS   H9X 7850   2.613   4.145   9.663 -0.4975  0.8508  0.8121
   83SAPS   H9Y 7851   2.776   4.188   9.632 -0.8814 -1.8487  1.3133
   83SAPS  C310 7852   2.637   4.316   9.528 -0.5472 -0.2205  0.5282
   83SAPS  H10X 7853   2.657   4.424   9.544 -1.1274  0.3515 -2.1075
   83SAPS  H10Y 7854   2.526   4.315   9.523 -0.5700 -0.4431  1.0183
   83SAPS  C311 7855   2.721   4.278   9.402  0.0149  0.3578  0.3409
   83SAPS  H11X 7856   2.683   4.195   9.339  2.1780 -0.2857 -0.2083
   83SAPS  H11Y 7857   2.829   4.261   9.423 -0.3763 -1.5884  0.9146
   83SAPS  C312 7858   2.726   4.392   9.302 -0.3091 -0.4751 -0.0312
   83SAPS  H12X 7859   2.763   4.490   9.338  1.0874 -0.3540 -1.6623
   83SAPS  H12Y 7860   2.617   4.412   9.288 -0.5616 -2.1118 -0.7118
   83SAPS  C313 7861   2.773   4.356   9.159  0.4569 -0.1511 -0.3244
   83SAPS  H13X 7862   2.714   4.267   9.126  0.2292 -0.3263  0.5227
   83SAPS  H13Y 7863   2.882   4.342   9.171  0.1624 -1.0345  1.9382
   83SAPS  C314 7864   2.723   4.460   9.051 -0.1848  0.5586 -0.3619
   83SAPS  H14X 7865   2.722   4.565   9.087 -1.7363  1.3544 -2.4929
   83SAPS  H14Y 7866   2.615   4.441   9.031 -0.0882  0.5838 -0.9212
   83SAPS  C315 7867   2.794   4.454   8.917 -0.1492 -0.4786  0.3374
   83SAPS  H15X 7868   2.782   4.348   8.887 -0.1160 -0.2677 -0.4453
   83SAPS  H15Y 7869   2.894   4.502   8.913 -0.9918  1.4725  1.0537
   83SAPS  C316 7870   2.712   4.545   8.813  0.0933 -0.4912  0.2749
   83SAPS  H16X 7871   2.670   4.629   8.873  0.3953 -1.4186  1.8699
   83SAPS  H16Y 7872   2.631   4.480   8.773  1.7145 -3.6589  1.6980
   83SAPS  C317 7873   2.809   4.599   8.706  0.7814 -0.3154 -0.3011
   83SAPS  H17X 7874   2.883   4.660   8.763 -0.9814  4.4470 -2.6296
   83SAPS  H17Y 7875   2.761   4.667   8.633 -0.1705  1.0253  1.4983
   83SAPS  C318 7876   2.893   4.489   8.630  0.2804 -0.7797  0.0846
   83SAPS  H18X 7877   2.974   4.528   8.565 -1.1954  1.3811 -0.5430
   83SAPS  H18Y 7878   2.817   4.430   8.575  0.6331 -2.9868  1.7730
   83SAPS  H18Z 7879   2.931   4.416   8.705 -1.5726  1.0012  2.9738
   84SAPS     N 7880   4.195   4.404  11.568  0.3078  0.6819 -0.0556
   84SAPS   HN1 7881   4.115   4.353  11.611  0.9334  0.9438  1.4874
   84SAPS   HN2 7882   4.268   4.338  11.535 -0.1956  0.1771 -0.1823
   84SAPS   HN3 7883   4.227   4.464  11.647 -1.7175  0.5307  0.9432
   84SAPS   C12 7884   4.135   4.449  11.441 -0.2516  0.2515  1.2207
   84SAPS  H12A 7885   4.083   4.366  11.396 -0.4826  0.3080  1.3828
   84SAPS   C13 7886   4.033   4.564  11.465 -0.4446  0.1218  0.4506
   84SAPS  O13A 7887   4.021   4.611  11.582 -0.1791  0.1361 -0.0292
   84SAPS  O13B 7888   3.973   4.600  11.362 -0.0995  0.6816  0.0447
   84SAPS   C11 7889   4.258   4.496  11.360  0.8960 -0.4166 -0.5976
   84SAPS  H11A 7890   4.307   4.587  11.400  0.5276 -0.4786  0.0018
   84SAPS  H11B 7891   4.224   4.540  11.264 -0.0807 -3.5418 -1.8068
   84SAPS     P 7892   4.478   4.395  11.269  0.1388 -0.2792 -0.2348
   84SAPS   O13 7893   4.575   4.494  11.325 -0.1736 -0.0629 -0.2876
   84SAPS   O14 7894   4.519   4.257  11.253  0.1779 -0.4765 -0.3414
   84SAPS   O12 7895   4.353   4.388  11.356 -0.4516  0.0865 -0.2773
   84SAPS   O11 7896   4.418   4.452  11.138 -0.1209 -0.3090  0.1215
   84SAPS    C1 7897   4.326   4.372  11.058 -0.0544 -0.0390 -0.9643
   84SAPS    HA 7898   4.344   4.264  11.077 -0.8903  0.1500  1.1902
   84SAPS    HB 7899   4.223   4.382  11.099  0.4413 -1.1107  0.6682
   84SAPS    C2 7900   4.317   4.402  10.906 -0.4728 -0.4418  0.9043
   84SAPS    HS 7901   4.407   4.354  10.863  0.2157  0.1121  1.6717
   84SAPS   O21 7902   4.333   4.546  10.882  0.6506  0.2710  0.4658
   84SAPS   C21 7903   4.244   4.626  10.930  0.5117  0.1312 -0.3873
   84SAPS   O22 7904   4.146   4.596  11.003 -0.0620  0.1526  0.3429
   84SAPS   C22 7905   4.277   4.764  10.879 -0.3763  0.1700 -0.0768
   84SAPS   H2R 7906   4.273   4.832  10.968 -2.0605 -0.1135  0.1030
   84SAPS   H2S 7907   4.377   4.782  10.836 -1.2062 -0.3682 -2.3378
   84SAPS    C3 7908   4.193   4.334  10.839  0.4567 -0.2210 -0.6379
   84SAPS    HX 7909   4.106   4.391  10.876  1.8277  0.9098  0.9693
   84SAPS    HY 7910   4.199   4.228  10.873  1.1649  0.4023  1.3154
   84SAPS   O31 7911   4.194   4.329  10.696  0.2068  0.1455  0.1764
   84SAPS   C31 7912   4.130   4.430  10.632  0.3790 -0.3599 -0.2535
   84SAPS   O32 7913   4.055   4.509  10.688 -0.1305  0.3803  0.0051
   84SAPS   C32 7914   4.179   4.429  10.488  1.0542  0.0887  0.3727
   84SAPS   H2X 7915   4.182   4.324  10.452 -2.8634 -0.3680  0.8592
   84SAPS   H2Y 7916   4.279   4.477  10.485  0.8889  0.3887 -1.5881
   84SAPS   C23 7917   4.182   4.826  10.781 -0.4787  0.4014 -0.8199
   84SAPS   H3R 7918   4.164   4.933  10.804 -3.0576 -0.8360  4.6478
   84SAPS   H3S 7919   4.082   4.778  10.780  0.2079 -1.1346  0.0339
   84SAPS   C24 7920   4.226   4.815  10.635  0.9201  0.0879 -0.2002
   84SAPS   H4R 7921   4.142   4.855  10.574  0.7429  3.3170  1.8951
   84SAPS   H4S 7922   4.229   4.711  10.597  0.7127  0.3799 -1.0400
   84SAPS   C25 7923   4.340   4.904  10.595  0.2288  0.0325  1.0598
   84SAPS   H5R 7924   4.312   5.006  10.624 -1.7976  0.1065 -0.8700
   84SAPS   C26 7925   4.455   4.858  10.539  0.0664 -0.5496  0.4919
   84SAPS   H6R 7926   4.535   4.930  10.516  0.0910 -0.1700  1.6881
   84SAPS   C27 7927   4.493   4.713  10.513 -0.1029  0.0178  0.6439
   84SAPS   H7R 7928   4.491   4.693  10.403 -1.3957  0.0668  0.6455
   84SAPS   H7S 7929   4.425   4.646  10.570 -1.4183 -0.9197 -1.8554
   84SAPS   C28 7930   4.637   4.690  10.546 -0.5455 -0.1716  0.0240
   84SAPS   H8R 7931   4.664   4.716  10.649  0.2745  1.0981 -0.4950
   84SAPS   C29 7932   4.741   4.676  10.460 -0.5350  0.2020  0.3080
   84SAPS   H9R 7933   4.835   4.660  10.515 -1.4258  2.3155  2.6256
   84SAPS  C210 7934   4.732   4.675  10.305 -0.1201 -0.0635  0.6677
   84SAPS  H10R 7935   4.667   4.595  10.265  0.4084  0.8469 -2.2564
   84SAPS  H10S 7936   4.831   4.644  10.263  0.8684  2.8866  0.5783
   84SAPS  C211 7937   4.705   4.819  10.260  0.3425 -0.3916  0.6734
   84SAPS  H11R 7938   4.751   4.894  10.325  3.2475  0.8038 -2.4760
   84SAPS  C212 7939   4.632   4.838  10.153 -0.7089  0.6247  0.3795
   84SAPS  H12R 7940   4.606   4.940  10.121 -1.3316 -0.1275 -1.7168
   84SAPS  C213 7941   4.564   4.743  10.056 -0.3652 -0.0663  0.0473
   84SAPS  H13R 7942   4.469   4.794  10.030  0.5518  2.0840  0.6683
   84SAPS  H13S 7943   4.532   4.654  10.114  1.8617 -0.1455  1.2699
   84SAPS  C214 7944   4.643   4.714   9.935  0.8654  0.3157 -0.1563
   84SAPS  H14R 7945   4.723   4.640   9.948 -0.1585 -0.7650  0.1470
   84SAPS  C215 7946   4.640   4.777   9.816  0.6987 -0.0570  0.0473
   84SAPS  H15R 7947   4.710   4.745   9.738  0.1729 -2.0367  0.3402
   84SAPS  C216 7948   4.535   4.878   9.780  1.0839 -0.1516 -0.0862
   84SAPS  H16R 7949   4.537   4.974   9.836  1.8022 -0.2317  0.0325
   84SAPS  H16S 7950   4.436   4.829   9.770  0.2382  1.3742  0.4774
   84SAPS  C217 7951   4.560   4.927   9.635 -0.1063  0.1417 -0.1013
   84SAPS  H17R 7952   4.666   4.959   9.633  0.1326 -0.2341  2.5253
   84SAPS  H17S 7953   4.493   5.016   9.631 -0.7190 -0.3480 -2.9361
   84SAPS  C218 7954   4.509   4.825   9.539 -0.2436 -0.0606  0.0574
   84SAPS  H18R 7955   4.399   4.833   9.527 -0.0921  1.4980 -0.4636
   84SAPS  H18S 7956   4.534   4.725   9.582 -0.3120  0.2918  0.9516
   84SAPS  C219 7957   4.584   4.822   9.402 -0.3818  0.2575  0.7002
   84SAPS  H19R 7958   4.691   4.801   9.419 -0.6293 -2.5424 -0.7093
   84SAPS  H19S 7959   4.575   4.928   9.370  0.9085  1.9500  5.1759
   84SAPS  C220 7960   4.529   4.730   9.308 -0.2114 -0.0376  0.2326
   84SAPS  H20R 7961   4.418   4.731   9.307 -0.2079  0.8603  0.3341
   84SAPS  H20S 7962   4.552   4.623   9.328  0.0848 -0.3325 -1.5670
   84SAPS  H20T 7963   4.562   4.764   9.208  1.3191 -0.7625  0.4676
   84SAPS   C33 7964   4.103   4.521  10.392  0.0373  0.4661 -0.0427
   84SAPS   H3X 7965   4.101   4.622  10.438 -0.4657  0.1541  0.6387
   84SAPS   H3Y 7966   3.999   4.486  10.372 -0.2850  0.6875  1.1693
   84SAPS   C34 7967   4.181   4.532  10.257  0.1772 -0.5428 -0.3607
   84SAPS   H4X 7968   4.183   4.434  10.203  1.6315 -1.7969  1.7932
   84SAPS   H4Y 7969   4.287   4.562  10.273  0.6174 -0.6447 -2.7202
   84SAPS   C35 7970   4.114   4.636  10.165  0.3442 -0.1412  0.0955
   84SAPS   H5X 7971   4.111   4.728  10.227  1.5515  0.6452 -0.9667
   84SAPS   H5Y 7972   4.009   4.606  10.148  0.1352  0.9556 -0.6507
   84SAPS   C36 7973   4.181   4.655  10.027 -0.0843  0.3211  0.0995
   84SAPS   H6X 7974   4.235   4.561  10.003 -0.7384  0.1123 -0.5990
   84SAPS   H6Y 7975   4.257   4.736  10.033  0.6141 -0.4143  1.9341
   84SAPS   C37 7976   4.085   4.683   9.914  0.8414 -0.1446 -0.3719
   84SAPS   H7X 7977   4.047   4.786   9.930  2.2619  0.3766 -0.2331
   84SAPS   H7Y 7978   3.998   4.614   9.904  0.2764  0.6959 -1.5208
   84SAPS   C38 7979   4.153   4.675   9.776 -0.2881 -0.2106  0.5368
   84SAPS   H8X 7980   4.214   4.583   9.772 -1.3441 -0.8683 -1.8583
   84SAPS   H8Y 7981   4.221   4.763   9.771 -0.6130 -0.0482 -1.9528
   84SAPS   C39 7982   4.056   4.688   9.655 -0.2246 -0.7694 -0.1422
   84SAPS   H9X 7983   3.995   4.778   9.679  0.1064  0.9084 -4.5688
   84SAPS   H9Y 7984   4.011   4.586   9.654  2.9824 -2.3119 -1.2428
   84SAPS  C310 7985   4.137   4.712   9.521  0.5056 -1.0814 -0.0857
   84SAPS  H10X 7986   4.223   4.643   9.505  0.1444 -1.9945  1.6649
   84SAPS  H10Y 7987   4.175   4.816   9.523  2.3528 -1.7327  0.4711
   84SAPS  C311 7988   4.034   4.699   9.403 -0.3275  0.0478  0.2245
   84SAPS  H11X 7989   3.972   4.791   9.408 -0.2404  0.0540  1.6404
   84SAPS  H11Y 7990   3.965   4.614   9.424  0.7319 -0.5710  1.3670
   84SAPS  C312 7991   4.082   4.676   9.259  0.2524  0.8136  0.7164
   84SAPS  H12X 7992   4.167   4.746   9.239  0.5252  0.0977 -0.8031
   84SAPS  H12Y 7993   3.994   4.699   9.195  1.3276 -1.5747 -1.8216
   84SAPS  C313 7994   4.131   4.536   9.221  0.0723  0.6584 -0.2098
   84SAPS  H13X 7995   4.037   4.477   9.213 -0.0286  1.0630 -2.7551
   84SAPS  H13Y 7996   4.200   4.502   9.302 -0.2499 -1.7815 -0.8953
   84SAPS  C314 7997   4.212   4.538   9.092  0.3177  0.4546  0.4708
   84SAPS  H14X 7998   4.292   4.614   9.102 -0.4772  1.2554  0.9230
   84SAPS  H14Y 7999   4.148   4.571   9.008  0.3080 -2.3552 -0.7178
   84SAPS  C315 8000   4.277   4.403   9.064  0.3560 -0.6315  0.0102
   84SAPS  H15X 8001   4.194   4.330   9.074 -1.6074  1.6904  1.9544
   84SAPS  H15Y 8002   4.345   4.379   9.148  0.2708  0.1523  0.3135
   84SAPS  C316 8003   4.344   4.376   8.929  0.1895 -0.2842  0.6600
   84SAPS  H16X 8004   4.353   4.266   8.918 -2.6748 -0.3560 -3.4600
   84SAPS  H16Y 8005   4.447   4.415   8.917  1.1434 -3.1245 -1.9504
   84SAPS  C317 8006   4.261   4.439   8.810 -0.8457  0.2782  0.1850
   84SAPS  H17X 8007   4.273   4.549   8.807 -0.2631  0.1985 -0.7318
   84SAPS  H17Y 8008   4.157   4.403   8.827  0.0110 -3.3422 -1.3126
   84SAPS  C318 8009   4.303   4.373   8.680 -0.0577  0.3186  0.5791
   84SAPS  H18X 8010   4.308   4.262   8.686 -0.8308  0.2173 -0.5319
   84SAPS  H18Y 8011   4.409   4.405   8.666  0.1616 -0.4675  0.3772
   84SAPS  H18Z 8012   4.230   4.408   8.605 -1.6060  0.3570  2.0326
   85SAPS     N 8013   1.266   0.084  11.219 -0.1478  0.3552  0.2299
   85SAPS   HN1 8014   1.316   0.156  11.162  0.7229 -0.3381  0.0993
   85SAPS   HN2 8015   1.232   0.009  11.155  2.5085  0.8734 -1.9606
   85SAPS   HN3 8016   1.189   0.139  11.262  1.6896  3.8468 -0.5346
   85SAPS   C12 8017   1.358   0.029  11.316 -0.7935  0.0765 -0.1298
   85SAPS  H12A 8018   1.401   0.119  11.359  1.3680 -0.3156 -1.3556
   85SAPS   C13 8019   1.301  -0.060  11.426  0.7409 -0.4999 -0.2578
   85SAPS  O13A 8020   1.176  -0.067  11.442 -0.3241 -0.4557  0.2821
   85SAPS  O13B 8021   1.378  -0.126  11.500  0.1392 -0.6788 -0.3362
   85SAPS   C11 8022   1.486  -0.031  11.233  0.1282  0.1193 -0.4406
   85SAPS  H11A 8023   1.451  -0.120  11.177 -1.7294  0.7376 -0.3169
   85SAPS  H11B 8024   1.559  -0.078  11.303  0.0801  0.0538 -0.4351
   85SAPS     P 8025   1.683   0.047  11.087 -0.0916  0.3807 -0.0413
   85SAPS   O13 8026   1.755   0.173  11.105 -0.4479 -0.6451 -0.5238
   85SAPS   O14 8027   1.745  -0.073  11.145  0.2455  0.7436 -0.3477
   85SAPS   O12 8028   1.534   0.070  11.146 -0.4771 -0.4860 -0.4628
   85SAPS   O11 8029   1.653   0.033  10.931 -0.3765  0.1114 -0.3626
   85SAPS    C1 8030   1.549  -0.049  10.881  0.1846 -0.1193  0.3825
   85SAPS    HA 8031   1.463  -0.042  10.952 -0.3020  3.8737 -0.3722
   85SAPS    HB 8032   1.507  -0.001  10.790 -0.7073 -1.8980 -0.1901
   85SAPS    C2 8033   1.605  -0.197  10.852  0.1111 -1.1394 -0.6606
   85SAPS    HS 8034   1.656  -0.234  10.944  1.4584  2.3534  0.1604
   85SAPS   O21 8035   1.710  -0.193  10.753  0.0613  0.1850 -0.6427
   85SAPS   C21 8036   1.778  -0.304  10.729  0.0283  0.5830 -0.1616
   85SAPS   O22 8037   1.779  -0.408  10.793 -0.3655 -0.3937  0.4920
   85SAPS   C22 8038   1.862  -0.296  10.604  0.8699 -0.1617  0.8879
   85SAPS   H2R 8039   1.803  -0.289  10.510  0.4739  2.3896  1.2387
   85SAPS   H2S 8040   1.927  -0.206  10.600  0.0256  0.4412 -2.4691
   85SAPS    C3 8041   1.485  -0.291  10.826 -0.2600 -0.1489 -0.1536
   85SAPS    HX 8042   1.410  -0.264  10.904 -0.8560 -0.0218 -0.7571
   85SAPS    HY 8043   1.515  -0.394  10.853 -1.7541 -0.7122 -0.5354
   85SAPS   O31 8044   1.440  -0.287  10.692  0.6414  0.3684  0.1481
   85SAPS   C31 8045   1.334  -0.200  10.667  0.1484 -0.1882 -0.2340
   85SAPS   O32 8046   1.289  -0.134  10.756 -0.0778  0.3368 -0.6049
   85SAPS   C32 8047   1.283  -0.199  10.519  0.0041 -0.0710  0.1575
   85SAPS   H2X 8048   1.191  -0.137  10.512 -0.2462 -0.5943 -1.7735
   85SAPS   H2Y 8049   1.252  -0.303  10.497 -0.2541  0.0337  0.0225
   85SAPS   C23 8050   1.954  -0.427  10.585  0.8106 -0.3019 -0.0503
   85SAPS   H3R 8051   1.894  -0.517  10.607  1.3559 -0.5598  0.3855
   85SAPS   H3S 8052   2.034  -0.414  10.661  0.8989  1.4793 -0.3871
   85SAPS   C24 8053   2.007  -0.449  10.439 -0.1053  0.4138 -0.5752
   85SAPS   H4R 8054   1.924  -0.493  10.379 -0.7643 -0.4682  0.9104
   85SAPS   H4S 8055   2.076  -0.536  10.451  0.9886  1.5028  1.7007
   85SAPS   C25 8056   2.081  -0.339  10.375  0.1955  0.1443  0.3418
   85SAPS   H5R 8057   2.171  -0.306  10.428  0.4153 -0.1922  0.1783
   85SAPS   C26 8058   2.059  -0.288  10.253 -0.7476  0.1116 -0.0428
   85SAPS   H6R 8059   2.120  -0.203  10.217 -0.7994  0.1104 -0.1342
   85SAPS   C27 8060   1.959  -0.335  10.153 -1.0895  0.1276  0.2455
   85SAPS   H7R 8061   1.908  -0.239  10.128 -1.5216  0.6275  2.7939
   85SAPS   H7S 8062   1.881  -0.400  10.197 -1.2794 -0.2663 -0.6382
   85SAPS   C28 8063   2.030  -0.378  10.026 -0.5726  0.3238  0.2604
   85SAPS   H8R 8064   2.098  -0.461  10.049  0.1512  0.2702 -1.7875
   85SAPS   C29 8065   2.029  -0.336   9.897  0.3983  0.7519 -0.1613
   85SAPS   H9R 8066   2.100  -0.387   9.830 -0.6178 -0.4585 -0.3509
   85SAPS  C210 8067   1.945  -0.225   9.843 -0.1709  0.2407 -0.3567
   85SAPS  H10R 8068   1.894  -0.176   9.928  0.5271 -1.0014  0.7982
   85SAPS  H10S 8069   1.859  -0.254   9.778 -1.8890 -0.0309  1.9232
   85SAPS  C211 8070   2.043  -0.124   9.780  0.0185  0.0584  0.7115
   85SAPS  H11R 8071   2.090  -0.143   9.683  0.4268  1.6266  0.5827
   85SAPS  C212 8072   2.082  -0.007   9.833  0.1540  0.1641  0.1488
   85SAPS  H12R 8073   2.150   0.060   9.780  0.0571 -0.6053 -0.9786
   85SAPS  C213 8074   2.032   0.058   9.961 -0.3433 -0.4542  0.5334
   85SAPS  H13R 8075   2.051  -0.015  10.042  1.2884 -0.7164 -0.0560
   85SAPS  H13S 8076   1.921   0.062   9.954 -0.3146 -1.3932 -0.7339
   85SAPS  C214 8077   2.098   0.188   9.998 -0.4131  0.8326  0.1499
   85SAPS  H14R 8078   2.171   0.233   9.929 -0.6838 -2.4679 -2.5018
   85SAPS  C215 8079   2.075   0.250  10.111  0.3996 -0.0655 -0.2321
   85SAPS  H15R 8080   2.141   0.336  10.132  2.4769 -1.1772 -1.7988
   85SAPS  C216 8081   1.992   0.203  10.223  0.0280 -0.2113  0.4075
   85SAPS  H16R 8082   1.910   0.138  10.187  0.1748 -1.4688  2.1892
   85SAPS  H16S 8083   1.937   0.290  10.266  0.6309 -0.3830  1.5879
   85SAPS  C217 8084   2.054   0.112  10.329 -0.0008  0.2543  0.4467
   85SAPS  H17R 8085   2.130   0.171  10.383 -0.3481  0.0660  1.1564
   85SAPS  H17S 8086   2.104   0.024  10.285 -1.3832  0.2884 -1.3013
   85SAPS  C218 8087   1.959   0.054  10.434 -0.3363  0.6002  0.4836
   85SAPS  H18R 8088   2.021  -0.006  10.503  0.0748  2.3645  1.7180
   85SAPS  H18S 8089   1.876  -0.008  10.393  1.4656 -0.2423 -2.1420
   85SAPS  C219 8090   1.901   0.163  10.525  0.6020 -0.0153 -0.2832
   85SAPS  H19R 8091   1.895   0.259  10.469  0.0710 -0.5437 -1.1578
   85SAPS  H19S 8092   1.975   0.193  10.602 -0.0121  1.1380 -0.1085
   85SAPS  C220 8093   1.763   0.142  10.581  0.0058 -0.2921  0.2282
   85SAPS  H20R 8094   1.745   0.035  10.604 -1.9227  0.1360  0.8657
   85SAPS  H20S 8095   1.694   0.174  10.500 -1.4942  0.6465  1.8231
   85SAPS  H20T 8096   1.738   0.206  10.668 -1.6532 -0.6545  0.0518
   85SAPS   C33 8097   1.388  -0.158  10.414 -0.4274 -0.9230 -0.3691
   85SAPS   H3X 8098   1.350  -0.189  10.315 -0.1537 -0.7772 -0.5195
   85SAPS   H3Y 8099   1.485  -0.212  10.419 -1.6297 -3.5955 -3.1576
   85SAPS   C34 8100   1.416  -0.002  10.404 -0.0180  0.6586 -0.3349
   85SAPS   H4X 8101   1.441   0.035  10.506  0.3577  1.0880 -0.5800
   85SAPS   H4Y 8102   1.331   0.055  10.359 -2.7532 -1.6375  1.5807
   85SAPS   C35 8103   1.542   0.016  10.309 -0.1892 -0.0177 -0.2454
   85SAPS   H5X 8104   1.622  -0.045  10.356  0.2674 -0.7947 -1.9488
   85SAPS   H5Y 8105   1.557   0.126  10.299  0.0080 -0.2524 -4.1815
   85SAPS   C36 8106   1.509  -0.036  10.168 -0.6828  0.6435 -0.7829
   85SAPS   H6X 8107   1.405  -0.003  10.146 -1.0388  0.2061  0.2116
   85SAPS   H6Y 8108   1.503  -0.146  10.180  0.7652  0.5535 -0.6156
   85SAPS   C37 8109   1.614   0.008  10.061  0.1517  0.0748 -0.4998
   85SAPS   H7X 8110   1.711  -0.031  10.097  0.9919  2.5616  0.1282
   85SAPS   H7Y 8111   1.638   0.117  10.062  1.8042 -0.2172 -2.5942
   85SAPS   C38 8112   1.581  -0.034   9.923 -0.3875  0.5202 -0.1677
   85SAPS   H8X 8113   1.483   0.005   9.889 -0.5728  0.7005  0.5652
   85SAPS   H8Y 8114   1.571  -0.145   9.918 -0.2005  0.5340 -1.0594
   85SAPS   C39 8115   1.678   0.017   9.816  0.1185  0.1028  0.7554
   85SAPS   H9X 8116   1.777  -0.033   9.813  0.3234  0.4767  1.2038
   85SAPS   H9Y 8117   1.695   0.125   9.834 -0.1751  0.4128 -0.6746
   85SAPS  C310 8118   1.612  -0.009   9.676  0.1300  0.4292 -0.5090
   85SAPS  H10X 8119   1.520   0.053   9.676  1.1559  2.0319 -0.7905
   85SAPS  H10Y 8120   1.597  -0.119   9.673  0.5404  0.3495  0.1030
   85SAPS  C311 8121   1.696   0.045   9.567 -0.4305  0.2388 -1.0406
   85SAPS  H11X 8122   1.778  -0.023   9.535 -0.9372  0.0802 -2.0679
   85SAPS  H11Y 8123   1.743   0.144   9.582  1.3461 -0.7810  0.3991
   85SAPS  C312 8124   1.612   0.055   9.441 -0.3846 -0.4001  0.1623
   85SAPS  H12X 8125   1.509   0.083   9.470 -0.3465  0.1825 -0.2424
   85SAPS  H12Y 8126   1.626  -0.041   9.387 -0.2129 -0.4504  0.2946
   85SAPS  C313 8127   1.673   0.164   9.358  0.0098 -0.5025 -0.0199
   85SAPS  H13X 8128   1.783   0.153   9.348 -0.3375 -3.6737 -1.5826
   85SAPS  H13Y 8129   1.644   0.257   9.412 -0.1712 -0.5879  0.0318
   85SAPS  C314 8130   1.617   0.172   9.218  0.0465 -0.2910  0.7813
   85SAPS  H14X 8131   1.663   0.256   9.162  0.5140 -1.3846 -0.5110
   85SAPS  H14Y 8132   1.508   0.188   9.232 -0.0213 -0.1227  0.0715
   85SAPS  C315 8133   1.643   0.050   9.127 -0.1586 -0.3661 -0.5284
   85SAPS  H15X 8134   1.603  -0.040   9.177 -3.4970  1.2806  0.0620
   85SAPS  H15Y 8135   1.753   0.034   9.130 -0.6333 -4.6251 -0.3996
   85SAPS  C316 8136   1.602   0.065   8.977 -0.1709 -0.2114 -0.4707
   85SAPS  H16X 8137   1.645  -0.016   8.914  3.2980  2.1064 -1.3294
   85SAPS  H16Y 8138   1.659   0.154   8.945  1.8948 -0.3102  2.5381
   85SAPS  C317 8139   1.450   0.085   8.953  1.1743  0.2134 -0.3070
   85SAPS  H17X 8140   1.410   0.157   9.028 -0.3124  0.6292 -1.4542
   85SAPS  H17Y 8141   1.381  -0.001   8.970  1.2817  0.5063  2.0053
   85SAPS  C318 8142   1.418   0.142   8.814  0.4186  0.1793 -0.2357
   85SAPS  H18X 8143   1.480   0.232   8.798  0.8277 -0.0817 -0.1246
   85SAPS  H18Y 8144   1.311   0.173   8.806 -0.1132 -1.6429 -0.6782
   85SAPS  H18Z 8145   1.429   0.063   8.736  0.0394  0.1007 -0.2148
   86SAPS     N 8146   5.175   0.784  11.133 -0.2392 -0.1313 -0.8657
   86SAPS   HN1 8147   5.269   0.742  11.144 -0.3552  0.2391  2.6886
   86SAPS   HN2 8148   5.156   0.789  11.030 -1.1891  1.7841 -0.6357
   86SAPS   HN3 8149   5.177   0.878  11.177  0.3983  0.0164 -1.1986
   86SAPS   C12 8150   5.071   0.707  11.214 -0.0309 -0.0647 -0.3301
   86SAPS  H12A 8151   5.066   0.614  11.158  4.2052  0.3974 -1.8434
   86SAPS   C13 8152   5.122   0.677  11.358  0.4749 -0.6267  0.0145
   86SAPS  O13A 8153   5.233   0.734  11.392 -0.5168 -0.1467 -0.0785
   86SAPS  O13B 8154   5.057   0.595  11.429 -0.3872 -0.5369 -0.1285
   86SAPS   C11 8155   4.923   0.778  11.209  0.3012  0.4525 -0.1158
   86SAPS  H11A 8156   4.934   0.882  11.245 -0.7782  0.1278  1.2261
   86SAPS  H11B 8157   4.866   0.726  11.289  0.8128 -0.6080 -0.4229
   86SAPS     P 8158   4.721   0.736  11.055  0.3720  0.2935  0.4521
   86SAPS   O13 8159   4.695   0.588  11.062  0.6037 -0.3448  0.1537
   86SAPS   O14 8160   4.629   0.814  11.142 -0.4436 -0.4889  0.6708
   86SAPS   O12 8161   4.872   0.767  11.080  0.7503  0.4215  0.2453
   86SAPS   O11 8162   4.697   0.784  10.905  0.7298  0.6935 -0.3901
   86SAPS    C1 8163   4.714   0.923  10.862  0.0510  0.5957 -1.1006
   86SAPS    HA 8164   4.654   0.996  10.921 -0.4596  0.5659 -1.5735
   86SAPS    HB 8165   4.821   0.952  10.863  0.1658  0.2030 -0.1436
   86SAPS    C2 8166   4.692   0.940  10.710 -0.1178  0.2374  0.0278
   86SAPS    HS 8167   4.729   1.042  10.689 -0.4596  0.7311  1.6755
   86SAPS   O21 8168   4.556   0.922  10.664  0.2259  0.1812 -0.5118
   86SAPS   C21 8169   4.476   1.008  10.712 -0.3608 -0.3194  0.0774
   86SAPS   O22 8170   4.504   1.104  10.785 -0.1154  0.1032 -0.4396
   86SAPS   C22 8171   4.340   0.972  10.666  0.0991 -0.3615 -0.1424
   86SAPS   H2R 8172   4.344   0.873  10.616 -1.6616  0.7909 -2.7964
   86SAPS   H2S 8173   4.270   0.980  10.752 -0.6798  1.2870 -0.8781
   86SAPS    C3 8174   4.783   0.835  10.637  0.1831  0.7870 -0.6850
   86SAPS    HX 8175   4.737   0.735  10.654 -0.6484  0.9631 -1.7937
   86SAPS    HY 8176   4.888   0.823  10.672  0.1865 -0.8021 -1.1326
   86SAPS   O31 8177   4.782   0.865  10.500  0.0255  0.0610  0.3638
   86SAPS   C31 8178   4.773   0.761  10.414  0.1371 -0.2582 -0.4070
   86SAPS   O32 8179   4.789   0.642  10.446 -1.2469 -0.8798 -0.3434
   86SAPS   C32 8180   4.721   0.814  10.278 -0.4075  0.5782 -0.2731
   86SAPS   H2X 8181   4.685   0.918  10.296  1.9492  1.4299 -0.1237
   86SAPS   H2Y 8182   4.639   0.752  10.236  1.7501 -1.5850 -1.5423
   86SAPS   C23 8183   4.290   1.078  10.565  0.0112 -0.0155 -0.3608
   86SAPS   H3R 8184   4.287   1.174  10.619  0.7897  0.1577 -0.6102
   86SAPS   H3S 8185   4.192   1.051  10.519  0.4986  2.6106 -3.2376
   86SAPS   C24 8186   4.392   1.084  10.448 -0.1703 -0.4891  0.4193
   86SAPS   H4R 8187   4.385   0.980  10.411 -2.7978 -0.1444 -0.2422
   86SAPS   H4S 8188   4.496   1.102  10.482  0.1039  0.3572 -0.8038
   86SAPS   C25 8189   4.350   1.193  10.361 -0.3294 -0.4240  0.3510
   86SAPS   H5R 8190   4.351   1.297  10.396  0.7291 -0.2507 -0.1514
   86SAPS   C26 8191   4.298   1.188  10.238 -0.2231 -0.7638 -0.5236
   86SAPS   H6R 8192   4.269   1.282  10.188 -1.5422 -0.9577 -0.1481
   86SAPS   C27 8193   4.271   1.065  10.154  0.3449  0.2494  1.1476
   86SAPS   H7R 8194   4.196   1.091  10.076  0.6321 -1.1922  0.3617
   86SAPS   H7S 8195   4.225   0.980  10.209 -1.6648  0.8203  0.4475
   86SAPS   C28 8196   4.391   1.010  10.076 -0.1600 -1.0495  0.9760
   86SAPS   H8R 8197   4.454   0.943  10.137  0.7890  0.0262  1.2046
   86SAPS   C29 8198   4.446   1.058   9.964 -0.6193 -0.5025 -0.0057
   86SAPS   H9R 8199   4.532   1.005   9.921  0.9422  0.8359  1.3099
   86SAPS  C210 8200   4.401   1.171   9.871 -0.0585  0.3086  0.1770
   86SAPS  H10R 8201   4.301   1.199   9.910  0.6486  2.6170  0.4502
   86SAPS  H10S 8202   4.391   1.132   9.767 -1.2528  0.0722  0.3732
   86SAPS  C211 8203   4.501   1.280   9.871  0.1382  0.1010  0.2081
   86SAPS  H11R 8204   4.501   1.349   9.957 -0.4240 -0.3120  0.5471
   86SAPS  C212 8205   4.585   1.305   9.768  0.0194  0.3047 -0.1159
   86SAPS  H12R 8206   4.652   1.391   9.778 -1.7071  1.9272 -1.5187
   86SAPS  C213 8207   4.597   1.241   9.633  0.2310  0.2026  0.0215
   86SAPS  H13R 8208   4.607   1.131   9.650 -0.4362 -0.2297 -2.1113
   86SAPS  H13S 8209   4.700   1.261   9.597  0.8919 -0.5441  1.4158
   86SAPS  C214 8210   4.501   1.270   9.526 -0.3255  0.1751  0.0149
   86SAPS  H14R 8211   4.401   1.230   9.550 -1.9778  2.5073 -2.4214
   86SAPS  C215 8212   4.532   1.292   9.399 -0.7722 -0.2031  0.2088
   86SAPS  H15R 8213   4.457   1.330   9.328 -0.5998  1.1155  0.6944
   86SAPS  C216 8214   4.668   1.316   9.339 -0.2587  0.1316 -0.6066
   86SAPS  H16R 8215   4.750   1.321   9.413 -0.9008  0.8609  0.0752
   86SAPS  H16S 8216   4.684   1.416   9.293 -0.5640  0.9170  0.9328
   86SAPS  C217 8217   4.711   1.199   9.235  1.0246 -0.3861 -0.0221
   86SAPS  H17R 8218   4.801   1.236   9.182  0.2209  2.7484  0.6160
   86SAPS  H17S 8219   4.625   1.174   9.170  0.6076  0.4394  0.1982
   86SAPS  C218 8220   4.770   1.070   9.305 -0.3734 -0.1453  0.6702
   86SAPS  H18R 8221   4.703   1.022   9.379  1.6872 -1.7307  1.6374
   86SAPS  H18S 8222   4.861   1.107   9.358 -0.7951  1.8918  0.0940
   86SAPS  C219 8223   4.811   0.956   9.208 -0.4999 -0.9447 -0.4203
   86SAPS  H19R 8224   4.802   0.865   9.271  0.2187 -0.1225  0.9436
   86SAPS  H19S 8225   4.917   0.982   9.184 -0.8828  1.5856  0.3694
   86SAPS  C220 8226   4.737   0.939   9.078 -0.4681 -0.1644 -0.1139
   86SAPS  H20R 8227   4.762   0.851   9.015  0.5452  0.0063  0.0295
   86SAPS  H20S 8228   4.756   1.018   9.003 -1.8512 -1.1896 -1.6256
   86SAPS  H20T 8229   4.626   0.948   9.090 -0.4289 -0.4167  0.5254
   86SAPS   C33 8230   4.836   0.835  10.175 -0.1444 -0.3269 -0.6802
   86SAPS   H3X 8231   4.892   0.739  10.183 -0.5316 -0.4187  1.7137
   86SAPS   H3Y 8232   4.897   0.918  10.216 -0.7640  1.0087 -2.3460
   86SAPS   C34 8233   4.781   0.861  10.035  0.0574  0.3711 -0.5513
   86SAPS   H4X 8234   4.718   0.952  10.028  1.3889  1.2848 -1.0909
   86SAPS   H4Y 8235   4.720   0.777   9.996 -2.5485  0.9335  2.0078
   86SAPS   C35 8236   4.884   0.895   9.928 -0.7335 -0.2543  0.1855
   86SAPS   H5X 8237   4.951   0.807   9.921  0.1663  0.5096 -1.2408
   86SAPS   H5Y 8238   4.945   0.985   9.952 -1.9304  0.6579 -0.0775
   86SAPS   C36 8239   4.824   0.911   9.784 -0.2275  0.4071 -0.1365
   86SAPS   H6X 8240   4.806   1.020   9.776 -1.2906  0.1744 -1.1578
   86SAPS   H6Y 8241   4.734   0.846   9.790  0.5283 -0.5995  0.8398
   86SAPS   C37 8242   4.925   0.872   9.673 -0.7089 -0.3452 -0.1043
   86SAPS   H7X 8243   4.859   0.857   9.585  0.4261  0.1015 -1.0521
   86SAPS   H7Y 8244   4.970   0.772   9.693  0.8394  0.1676 -0.9532
   86SAPS   C38 8245   5.030   0.982   9.644  0.2123 -0.1388  0.2702
   86SAPS   H8X 8246   5.110   0.982   9.721 -1.3423  0.9411  1.9631
   86SAPS   H8Y 8247   4.972   1.077   9.645 -1.0543 -0.8283  2.9723
   86SAPS   C39 8248   5.090   0.972   9.503  0.5015 -0.5544  0.4025
   86SAPS   H9X 8249   5.140   1.067   9.476 -2.1415  1.1981  1.3040
   86SAPS   H9Y 8250   5.014   0.965   9.422 -0.7819  0.2681  1.4953
   86SAPS  C310 8251   5.195   0.866   9.484 -0.8636  0.3926  0.3347
   86SAPS  H10X 8252   5.144   0.770   9.510 -0.8296  0.9289  2.6384
   86SAPS  H10Y 8253   5.287   0.880   9.545  2.6585 -2.1148 -3.8126
   86SAPS  C311 8254   5.239   0.881   9.334  0.3428  0.1292 -0.1690
   86SAPS  H11X 8255   5.261   0.989   9.320  2.2057 -0.3077 -0.8743
   86SAPS  H11Y 8256   5.156   0.862   9.263 -0.6689  0.9635  0.7420
   86SAPS  C312 8257   5.367   0.809   9.284  0.5101 -0.2445  0.1365
   86SAPS  H12X 8258   5.459   0.860   9.320  0.1842 -1.0073  2.1662
   86SAPS  H12Y 8259   5.369   0.797   9.174 -3.1984 -1.9495  0.1322
   86SAPS  C313 8260   5.370   0.665   9.343 -0.2520  0.5905  0.1091
   86SAPS  H13X 8261   5.358   0.676   9.453 -2.2835  1.2861 -0.1334
   86SAPS  H13Y 8262   5.472   0.626   9.323 -0.8017 -0.9343  0.0803
   86SAPS  C314 8263   5.278   0.561   9.281  0.4626 -0.6645  0.5715
   86SAPS  H14X 8264   5.275   0.557   9.170 -2.9362 -0.4256  0.5529
   86SAPS  H14Y 8265   5.173   0.598   9.292  1.2151  1.4873  1.1080
   86SAPS  C315 8266   5.296   0.422   9.345  0.3821 -0.6189  0.4112
   86SAPS  H15X 8267   5.270   0.424   9.453  1.2300  1.5955  0.6136
   86SAPS  H15Y 8268   5.405   0.405   9.353  1.1226  3.3348  0.7167
   86SAPS  C316 8269   5.221   0.314   9.259  0.4793  0.4291 -0.0046
   86SAPS  H16X 8270   5.115   0.345   9.253  0.3158  0.0648  0.8807
   86SAPS  H16Y 8271   5.226   0.217   9.312 -0.4300  1.2983  1.7662
   86SAPS  C317 8272   5.289   0.289   9.122  0.0913 -0.2997 -0.1990
   86SAPS  H17X 8273   5.397   0.262   9.124 -0.0078 -0.7203 -0.4436
   86SAPS  H17Y 8274   5.293   0.376   9.053 -0.4580  0.4230  0.6556
   86SAPS  C318 8275   5.197   0.185   9.050 -0.6027  0.2070 -0.7886
   86SAPS  H18X 8276   5.106   0.245   9.025  0.5353  2.8651  1.0064
   86SAPS  H18Y 8277   5.174   0.104   9.122  1.0369  0.4006 -0.0130
   86SAPS  H18Z 8278   5.243   0.147   8.956  0.5486  1.5720 -0.8039
   87SAPS     N 8279   2.476   0.282  10.916  0.0527  0.1964  0.1691
   87SAPS   HN1 8280   2.408   0.336  10.859  2.5704  1.5347 -1.7775
   87SAPS   HN2 8281   2.563   0.339  10.911 -0.7453  1.3481 -2.8644
   87SAPS   HN3 8282   2.487   0.200  10.854 -4.2073  1.5179 -2.7445
   87SAPS   C12 8283   2.416   0.249  11.043 -0.1183  0.2512 -0.0627
   87SAPS  H12A 8284   2.385   0.336  11.099 -0.7380  0.7420 -1.1407
   87SAPS   C13 8285   2.291   0.158  11.027 -0.3454  0.8782 -0.2181
   87SAPS  O13A 8286   2.238   0.138  10.914  0.4450 -0.3855 -0.1685
   87SAPS  O13B 8287   2.229   0.127  11.136 -0.2491  0.3529  0.6408
   87SAPS   C11 8288   2.516   0.183  11.139 -0.5770 -0.3949 -0.4828
   87SAPS  H11A 8289   2.464   0.171  11.236  0.3969  0.2751  0.1475
   87SAPS  H11B 8290   2.605   0.250  11.152 -0.4650 -0.4448 -0.9653
   87SAPS     P 8291   2.688  -0.017  11.116  0.0735  0.0823 -0.1373
   87SAPS   O13 8292   2.756   0.063  11.219 -0.1519 -0.1816 -0.3694
   87SAPS   O14 8293   2.657  -0.159  11.151 -0.5574  0.2882  0.1095
   87SAPS   O12 8294   2.541   0.049  11.095 -0.4016  0.2232 -0.9224
   87SAPS   O11 8295   2.784  -0.013  10.984  0.1861  0.1815 -0.6193
   87SAPS    C1 8296   2.732  -0.032  10.854 -0.1263  0.0084  0.2295
   87SAPS    HA 8297   2.751  -0.135  10.817 -0.8727 -0.1500  0.2670
   87SAPS    HB 8298   2.622  -0.021  10.865 -0.7567 -4.1579 -0.3645
   87SAPS    C2 8299   2.782   0.063  10.756 -1.1068 -0.6292  0.4546
   87SAPS    HS 8300   2.762   0.168  10.787  2.2554 -0.4124  2.3220
   87SAPS   O21 8301   2.725   0.045  10.625 -0.1916  0.4134 -0.5016
   87SAPS   C21 8302   2.592   0.066  10.628 -0.4137  0.3109  0.2040
   87SAPS   O22 8303   2.533   0.122  10.717  0.4078  0.5180 -1.1363
   87SAPS   C22 8304   2.526   0.024  10.489 -0.2756 -0.4093 -0.0352
   87SAPS   H2R 8305   2.457  -0.061  10.507  0.5375 -1.6339 -2.1973
   87SAPS   H2S 8306   2.475   0.110  10.441  1.0009  0.2258 -0.3023
   87SAPS    C3 8307   2.939   0.048  10.742 -0.2587 -0.2426 -0.3676
   87SAPS    HX 8308   2.971  -0.057  10.724  1.8459 -0.3516  3.1477
   87SAPS    HY 8309   2.982   0.068  10.842 -1.0664  0.2805 -0.1163
   87SAPS   O31 8310   2.990   0.140  10.642 -0.1243  0.2867 -0.5168
   87SAPS   C31 8311   3.113   0.110  10.609  0.0891  1.1873  0.1989
   87SAPS   O32 8312   3.185   0.025  10.671  0.0767 -0.1967 -0.2612
   87SAPS   C32 8313   3.155   0.171  10.474 -0.1243  0.0185  0.2745
   87SAPS   H2X 8314   3.218   0.103  10.413 -0.7598  0.2227 -0.6153
   87SAPS   H2Y 8315   3.210   0.265  10.496  1.8287 -0.5616 -1.8173
   87SAPS   C23 8316   2.624  -0.042  10.386  0.3788 -0.9426 -0.7306
   87SAPS   H3R 8317   2.690  -0.126  10.418  2.3743  0.0390 -2.0685
   87SAPS   H3S 8318   2.693   0.039  10.356  1.0613 -0.6201  1.5350
   87SAPS   C24 8319   2.546  -0.080  10.258 -0.3536 -0.4856 -0.7550
   87SAPS   H4R 8320   2.624  -0.114  10.187 -0.0447 -2.2477  0.3531
   87SAPS   H4S 8321   2.497   0.005  10.206 -0.7710 -0.0854  0.2729
   87SAPS   C25 8322   2.452  -0.200  10.277  1.1137  0.5210 -0.2259
   87SAPS   H5R 8323   2.444  -0.235  10.381  1.5695 -1.2771 -0.7600
   87SAPS   C26 8324   2.403  -0.281  10.183 -0.5299  0.3836 -0.7080
   87SAPS   H6R 8325   2.350  -0.371  10.217  1.0463 -0.7908 -1.2717
   87SAPS   C27 8326   2.413  -0.275  10.033  0.0330 -0.5168  0.2518
   87SAPS   H7R 8327   2.343  -0.353   9.995  0.0255 -0.0884 -0.6530
   87SAPS   H7S 8328   2.513  -0.315  10.005  1.0580  1.2381  1.2713
   87SAPS   C28 8329   2.380  -0.147   9.955  0.3971 -0.1659 -0.0293
   87SAPS   H8R 8330   2.286  -0.100   9.986  0.1022 -1.2601  0.8151
   87SAPS   C29 8331   2.457  -0.093   9.858  0.3191 -0.5612  0.4814
   87SAPS   H9R 8332   2.419  -0.005   9.803  0.2691 -2.0830 -2.0960
   87SAPS  C210 8333   2.583  -0.151   9.804 -0.4720  0.1176  0.9252
   87SAPS  H10R 8334   2.554  -0.215   9.718 -0.3385 -0.0801  1.0263
   87SAPS  H10S 8335   2.643  -0.212   9.875 -1.4006 -1.0825  0.7050
   87SAPS  C211 8336   2.666  -0.037   9.752  0.4595 -0.2592 -0.4754
   87SAPS  H11R 8337   2.712   0.025   9.831 -1.6977  0.7063  0.0932
   87SAPS  C212 8338   2.688  -0.010   9.628  0.3421 -0.1838 -0.0201
   87SAPS  H12R 8339   2.753   0.075   9.603 -0.6885  0.7761  0.4394
   87SAPS  C213 8340   2.630  -0.076   9.508  0.3617  1.0064  0.3454
   87SAPS  H13R 8341   2.522  -0.100   9.522  0.3944  1.3042  1.1146
   87SAPS  H13S 8342   2.679  -0.174   9.489 -0.7850 -0.0873  2.6131
   87SAPS  C214 8343   2.626   0.003   9.378 -0.2645 -0.2905 -0.1337
   87SAPS  H14R 8344   2.633   0.111   9.395  0.5916 -0.6300  1.9282
   87SAPS  C215 8345   2.613  -0.049   9.254 -0.2155 -0.1339  0.6890
   87SAPS  H15R 8346   2.607   0.022   9.170  0.9310  0.2742  0.9366
   87SAPS  C216 8347   2.591  -0.189   9.202  0.4371 -0.0579 -0.4482
   87SAPS  H16R 8348   2.631  -0.268   9.268  0.1886  2.1188  2.4677
   87SAPS  H16S 8349   2.650  -0.204   9.109  1.8834  0.1287  0.4223
   87SAPS  C217 8350   2.445  -0.217   9.184  0.1891  0.1997  0.7116
   87SAPS  H17R 8351   2.397  -0.152   9.108  0.5992  0.7409  0.9091
   87SAPS  H17S 8352   2.392  -0.197   9.280 -1.8334  1.7485 -0.6366
   87SAPS  C218 8353   2.414  -0.362   9.143  0.4733  0.7280 -0.3701
   87SAPS  H18R 8354   2.305  -0.373   9.132  0.3507  2.6212 -1.5135
   87SAPS  H18S 8355   2.424  -0.437   9.224  2.6416  1.3564  0.0177
   87SAPS  C219 8356   2.491  -0.399   9.022 -0.1498  0.4709  0.6905
   87SAPS  H19R 8357   2.461  -0.500   8.987  0.5770 -0.0322  1.4747
   87SAPS  H19S 8358   2.601  -0.403   9.036 -0.0130 -0.4677 -0.4899
   87SAPS  C220 8359   2.452  -0.305   8.909 -0.1378 -0.1835  0.6464
   87SAPS  H20R 8360   2.342  -0.290   8.908  0.1629  2.6908  0.3306
   87SAPS  H20S 8361   2.492  -0.330   8.809  0.6228 -1.3743  1.2240
   87SAPS  H20T 8362   2.490  -0.202   8.927  0.2308 -0.0428 -0.8716
   87SAPS   C33 8363   3.032   0.218  10.391  1.0580  1.1249  0.1256
   87SAPS   H3X 8364   2.963   0.284  10.450  0.9872 -1.9136  3.8113
   87SAPS   H3Y 8365   2.971   0.127  10.376 -0.1928  1.4239  2.6869
   87SAPS   C34 8366   3.081   0.282  10.256  0.1899  0.4213 -0.4948
   87SAPS   H4X 8367   3.150   0.213  10.203 -1.0246 -1.6453  0.4385
   87SAPS   H4Y 8368   3.137   0.375  10.280 -0.3543  0.6083  0.0691
   87SAPS   C35 8369   2.970   0.332  10.160 -0.3711 -0.2537  0.1035
   87SAPS   H5X 8370   2.915   0.422  10.197 -1.5296 -0.6180 -0.6804
   87SAPS   H5Y 8371   2.890   0.257  10.174 -0.4504 -0.2861 -0.4824
   87SAPS   C36 8372   3.010   0.354  10.010 -0.0213  0.8540  0.7360
   87SAPS   H6X 8373   3.058   0.262   9.971 -0.5774  0.5826  0.6833
   87SAPS   H6Y 8374   3.078   0.441  10.002  0.1626  0.7252  0.8969
   87SAPS   C37 8375   2.887   0.376   9.917  0.0762  0.4555  0.3650
   87SAPS   H7X 8376   2.834   0.467   9.953  0.4960  0.1152  1.8997
   87SAPS   H7Y 8377   2.835   0.279   9.928  1.1276 -0.0318  1.1897
   87SAPS   C38 8378   2.931   0.410   9.778  0.4531  0.2322  0.3213
   87SAPS   H8X 8379   2.990   0.320   9.750  2.7411  1.3111  1.3450
   87SAPS   H8Y 8380   2.997   0.498   9.796  1.7805 -1.0496  2.2145
   87SAPS   C39 8381   2.819   0.437   9.683 -0.0912  0.1271 -0.3098
   87SAPS   H9X 8382   2.766   0.529   9.715  0.9826  1.0855 -1.1699
   87SAPS   H9Y 8383   2.739   0.361   9.672 -1.6726  1.5845  0.7121
   87SAPS  C310 8384   2.881   0.464   9.540 -0.0572 -0.0797 -0.5079
   87SAPS  H10X 8385   2.947   0.386   9.498  0.4273  0.5629 -0.9677
   87SAPS  H10Y 8386   2.947   0.553   9.554 -0.5316  0.3869 -1.1496
   87SAPS  C311 8387   2.780   0.515   9.439 -0.6471  0.4318 -0.0224
   87SAPS  H11X 8388   2.762   0.621   9.467  0.5371  0.4494  0.7425
   87SAPS  H11Y 8389   2.684   0.460   9.440 -0.3901 -0.0359 -0.5895
   87SAPS  C312 8390   2.835   0.500   9.293  0.5261  0.2632 -0.6353
   87SAPS  H12X 8391   2.880   0.399   9.291  0.0598 -0.0185  1.0327
   87SAPS  H12Y 8392   2.913   0.578   9.279 -1.3421  2.1614 -1.0140
   87SAPS  C313 8393   2.725   0.519   9.182  0.1584 -0.6615  0.0642
   87SAPS  H13X 8394   2.688   0.621   9.205  2.6589  0.4822 -0.5917
   87SAPS  H13Y 8395   2.646   0.442   9.194 -0.2936 -0.4473 -1.3967
   87SAPS  C314 8396   2.772   0.510   9.042 -0.4524 -0.0765  0.0584
   87SAPS  H14X 8397   2.854   0.582   9.026 -2.1588  1.6872 -1.1686
   87SAPS  H14Y 8398   2.702   0.542   8.962  1.9516  0.1619 -2.0808
   87SAPS  C315 8399   2.817   0.375   8.985  0.6059 -0.1713  0.0481
   87SAPS  H15X 8400   2.903   0.350   9.051 -0.8087 -1.4122  1.5000
   87SAPS  H15Y 8401   2.839   0.382   8.877  2.0791 -0.5050  0.3038
   87SAPS  C316 8402   2.715   0.252   9.000 -0.7275 -0.1310  0.0054
   87SAPS  H16X 8403   2.647   0.263   9.088 -0.4046  0.6666  0.1638
   87SAPS  H16Y 8404   2.768   0.155   8.995  2.0115  1.2875 -0.3889
   87SAPS  C317 8405   2.599   0.256   8.901  0.6210  0.1809  0.3487
   87SAPS  H17X 8406   2.638   0.269   8.797 -2.3122 -1.9441 -1.1521
   87SAPS  H17Y 8407   2.527   0.338   8.923 -0.8746 -0.4031 -2.0400
   87SAPS  C318 8408   2.526   0.119   8.899 -0.5519 -0.6017  0.2533
   87SAPS  H18X 8409   2.488   0.093   9.000 -1.4792  1.0866  0.3674
   87SAPS  H18Y 8410   2.600   0.040   8.872  2.0808  1.1265  1.9783
   87SAPS  H18Z 8411   2.443   0.118   8.825  0.4248  0.1732 -0.8842
   88SAPS     N 8412   5.816   5.470  11.195  0.1963 -0.2695  0.3788
   88SAPS   HN1 8413   5.870   5.439  11.279  2.9129  1.1846 -0.6930
   88SAPS   HN2 8414   5.839   5.569  11.174 -0.6709 -0.1755 -0.1554
   88SAPS   HN3 8415   5.713   5.457  11.202  0.1595  0.3481  1.1280
   88SAPS   C12 8416   5.854   5.396  11.076 -0.1599  0.1055  0.8558
   88SAPS  H12A 8417   5.961   5.408  11.074 -0.0989 -0.3025  1.5692
   88SAPS   C13 8418   5.818   5.248  11.057 -0.0327  0.8567  0.1579
   88SAPS  O13A 8419   5.757   5.182  11.149  0.0673  0.3742 -0.5744
   88SAPS  O13B 8420   5.864   5.188  10.957  0.4864  0.4117  0.7122
   88SAPS   C11 8421   5.788   5.470  10.953 -0.3222 -0.6895 -0.1948
   88SAPS  H11A 8422   5.678   5.457  10.968 -0.3187  0.3244  0.8064
   88SAPS  H11B 8423   5.817   5.422  10.857  0.8400 -1.8304  0.6894
   88SAPS     P 8424   5.923   5.669  10.860  0.0892  0.3100  0.1284
   88SAPS   O13 8425   5.925   5.817  10.873 -0.1358  0.3162  0.6707
   88SAPS   O14 8426   6.046   5.590  10.887  0.0959 -0.1373  0.2219
   88SAPS   O12 8427   5.809   5.612  10.947 -0.4174 -0.0190  0.3142
   88SAPS   O11 8428   5.874   5.630  10.706 -0.2851 -0.0663 -0.0667
   88SAPS    C1 8429   5.772   5.692  10.645  0.4263 -0.0324  0.7153
   88SAPS    HA 8430   5.689   5.619  10.629  0.1505  0.6350 -1.0321
   88SAPS    HB 8431   5.724   5.779  10.693  0.2195  1.3873 -1.9310
   88SAPS    C2 8432   5.812   5.751  10.506  0.5587 -0.4862  0.6742
   88SAPS    HS 8433   5.860   5.672  10.445 -0.5182 -0.4464 -0.2577
   88SAPS   O21 8434   5.893   5.861  10.518  0.2401 -0.0519  0.6336
   88SAPS   C21 8435   6.025   5.841  10.509  0.4471  0.5999  1.0161
   88SAPS   O22 8436   6.075   5.731  10.490  0.5678  0.1832  0.0943
   88SAPS   C22 8437   6.107   5.965  10.540 -0.2947  0.2617  0.3349
   88SAPS   H2R 8438   6.041   6.050  10.569 -0.7247 -0.2157  0.7951
   88SAPS   H2S 8439   6.177   5.949  10.625  1.9570 -1.1383 -1.6740
   88SAPS    C3 8440   5.685   5.789  10.421  0.2047  0.5367 -0.2231
   88SAPS    HX 8441   5.639   5.882  10.461 -2.5984 -1.4088  1.4451
   88SAPS    HY 8442   5.616   5.701  10.425  3.5072 -2.2073  1.0913
   88SAPS   O31 8443   5.735   5.796  10.285  0.2271  0.1993 -0.7413
   88SAPS   C31 8444   5.697   5.910  10.220  0.0422  0.7401  0.0945
   88SAPS   O32 8445   5.616   5.984  10.261  0.3998  0.2646  0.2821
   88SAPS   C32 8446   5.767   5.922  10.088 -0.1238 -0.0263  0.1685
   88SAPS   H2X 8447   5.764   5.829  10.026 -0.0534  0.4931 -0.6202
   88SAPS   H2Y 8448   5.871   5.944  10.119  1.0518 -1.3320 -2.4796
   88SAPS   C23 8449   6.199   5.995  10.417  0.0756 -0.0197 -0.7392
   88SAPS   H3R 8450   6.278   5.918  10.410 -0.8374 -0.9301 -1.3254
   88SAPS   H3S 8451   6.242   6.096  10.436 -0.6729  0.0980  0.4397
   88SAPS   C24 8452   6.124   6.010  10.285  0.1148 -0.1976 -0.2074
   88SAPS   H4R 8453   6.073   5.916  10.256 -1.1174  0.3673  0.0336
   88SAPS   H4S 8454   6.197   6.040  10.207 -1.9661 -0.3121 -2.3223
   88SAPS   C25 8455   6.024   6.128  10.302  0.4464  0.4799 -0.0076
   88SAPS   H5R 8456   5.939   6.123  10.372  0.5287  1.4672  0.1777
   88SAPS   C26 8457   6.041   6.244  10.249  0.3386 -0.0637 -0.4193
   88SAPS   H6R 8458   5.973   6.328  10.270  1.8065  0.5094  2.4782
   88SAPS   C27 8459   6.150   6.281  10.163  0.1786  0.0258  0.5848
   88SAPS   H7R 8460   6.171   6.207  10.083  0.8869  0.9164 -0.0799
   88SAPS   H7S 8461   6.244   6.288  10.223  0.8635  3.2688 -0.6098
   88SAPS   C28 8462   6.139   6.420  10.088  0.1053  0.1313  0.1563
   88SAPS   H8R 8463   6.179   6.505  10.145  1.6223 -0.8452  0.6425
   88SAPS   C29 8464   6.072   6.451   9.973  0.0293  0.3594 -0.2783
   88SAPS   H9R 8465   6.071   6.557   9.944 -0.8259  0.2787 -0.5658
   88SAPS  C210 8466   6.003   6.353   9.880 -0.1070  0.3876 -0.0363
   88SAPS  H10R 8467   5.965   6.262   9.931  0.1503  1.6258  2.5154
   88SAPS  H10S 8468   6.078   6.328   9.803 -1.7230  2.6952 -2.5553
   88SAPS  C211 8469   5.886   6.401   9.807 -0.5567 -0.0650 -0.6762
   88SAPS  H11R 8470   5.803   6.408   9.879 -0.7512 -0.8517 -0.8139
   88SAPS  C212 8471   5.873   6.438   9.679  0.6156  0.1901  0.9310
   88SAPS  H12R 8472   5.773   6.480   9.660  0.5487  0.2264  1.3532
   88SAPS  C213 8473   5.980   6.429   9.573  0.1533  0.0151  0.0877
   88SAPS  H13R 8474   6.081   6.434   9.617  0.5718 -1.7177 -0.5756
   88SAPS  H13S 8475   5.983   6.521   9.511  1.2481  0.8366  1.3294
   88SAPS  C214 8476   5.963   6.308   9.485  0.9807 -0.3413 -0.0668
   88SAPS  H14R 8477   5.950   6.223   9.553 -1.1820 -0.6374 -0.7991
   88SAPS  C215 8478   5.953   6.296   9.352 -0.0600  0.0993  0.5833
   88SAPS  H15R 8479   5.921   6.197   9.315 -1.3481  0.5293  0.4824
   88SAPS  C216 8480   5.963   6.404   9.244  0.1600  0.1709 -0.1228
   88SAPS  H16R 8481   6.023   6.367   9.158 -2.8904 -1.0513 -1.9135
   88SAPS  H16S 8482   6.025   6.488   9.280  0.9424 -0.3828 -0.1621
   88SAPS  C217 8483   5.822   6.443   9.185  0.1707  0.2556 -0.2500
   88SAPS  H17R 8484   5.840   6.523   9.110 -1.2110 -1.6958 -2.8206
   88SAPS  H17S 8485   5.756   6.481   9.265  1.0577  3.9157 -1.1028
   88SAPS  C218 8486   5.740   6.330   9.115  0.9236  0.2556  0.9107
   88SAPS  H18R 8487   5.647   6.384   9.088  0.9479  0.1448  0.5973
   88SAPS  H18S 8488   5.712   6.255   9.191  0.8789 -0.7503 -0.0740
   88SAPS  C219 8489   5.791   6.277   8.980  0.2904 -0.3926 -0.3797
   88SAPS  H19R 8490   5.882   6.218   9.003 -0.7263 -2.2881 -0.9860
   88SAPS  H19S 8491   5.820   6.369   8.925  1.6732 -1.6930 -1.9406
   88SAPS  C220 8492   5.696   6.198   8.884 -0.3372  0.7593  0.2027
   88SAPS  H20R 8493   5.640   6.118   8.938 -0.3818 -0.1236 -1.0892
   88SAPS  H20S 8494   5.757   6.155   8.801  0.5339  1.0993  0.6539
   88SAPS  H20T 8495   5.620   6.265   8.839  0.2614  1.0182 -0.4438
   88SAPS   C33 8496   5.709   6.037   9.993  0.5612  0.3632 -0.0630
   88SAPS   H3X 8497   5.724   6.136  10.041 -0.9859 -0.3812  2.1060
   88SAPS   H3Y 8498   5.601   6.031   9.969  0.4263 -1.3635  0.8529
   88SAPS   C34 8499   5.788   6.040   9.858 -0.7332 -0.9648  0.6228
   88SAPS   H4X 8500   5.897   6.034   9.881 -0.1894  2.5836 -0.3831
   88SAPS   H4Y 8501   5.776   6.139   9.808  2.1561 -1.0687 -0.5026
   88SAPS   C35 8502   5.749   5.930   9.755 -0.2028 -0.2259 -0.3296
   88SAPS   H5X 8503   5.644   5.904   9.776  0.3831 -1.2000  1.6295
   88SAPS   H5Y 8504   5.816   5.842   9.760  0.3826  0.2642  0.9491
   88SAPS   C36 8505   5.769   5.959   9.609  0.5134  0.2234  0.7613
   88SAPS   H6X 8506   5.744   5.860   9.566  2.5166 -1.2528  2.7962
   88SAPS   H6Y 8507   5.874   5.984   9.582 -0.0298 -0.9808 -3.0429
   88SAPS   C37 8508   5.685   6.078   9.550 -0.1128 -0.3171  0.7553
   88SAPS   H7X 8509   5.749   6.141   9.485  0.7524 -1.4940  0.4392
   88SAPS   H7Y 8510   5.644   6.132   9.638 -2.1881  0.4048 -0.5825
   88SAPS   C38 8511   5.571   6.021   9.460  0.2390 -0.0247  0.4363
   88SAPS   H8X 8512   5.499   5.960   9.518  0.5985 -1.6412 -0.7461
   88SAPS   H8Y 8513   5.622   5.941   9.403  0.7818  1.2692 -0.9415
   88SAPS   C39 8514   5.499   6.112   9.360  0.5952 -0.5610 -0.6043
   88SAPS   H9X 8515   5.577   6.157   9.294  0.1556 -0.6571 -1.1978
   88SAPS   H9Y 8516   5.462   6.190   9.429  1.7085  1.5940 -2.3075
   88SAPS  C310 8517   5.386   6.059   9.275 -0.3473  0.0960 -0.2044
   88SAPS  H10X 8518   5.330   6.146   9.234 -0.8848  0.5839  1.5149
   88SAPS  H10Y 8519   5.312   6.017   9.346 -0.4221  0.8241  0.1531
   88SAPS  C311 8520   5.430   5.970   9.164  0.3369 -0.2508  0.6116
   88SAPS  H11X 8521   5.475   5.871   9.188  0.4345 -0.6107 -0.9016
   88SAPS  H11Y 8522   5.512   6.025   9.112  1.8193 -0.8709  2.1892
   88SAPS  C312 8523   5.309   5.937   9.063  0.3417 -1.1959 -0.1743
   88SAPS  H12X 8524   5.250   6.026   9.031  0.7554 -0.0042  2.1259
   88SAPS  H12Y 8525   5.245   5.868   9.122  0.5403 -0.9544  0.3307
   88SAPS  C313 8526   5.349   5.881   8.928  0.2255  0.1271 -0.3597
   88SAPS  H13X 8527   5.415   5.792   8.941 -0.8880 -0.3570  3.0135
   88SAPS  H13Y 8528   5.411   5.954   8.871  1.6392 -0.7439  0.0120
   88SAPS  C314 8529   5.236   5.841   8.834  0.5976 -0.1869  0.3880
   88SAPS  H14X 8530   5.159   5.920   8.839  1.7507  0.9174  1.8157
   88SAPS  H14Y 8531   5.180   5.760   8.886 -3.1238  0.4645 -2.2534
   88SAPS  C315 8532   5.277   5.796   8.696  0.4061 -0.0122  0.1196
   88SAPS  H15X 8533   5.336   5.704   8.716  1.1467  0.0904 -1.3997
   88SAPS  H15Y 8534   5.344   5.870   8.645 -2.5929  1.9025 -1.3556
   88SAPS  C316 8535   5.160   5.756   8.600  0.3506 -0.3218  0.5378
   88SAPS  H16X 8536   5.083   5.706   8.663 -0.5662  0.9124  0.4436
   88SAPS  H16Y 8537   5.186   5.684   8.520 -0.1860 -0.5605  0.5700
   88SAPS  C317 8538   5.095   5.876   8.529 -0.0265  0.0550 -0.2646
   88SAPS  H17X 8539   5.138   5.906   8.431 -2.6223  1.2717 -1.1181
   88SAPS  H17Y 8540   5.102   5.961   8.599  0.7416 -1.8613  2.1191
   88SAPS  C318 8541   4.944   5.857   8.499  0.1402 -0.3126 -0.0770
   88SAPS  H18X 8542   4.898   5.952   8.464 -2.2276 -1.5057 -0.3753
   88SAPS  H18Y 8543   4.895   5.832   8.596  3.2048 -0.1726  1.6339
   88SAPS  H18Z 8544   4.930   5.786   8.416  1.0827 -1.3623  0.6404
   89SAPS     N 8545   5.077   1.820  11.330  0.2744 -0.5524 -0.2126
   89SAPS   HN1 8546   5.125   1.731  11.308  1.3698 -0.3471  1.2001
   89SAPS   HN2 8547   5.014   1.794  11.408  0.4193 -0.0888  0.0657
   89SAPS   HN3 8548   5.016   1.846  11.250 -1.2932 -2.7360  0.1967
   89SAPS   C12 8549   5.185   1.922  11.344 -0.5570  0.0169 -0.4077
   89SAPS  H12A 8550   5.141   2.021  11.351 -0.5176 -0.0335  0.7372
   89SAPS   C13 8551   5.253   1.912  11.483  0.1443  0.4584  0.5407
   89SAPS  O13A 8552   5.221   1.817  11.555  0.0314 -0.6470  0.7684
   89SAPS  O13B 8553   5.313   2.009  11.528  0.3527  0.2081  0.1803
   89SAPS   C11 8554   5.292   1.909  11.239 -0.0840  0.6800 -0.0490
   89SAPS  H11A 8555   5.337   1.807  11.237 -0.7801  0.3672 -0.0662
   89SAPS  H11B 8556   5.378   1.977  11.257  0.1059  0.7435 -1.1765
   89SAPS     P 8557   5.316   1.959  10.984  0.2980  0.3495 -0.1659
   89SAPS   O13 8558   5.304   2.097  10.932 -0.3087 -0.4376  0.4379
   89SAPS   O14 8559   5.452   1.915  11.010 -0.0922  0.1695  0.0506
   89SAPS   O12 8560   5.230   1.943  11.113  0.0274  0.7104  0.0579
   89SAPS   O11 8561   5.249   1.848  10.893 -0.0243 -0.1056  0.1379
   89SAPS    C1 8562   5.330   1.748  10.826  0.0445 -0.0712 -0.1443
   89SAPS    HA 8563   5.398   1.711  10.906 -1.6270 -1.3771  0.7398
   89SAPS    HB 8564   5.268   1.666  10.783  0.1176  0.7490 -1.8587
   89SAPS    C2 8565   5.421   1.811  10.716 -1.0004 -0.3670  0.2954
   89SAPS    HS 8566   5.501   1.869  10.768 -0.4762 -0.7449 -0.0731
   89SAPS   O21 8567   5.337   1.898  10.638 -0.1637 -0.2401  0.1465
   89SAPS   C21 8568   5.386   2.018  10.602 -0.6027 -0.3870  0.2982
   89SAPS   O22 8569   5.504   2.052  10.619  0.4260 -0.2814 -0.1632
   89SAPS   C22 8570   5.270   2.107  10.551  0.1157  0.4677 -0.1078
   89SAPS   H2R 8571   5.209   2.051  10.477 -0.5388 -0.0423  0.7884
   89SAPS   H2S 8572   5.211   2.132  10.642  2.4982  2.2747  1.0573
   89SAPS    C3 8573   5.479   1.704  10.629 -0.2828  0.0510 -0.0929
   89SAPS    HX 8574   5.393   1.643  10.592  0.9181 -3.4897  2.4630
   89SAPS    HY 8575   5.545   1.629  10.676  0.0565 -0.0326 -0.6944
   89SAPS   O31 8576   5.550   1.764  10.516 -0.4859  0.3283  0.4805
   89SAPS   C31 8577   5.677   1.802  10.537 -0.0951 -0.8473 -0.0775
   89SAPS   O32 8578   5.738   1.793  10.642  0.7797  0.0926 -0.0657
   89SAPS   C32 8579   5.739   1.871  10.414 -0.7187  0.3710  0.3148
   89SAPS   H2X 8580   5.791   1.785  10.366  1.0707  1.1614  0.7594
   89SAPS   H2Y 8581   5.807   1.952  10.447  0.1176  1.3580 -3.3497
   89SAPS   C23 8582   5.328   2.232  10.483  0.3011  0.0009  0.0406
   89SAPS   H3R 8583   5.406   2.201  10.410 -0.2407  0.0204 -0.5503
   89SAPS   H3S 8584   5.390   2.290  10.555  0.2075 -0.1499  0.2435
   89SAPS   C24 8585   5.235   2.318  10.402 -0.2417  0.1285 -0.3175
   89SAPS   H4R 8586   5.276   2.421  10.392 -1.1240  0.5050 -0.1960
   89SAPS   H4S 8587   5.142   2.332  10.462  0.7147 -0.9995  1.5048
   89SAPS   C25 8588   5.181   2.269  10.271  0.7925 -0.1587 -0.4017
   89SAPS   H5R 8589   5.094   2.201  10.280  1.4848 -1.3496 -2.2115
   89SAPS   C26 8590   5.250   2.280  10.158  0.3296  0.1611 -0.4262
   89SAPS   H6R 8591   5.203   2.250  10.064 -0.4800  1.4445 -0.4586
   89SAPS   C27 8592   5.393   2.335  10.149  0.0492 -0.5884 -0.0625
   89SAPS   H7R 8593   5.468   2.254  10.167  0.9099 -0.2305 -1.8176
   89SAPS   H7S 8594   5.405   2.405  10.234 -0.7141 -0.3822 -0.1215
   89SAPS   C28 8595   5.427   2.421  10.031  0.0771 -0.4039  0.2563
   89SAPS   H8R 8596   5.442   2.525  10.064  3.0707 -0.3777 -0.8120
   89SAPS   C29 8597   5.426   2.389   9.905 -0.0023  0.5428 -0.6446
   89SAPS   H9R 8598   5.439   2.475   9.838 -1.4911  0.1947 -1.4253
   89SAPS  C210 8599   5.394   2.256   9.840 -0.0873 -0.2867  0.4152
   89SAPS  H10R 8600   5.295   2.218   9.874  0.2625 -2.3373 -0.7343
   89SAPS  H10S 8601   5.468   2.182   9.878  0.6876  0.6337  0.7596
   89SAPS  C211 8602   5.394   2.273   9.689  0.5767 -0.1852 -0.7476
   89SAPS  H11R 8603   5.295   2.274   9.640 -0.1149  1.5291  0.5722
   89SAPS  C212 8604   5.495   2.305   9.605 -0.5347 -0.8631  0.7717
   89SAPS  H12R 8605   5.477   2.318   9.497 -2.5386 -0.6166  1.1043
   89SAPS  C213 8606   5.638   2.341   9.649  0.4051 -0.1038  0.2503
   89SAPS  H13R 8607   5.702   2.252   9.629  1.8926  0.3214  2.7513
   89SAPS  H13S 8608   5.641   2.362   9.757  2.8649  1.4839 -0.0660
   89SAPS  C214 8609   5.694   2.449   9.576  0.2040 -0.4543  0.5893
   89SAPS  H14R 8610   5.676   2.546   9.625  1.1566 -0.0332  0.1236
   89SAPS  C215 8611   5.764   2.441   9.458  0.5747 -0.9496  0.5956
   89SAPS  H15R 8612   5.818   2.527   9.416 -0.9695  0.9669  2.3051
   89SAPS  C216 8613   5.799   2.312   9.390  0.2467  0.7069 -0.1759
   89SAPS  H16R 8614   5.796   2.303   9.279 -1.9716 -2.0949 -0.0058
   89SAPS  H16S 8615   5.723   2.235   9.414 -0.9735  1.0568 -2.6381
   89SAPS  C217 8616   5.937   2.261   9.434  0.2803  0.3009 -0.8708
   89SAPS  H17R 8617   5.951   2.261   9.544  0.1870  2.0034 -0.8338
   89SAPS  H17S 8618   6.017   2.329   9.399  0.6138 -0.1171 -0.9291
   89SAPS  C218 8619   5.975   2.129   9.382 -0.0018 -0.5903 -0.2356
   89SAPS  H18R 8620   5.895   2.061   9.420 -0.2957 -0.4451 -0.5852
   89SAPS  H18S 8621   6.075   2.104   9.424  0.2557  2.1098  0.9748
   89SAPS  C219 8622   5.985   2.117   9.228  0.1084  0.4291  0.5716
   89SAPS  H19R 8623   6.063   2.191   9.199 -0.1047  1.3008  2.0844
   89SAPS  H19S 8624   5.889   2.149   9.181  0.9689  0.4995 -1.1989
   89SAPS  C220 8625   6.022   1.976   9.183  0.4286 -0.5656 -0.9218
   89SAPS  H20R 8626   5.932   1.914   9.202  0.3937 -0.3706 -0.4245
   89SAPS  H20S 8627   6.109   1.946   9.245 -0.9419 -1.7201  0.5366
   89SAPS  H20T 8628   6.049   1.966   9.076 -2.7103 -2.5395 -1.6591
   89SAPS   C33 8629   5.644   1.938  10.314  0.3452  0.6757  0.8127
   89SAPS   H3X 8630   5.708   1.991  10.239  1.8348 -0.7921  0.9767
   89SAPS   H3Y 8631   5.572   2.006  10.362 -0.6036  0.4057 -0.1736
   89SAPS   C34 8632   5.576   1.827  10.227 -0.1158  1.1539  0.4697
   89SAPS   H4X 8633   5.491   1.779  10.282 -1.5736 -0.0640 -2.6209
   89SAPS   H4Y 8634   5.644   1.742  10.205 -0.8064  0.5180  0.7456
   89SAPS   C35 8635   5.530   1.878  10.084 -0.1248  0.2260 -0.9339
   89SAPS   H5X 8636   5.611   1.929  10.027  0.1035 -1.2322 -1.9768
   89SAPS   H5Y 8637   5.454   1.953  10.116 -0.8265 -1.5882  2.0198
   89SAPS   C36 8638   5.469   1.795   9.982 -0.0716  0.2643  0.6187
   89SAPS   H6X 8639   5.429   1.856   9.898 -0.2898  0.5094  0.9011
   89SAPS   H6Y 8640   5.383   1.740  10.025 -1.6179  1.1373 -1.2195
   89SAPS   C37 8641   5.546   1.668   9.926 -0.3065 -0.3148  0.0963
   89SAPS   H7X 8642   5.514   1.574   9.976  2.8702  0.4129  3.9689
   89SAPS   H7Y 8643   5.655   1.690   9.938 -1.0113  2.4335  2.5005
   89SAPS   C38 8644   5.515   1.648   9.775  0.0023 -0.4699  0.2342
   89SAPS   H8X 8645   5.513   1.749   9.728  0.0204  0.0634  1.3521
   89SAPS   H8Y 8646   5.417   1.598   9.760  0.1697 -0.4678 -0.9863
   89SAPS   C39 8647   5.611   1.558   9.707 -0.0403  0.4637 -0.1004
   89SAPS   H9X 8648   5.603   1.459   9.756  0.6700  0.7790  0.6946
   89SAPS   H9Y 8649   5.717   1.587   9.726 -0.4142  0.8552  1.5652
   89SAPS  C310 8650   5.585   1.537   9.554  0.1839  0.3286 -0.0235
   89SAPS  H10X 8651   5.612   1.630   9.499  0.2249 -1.0785 -2.5237
   89SAPS  H10Y 8652   5.474   1.541   9.546  0.2500 -0.5880 -1.8742
   89SAPS  C311 8653   5.659   1.423   9.497  0.5295  0.2385  0.7999
   89SAPS  H11X 8654   5.677   1.341   9.570  0.9927 -0.2114  0.1851
   89SAPS  H11Y 8655   5.762   1.447   9.465  0.2941  1.7720  1.1112
   89SAPS  C312 8656   5.579   1.368   9.380  0.5572 -0.6622  0.2803
   89SAPS  H12X 8657   5.564   1.444   9.301 -0.3427 -1.6456 -0.5288
   89SAPS  H12Y 8658   5.479   1.338   9.418 -0.1156 -0.9980 -1.6389
   89SAPS  C313 8659   5.658   1.247   9.316  0.4224 -0.0654  0.8450
   89SAPS  H13X 8660   5.727   1.203   9.391  1.9745  1.8702  0.6418
   89SAPS  H13Y 8661   5.724   1.285   9.235  0.7854  1.0031  1.6121
   89SAPS  C314 8662   5.570   1.135   9.265  0.2394  0.4445  0.2196
   89SAPS  H14X 8663   5.493   1.101   9.338 -1.8522  0.5605 -1.8315
   89SAPS  H14Y 8664   5.638   1.051   9.236  1.3356  1.0687  0.8803
   89SAPS  C315 8665   5.486   1.158   9.135  0.3101 -0.2157 -0.1052
   89SAPS  H15X 8666   5.426   1.248   9.159  1.1972 -0.0165  1.4726
   89SAPS  H15Y 8667   5.417   1.072   9.124  2.2863 -1.8942 -0.0489
   89SAPS  C316 8668   5.568   1.185   9.008  0.3558 -0.3318 -0.3097
   89SAPS  H16X 8669   5.624   1.279   9.025 -1.0491  0.3633  0.7641
   89SAPS  H16Y 8670   5.501   1.205   8.921 -1.2204  1.0777  1.1487
   89SAPS  C317 8671   5.674   1.073   8.975 -0.3724  0.0533  0.4074
   89SAPS  H17X 8672   5.756   1.068   9.050  0.4805 -0.4896 -0.5396
   89SAPS  H17Y 8673   5.717   1.107   8.879 -0.1623  0.6779  0.7156
   89SAPS  C318 8674   5.627   0.928   8.970 -0.2990  0.5990 -0.1764
   89SAPS  H18X 8675   5.525   0.915   8.927 -0.8086 -1.7188  1.5215
   89SAPS  H18Y 8676   5.625   0.875   9.068 -0.6133  0.7057 -0.1222
   89SAPS  H18Z 8677   5.693   0.865   8.907  0.4474 -0.7600  1.8493
   90SAPS     N 8678   0.950   0.820  10.764 -0.2868 -0.0675  0.2953
   90SAPS   HN1 8679   0.991   0.891  10.827 -1.0453  0.3348  0.3557
   90SAPS   HN2 8680   1.026   0.773  10.711 -0.5075 -1.6684  1.3388
   90SAPS   HN3 8681   0.892   0.871  10.694 -0.1711  0.3062  0.4704
   90SAPS   C12 8682   0.869   0.736  10.845  0.3233 -0.2307 -0.3354
   90SAPS  H12A 8683   0.929   0.684  10.917  1.0427  0.4679 -0.4179
   90SAPS   C13 8684   0.756   0.814  10.919  0.0707 -0.0955  0.0267
   90SAPS  O13A 8685   0.745   0.940  10.916 -0.3212  0.0838  0.2724
   90SAPS  O13B 8686   0.665   0.749  10.981  0.2537 -0.0037  0.2244
   90SAPS   C11 8687   0.809   0.625  10.754 -0.1392  0.1808  0.0467
   90SAPS  H11A 8688   0.750   0.677  10.675  2.4603  0.3212 -1.9664
   90SAPS  H11B 8689   0.743   0.568  10.821  0.3435  0.6637  0.9504
   90SAPS     P 8690   0.863   0.458  10.559 -0.1286  0.3167  0.0925
   90SAPS   O13 8691   0.984   0.389  10.510  0.5090 -0.3917 -0.6781
   90SAPS   O14 8692   0.743   0.369  10.581  0.1942  0.0846  0.5054
   90SAPS   O12 8693   0.902   0.534  10.692  0.3170  0.3013  0.0660
   90SAPS   O11 8694   0.820   0.582  10.464  0.3610 -0.2162 -0.1489
   90SAPS    C1 8695   0.908   0.675  10.400  0.2563  0.7190 -0.5460
   90SAPS    HA 8696   0.924   0.765  10.463 -1.2896  0.9793 -0.4811
   90SAPS    HB 8697   1.009   0.634  10.380  0.0492  0.4914 -1.1333
   90SAPS    C2 8698   0.849   0.740  10.275  0.5155 -0.1459 -0.7247
   90SAPS    HS 8699   0.745   0.771  10.301  2.1188  3.4601  2.5811
   90SAPS   O21 8700   0.863   0.650  10.170 -1.1241 -0.0260  0.8149
   90SAPS   C21 8701   0.774   0.556  10.151  0.3445 -0.6766 -0.4544
   90SAPS   O22 8702   0.667   0.546  10.211  0.8980  0.7171  0.2968
   90SAPS   C22 8703   0.832   0.437  10.055 -0.4430 -0.2096 -0.0681
   90SAPS   H2R 8704   0.937   0.463  10.030 -0.7184  3.0658  1.6192
   90SAPS   H2S 8705   0.836   0.353  10.127 -0.7329 -0.1632  0.0035
   90SAPS    C3 8706   0.923   0.872  10.235 -0.4943  0.2876  0.2064
   90SAPS    HX 8707   1.031   0.845  10.238 -0.7419 -0.8438 -0.5095
   90SAPS    HY 8708   0.911   0.947  10.317 -0.8302 -2.1477  2.5501
   90SAPS   O31 8709   0.893   0.931  10.105 -0.1711 -0.4984 -0.0401
   90SAPS   C31 8710   0.774   0.991  10.092  0.3543  0.1034 -0.0631
   90SAPS   O32 8711   0.683   0.992  10.173 -0.2257 -0.1933  0.1322
   90SAPS   C32 8712   0.767   1.061   9.952  0.3948 -0.2821  0.3454
   90SAPS   H2X 8713   0.869   1.082   9.914  0.1511 -0.1033 -0.2137
   90SAPS   H2Y 8714   0.725   1.161   9.976 -0.9680 -0.8814  0.5477
   90SAPS   C23 8715   0.739   0.395   9.941 -0.2122  0.1469  0.0573
   90SAPS   H3R 8716   0.640   0.362   9.979 -0.7539 -0.5134 -1.8487
   90SAPS   H3S 8717   0.786   0.303   9.901 -1.5569 -0.2212 -0.6963
   90SAPS   C24 8718   0.731   0.492   9.816 -0.8194 -0.4013 -0.6191
   90SAPS   H4R 8719   0.837   0.521   9.800 -0.8356  0.0977  0.1316
   90SAPS   H4S 8720   0.686   0.589   9.849 -2.3858 -0.2619 -2.8991
   90SAPS   C25 8721   0.657   0.441   9.701 -0.0739  0.2655 -0.1453
   90SAPS   H5R 8722   0.674   0.335   9.678 -2.0693  0.1680 -1.5213
   90SAPS   C26 8723   0.556   0.506   9.641  0.3043  0.4466 -0.3117
   90SAPS   H6R 8724   0.513   0.448   9.557 -0.6188 -0.6897  0.9102
   90SAPS   C27 8725   0.513   0.653   9.670  0.0351  0.2372  0.5690
   90SAPS   H7R 8726   0.460   0.693   9.581  3.5600  0.2747 -1.6630
   90SAPS   H7S 8727   0.606   0.708   9.692  1.5868 -3.1278  3.4938
   90SAPS   C28 8728   0.418   0.654   9.792 -0.2105 -0.8169 -0.0386
   90SAPS   H8R 8729   0.421   0.570   9.862 -0.5898 -0.2215  0.7037
   90SAPS   C29 8730   0.341   0.763   9.828  0.3368  1.0410 -0.1593
   90SAPS   H9R 8731   0.290   0.755   9.925 -0.6249  2.3985 -0.5275
   90SAPS  C210 8732   0.326   0.893   9.757 -0.7256 -0.1698 -0.0524
   90SAPS  H10R 8733   0.410   0.905   9.685 -1.7453 -0.7247 -1.3935
   90SAPS  H10S 8734   0.341   0.966   9.840 -1.5404 -0.3808  0.2892
   90SAPS  C211 8735   0.189   0.905   9.697 -0.2172  0.4281 -0.6392
   90SAPS  H11R 8736   0.106   0.857   9.749  0.1498 -1.0354 -1.3519
   90SAPS  C212 8737   0.159   0.966   9.580 -0.5033  0.0401  0.0607
   90SAPS  H12R 8738   0.051   0.984   9.566 -0.4106  1.0274  0.5446
   90SAPS  C213 8739   0.255   1.038   9.483 -0.1924  0.7104  0.1987
   90SAPS  H13R 8740   0.359   1.028   9.522 -0.8342 -0.1284  1.8048
   90SAPS  H13S 8741   0.234   1.146   9.495  2.2949  1.2443  0.2985
   90SAPS  C214 8742   0.238   1.001   9.337 -0.3055 -0.7433  0.1933
   90SAPS  H14R 8743   0.135   1.013   9.300 -0.5131 -2.4742  0.1543
   90SAPS  C215 8744   0.330   0.958   9.246 -0.3237 -0.2577  0.1879
   90SAPS  H15R 8745   0.295   0.918   9.150  2.8154 -0.7820 -0.8490
   90SAPS  C216 8746   0.473   0.927   9.279  0.6251  0.3144  0.1969
   90SAPS  H16R 8747   0.496   0.825   9.242 -0.6747 -0.1082  0.5076
   90SAPS  H16S 8748   0.494   0.930   9.388  2.0848  3.7282 -0.0349
   90SAPS  C217 8749   0.563   1.041   9.221  0.1018  0.6929  0.0885
   90SAPS  H17R 8750   0.553   1.132   9.284  1.0175  0.9010 -0.0515
   90SAPS  H17S 8751   0.543   1.054   9.112  1.4836 -1.9786 -0.5891
   90SAPS  C218 8752   0.716   1.006   9.234 -0.3464  0.2205  0.0322
   90SAPS  H18R 8753   0.736   0.907   9.186 -1.9669 -0.2316  0.2196
   90SAPS  H18S 8754   0.733   0.988   9.342  1.3258 -0.6515 -0.3425
   90SAPS  C219 8755   0.800   1.123   9.195  0.9142  0.7616 -0.0353
   90SAPS  H19R 8756   0.802   1.196   9.279  1.3842  0.4290  0.2492
   90SAPS  H19S 8757   0.755   1.172   9.106  0.7216 -0.1441 -0.4458
   90SAPS  C220 8758   0.943   1.096   9.148 -0.5586 -0.7149  0.1366
   90SAPS  H20R 8759   0.998   1.193   9.142 -2.4662  0.7392  3.4440
   90SAPS  H20S 8760   0.929   1.036   9.056  0.5895 -0.7112 -0.0609
   90SAPS  H20T 8761   1.000   1.057   9.235  1.1852  1.6528  0.1828
   90SAPS   C33 8762   0.686   0.991   9.842 -0.1249  0.3270  0.0655
   90SAPS   H3X 8763   0.577   0.981   9.863 -0.0038 -2.5795 -0.2148
   90SAPS   H3Y 8764   0.719   0.885   9.837  0.2800  0.4367  0.4127
   90SAPS   C34 8765   0.706   1.054   9.700  0.9559  0.3960 -0.1421
   90SAPS   H4X 8766   0.626   1.007   9.639  0.1569  1.8720 -0.2564
   90SAPS   H4Y 8767   0.805   1.031   9.655  0.6593  0.7868 -1.0155
   90SAPS   C35 8768   0.675   1.208   9.704  0.5108 -0.0438 -1.0028
   90SAPS   H5X 8769   0.765   1.260   9.743  0.2763  1.3367 -2.1935
   90SAPS   H5Y 8770   0.579   1.245   9.745  0.9464  0.6347 -0.5827
   90SAPS   C36 8771   0.673   1.264   9.561 -0.9585 -0.3987  0.4050
   90SAPS   H6X 8772   0.589   1.209   9.513 -0.4598  1.1370 -2.4444
   90SAPS   H6Y 8773   0.767   1.231   9.512 -1.4034 -1.6092  0.3218
   90SAPS   C37 8774   0.659   1.419   9.553  0.0110  0.1086  0.6358
   90SAPS   H7X 8775   0.735   1.468   9.618  1.8053  0.6144 -1.7209
   90SAPS   H7Y 8776   0.561   1.451   9.595  0.2993 -0.6124  1.9182
   90SAPS   C38 8777   0.675   1.468   9.414 -0.6213 -0.8563 -0.2663
   90SAPS   H8X 8778   0.628   1.395   9.346 -0.4667 -1.2672  0.0631
   90SAPS   H8Y 8779   0.782   1.474   9.383 -0.0126 -1.5226  1.5310
   90SAPS   C39 8780   0.638   1.619   9.398 -0.0094 -0.5322 -0.6543
   90SAPS   H9X 8781   0.721   1.685   9.430  0.3420 -0.2928 -1.9938
   90SAPS   H9Y 8782   0.553   1.641   9.467  0.4413  2.5698 -0.9241
   90SAPS  C310 8783   0.587   1.669   9.261 -0.8692 -0.2756 -0.5153
   90SAPS  H10X 8784   0.507   1.744   9.277  0.8597  1.0562  3.0618
   90SAPS  H10Y 8785   0.539   1.579   9.217 -0.0310 -0.5947 -0.7946
   90SAPS  C311 8786   0.683   1.719   9.151  0.3363  0.1241 -0.3985
   90SAPS  H11X 8787   0.772   1.654   9.157  0.0156 -0.2235  1.1405
   90SAPS  H11Y 8788   0.713   1.824   9.169  0.9387 -0.0342 -0.4608
   90SAPS  C312 8789   0.627   1.693   9.009  0.0680  0.2851  0.4842
   90SAPS  H12X 8790   0.658   1.780   8.947 -1.5009  1.9606  1.9428
   90SAPS  H12Y 8791   0.518   1.707   9.025  0.0774  0.6165  0.2740
   90SAPS  C313 8792   0.660   1.564   8.936  1.2581  0.1787  0.0729
   90SAPS  H13X 8793   0.651   1.477   9.005 -1.3687  1.1156  1.0418
   90SAPS  H13Y 8794   0.764   1.576   8.899  0.6551  0.7841 -1.5469
   90SAPS  C314 8795   0.563   1.533   8.812  0.1014 -0.3840  0.1114
   90SAPS  H14X 8796   0.600   1.443   8.757  0.3776  0.2407 -0.7600
   90SAPS  H14Y 8797   0.590   1.607   8.733  0.2364 -0.6826 -0.1260
   90SAPS  C315 8798   0.414   1.537   8.850  0.0545 -0.3455 -0.0665
   90SAPS  H15X 8799   0.372   1.632   8.889  1.2124  0.2386 -0.1991
   90SAPS  H15Y 8800   0.384   1.471   8.934 -1.3055  3.5247  2.7766
   90SAPS  C316 8801   0.329   1.508   8.732  0.5647 -0.5202  1.1456
   90SAPS  H16X 8802   0.346   1.597   8.668  0.7429  0.6094  2.7091
   90SAPS  H16Y 8803   0.220   1.501   8.753 -0.0819  0.1113 -1.5581
   90SAPS  C317 8804   0.365   1.392   8.636  0.4234  0.1546 -0.4328
   90SAPS  H17X 8805   0.349   1.298   8.692 -2.9170  0.6736 -0.3625
   90SAPS  H17Y 8806   0.470   1.391   8.599  0.5884 -1.0486  0.0317
   90SAPS  C318 8807   0.274   1.381   8.510 -0.0656 -0.6081 -0.1302
   90SAPS  H18X 8808   0.177   1.333   8.535 -2.3947  1.7894 -3.6349
   90SAPS  H18Y 8809   0.318   1.312   8.434  2.6311 -1.3380  1.9551
   90SAPS  H18Z 8810   0.253   1.478   8.461  1.3828  0.7768  1.8263
   91SAPS     N 8811   2.774   2.309   5.968 -0.8474  0.4108 -0.7721
   91SAPS   HN1 8812   2.676   2.277   5.984 -1.2909  1.5425 -1.1384
   91SAPS   HN2 8813   2.774   2.373   5.886 -1.5611  1.6318  0.1519
   91SAPS   HN3 8814   2.830   2.222   5.957  0.2907  1.2710 -2.1666
   91SAPS   C12 8815   2.839   2.380   6.078 -0.1730 -0.1429 -0.0553
   91SAPS  H12A 8816   2.863   2.308   6.154 -0.7118 -1.2039 -0.8636
   91SAPS   C13 8817   2.974   2.440   6.030  0.2248 -0.0048  0.0684
   91SAPS  O13A 8818   3.000   2.422   5.908 -0.2797 -0.1440 -0.0738
   91SAPS  O13B 8819   3.045   2.521   6.097  0.5987 -0.4129  0.5831
   91SAPS   C11 8820   2.750   2.498   6.120 -0.5090 -0.5349 -0.7496
   91SAPS  H11A 8821   2.737   2.567   6.034 -2.4054  1.1155  0.7551
   91SAPS  H11B 8822   2.812   2.549   6.196 -1.5033 -2.5043  1.5433
   91SAPS     P 8823   2.589   2.402   6.310 -0.2804  0.3483 -0.0049
   91SAPS   O13 8824   2.447   2.424   6.339  0.0919  0.2159  0.3663
   91SAPS   O14 8825   2.639   2.264   6.322 -0.4743  0.0862 -0.2868
   91SAPS   O12 8826   2.621   2.460   6.168  0.0613  0.1448 -0.0861
   91SAPS   O11 8827   2.681   2.483   6.406  0.1308 -0.7041 -0.7659
   91SAPS    C1 8828   2.666   2.626   6.428  0.4361  0.4800 -0.4591
   91SAPS    HA 8829   2.679   2.688   6.337 -1.8184  3.9035  1.3440
   91SAPS    HB 8830   2.562   2.646   6.461  0.3172 -1.5088  0.5113
   91SAPS    C2 8831   2.752   2.685   6.538 -1.1008 -0.1661  0.5004
   91SAPS    HS 8832   2.856   2.674   6.500 -1.2591 -0.5010  0.1640
   91SAPS   O21 8833   2.747   2.594   6.651  0.3971 -0.2921 -0.5505
   91SAPS   C21 8834   2.830   2.624   6.748  0.3283 -1.1274 -0.3010
   91SAPS   O22 8835   2.923   2.704   6.737 -0.4349  0.6046 -0.4024
   91SAPS   C22 8836   2.798   2.526   6.861 -0.2199  0.7329  0.0993
   91SAPS   H2R 8837   2.703   2.472   6.836  0.5606 -1.4005  1.4541
   91SAPS   H2S 8838   2.879   2.450   6.865 -1.2073 -0.3165  1.3941
   91SAPS    C3 8839   2.728   2.837   6.576 -0.6232  0.7663 -0.3326
   91SAPS    HX 8840   2.762   2.894   6.487  2.7795  0.5063  0.6453
   91SAPS    HY 8841   2.796   2.884   6.650 -1.3812 -1.1102  1.6623
   91SAPS   O31 8842   2.590   2.854   6.604  0.1691  0.4975 -0.7789
   91SAPS   C31 8843   2.557   2.837   6.734 -1.2093 -0.1063 -0.0629
   91SAPS   O32 8844   2.634   2.828   6.826 -0.6136 -0.5047  0.9341
   91SAPS   C32 8845   2.408   2.846   6.749 -0.2349  0.4226  0.2020
   91SAPS   H2X 8846   2.370   2.767   6.682  2.0789 -0.6320  0.0089
   91SAPS   H2Y 8847   2.368   2.939   6.703 -0.4867 -0.4826 -1.4938
   91SAPS   C23 8848   2.783   2.596   6.998 -0.4695 -0.2662  0.9494
   91SAPS   H3R 8849   2.701   2.670   6.988 -1.7323 -1.8532 -1.3285
   91SAPS   H3S 8850   2.880   2.641   7.027 -0.6835  0.1669  0.9911
   91SAPS   C24 8851   2.730   2.508   7.116 -0.6151  0.1913 -0.0883
   91SAPS   H4R 8852   2.799   2.422   7.109 -2.4230 -1.3943  0.4643
   91SAPS   H4S 8853   2.631   2.474   7.077 -1.2927  3.3778 -1.5238
   91SAPS   C25 8854   2.723   2.585   7.248  0.0034  0.1753 -0.3543
   91SAPS   H5R 8855   2.700   2.693   7.246  0.9145  0.4061  0.6214
   91SAPS   C26 8856   2.727   2.523   7.365  0.5897 -0.8547 -0.4032
   91SAPS   H6R 8857   2.717   2.581   7.458  2.1190  3.3312 -2.6033
   91SAPS   C27 8858   2.745   2.371   7.393 -0.4042 -0.1471  0.5229
   91SAPS   H7R 8859   2.833   2.357   7.460  0.7341  3.0688 -0.1249
   91SAPS   H7S 8860   2.778   2.309   7.307  0.3730 -1.4467  1.7228
   91SAPS   C28 8861   2.615   2.318   7.446  0.0522  0.1578  0.1199
   91SAPS   H8R 8862   2.551   2.271   7.370  0.6417 -1.2558  0.4704
   91SAPS   C29 8863   2.567   2.321   7.571  0.1126  0.2263  0.7172
   91SAPS   H9R 8864   2.471   2.273   7.593 -0.0852  0.2227 -0.1303
   91SAPS  C210 8865   2.653   2.370   7.686  0.1622  0.0938 -0.5675
   91SAPS  H10R 8866   2.761   2.376   7.661  0.8355 -3.1749  1.0329
   91SAPS  H10S 8867   2.656   2.295   7.768 -1.1273  0.8240  0.1787
   91SAPS  C211 8868   2.599   2.504   7.727  0.3412 -0.1072  0.2633
   91SAPS  H11R 8869   2.613   2.587   7.655  4.1150  1.0955  2.1059
   91SAPS  C212 8870   2.522   2.527   7.839 -0.6424  0.0992  0.8558
   91SAPS  H12R 8871   2.484   2.627   7.864  1.2225  0.4583  2.5227
   91SAPS  C213 8872   2.466   2.420   7.928  0.2009 -0.6077  0.2517
   91SAPS  H13R 8873   2.467   2.317   7.887 -0.8633 -0.6901  0.4087
   91SAPS  H13S 8874   2.360   2.451   7.936  0.3800  1.0203 -2.5126
   91SAPS  C214 8875   2.538   2.439   8.058  0.1832 -0.1506 -0.5708
   91SAPS  H14R 8876   2.645   2.415   8.053  0.4669  0.8597  0.1731
   91SAPS  C215 8877   2.480   2.454   8.186 -0.1359  0.6288 -0.3544
   91SAPS  H15R 8878   2.544   2.459   8.275 -1.0461 -1.1144  0.4572
   91SAPS  C216 8879   2.331   2.450   8.222 -0.0512  0.4350 -0.0840
   91SAPS  H16R 8880   2.317   2.423   8.329 -2.3174 -1.9377 -0.8683
   91SAPS  H16S 8881   2.294   2.375   8.150  2.5265 -0.2115 -0.8609
   91SAPS  C217 8882   2.249   2.581   8.200 -1.1486 -0.3879  0.0637
   91SAPS  H17R 8883   2.139   2.568   8.192 -1.4459  1.7315  0.2339
   91SAPS  H17S 8884   2.277   2.624   8.101 -1.5845  2.2561  1.0086
   91SAPS  C218 8885   2.268   2.693   8.303  0.1638 -0.1065 -0.0775
   91SAPS  H18R 8886   2.248   2.790   8.253  1.7020  0.0177 -0.5019
   91SAPS  H18S 8887   2.377   2.702   8.322  0.2349 -3.2482  1.7113
   91SAPS  C219 8888   2.185   2.672   8.427 -0.9876 -0.0813 -0.0692
   91SAPS  H19R 8889   2.180   2.567   8.462  0.4250  0.1752  1.0002
   91SAPS  H19S 8890   2.077   2.692   8.406 -1.0455  0.7206  0.8877
   91SAPS  C220 8891   2.225   2.774   8.530  0.1402  0.1386 -0.2127
   91SAPS  H20R 8892   2.197   2.877   8.498  0.2211 -0.0424 -0.8806
   91SAPS  H20S 8893   2.334   2.768   8.552 -0.0206 -0.6371  0.3887
   91SAPS  H20T 8894   2.165   2.747   8.619  0.2227  1.9721  0.4556
   91SAPS   C33 8895   2.357   2.818   6.895 -0.7878  0.8580 -0.1188
   91SAPS   H3X 8896   2.402   2.725   6.937  0.6525  1.4087 -0.3790
   91SAPS   H3Y 8897   2.249   2.800   6.879 -0.7503  1.2415 -0.8511
   91SAPS   C34 8898   2.400   2.927   6.997  0.2993  0.5006 -0.3559
   91SAPS   H4X 8899   2.499   2.896   7.035 -0.1936 -1.5206 -0.6250
   91SAPS   H4Y 8900   2.329   2.925   7.082 -0.6049 -0.4205 -1.1074
   91SAPS   C35 8901   2.419   3.065   6.950  0.9420 -0.0483  0.3843
   91SAPS   H5X 8902   2.324   3.097   6.902  1.2203  0.6926  0.3165
   91SAPS   H5Y 8903   2.499   3.074   6.873 -0.9397 -0.1402 -1.6950
   91SAPS   C36 8904   2.463   3.163   7.057 -0.1478  0.6810 -0.5328
   91SAPS   H6X 8905   2.469   3.263   7.008  3.8339  0.5276 -0.6106
   91SAPS   H6Y 8906   2.560   3.139   7.103 -1.3149  1.7353  2.7700
   91SAPS   C37 8907   2.361   3.169   7.168 -0.5653  0.2188  0.0819
   91SAPS   H7X 8908   2.342   3.091   7.245 -2.0756  2.9980  2.7345
   91SAPS   H7Y 8909   2.272   3.175   7.101  0.0030  1.3814 -0.6001
   91SAPS   C38 8910   2.397   3.308   7.235 -1.0462 -0.1341 -0.1897
   91SAPS   H8X 8911   2.386   3.388   7.159 -2.3106  0.4732  0.5892
   91SAPS   H8Y 8912   2.502   3.295   7.269 -0.7000 -0.2576 -1.2602
   91SAPS   C39 8913   2.302   3.332   7.353  0.1686 -0.2521 -0.2934
   91SAPS   H9X 8914   2.310   3.239   7.413  0.1118  0.8485  1.4929
   91SAPS   H9Y 8915   2.193   3.346   7.335  0.1585  0.3690  0.1920
   91SAPS  C310 8916   2.343   3.447   7.434  0.6110 -0.0591 -0.5356
   91SAPS  H10X 8917   2.319   3.543   7.382  3.2972  1.8117  1.4435
   91SAPS  H10Y 8918   2.453   3.447   7.449  0.4654 -2.9803  1.2858
   91SAPS  C311 8919   2.283   3.446   7.578  0.2601 -0.1335  0.2300
   91SAPS  H11X 8920   2.323   3.353   7.622 -1.7855 -1.3578 -0.3877
   91SAPS  H11Y 8921   2.172   3.443   7.571  0.3531 -0.4157 -1.3601
   91SAPS  C312 8922   2.321   3.573   7.660  0.3654  0.1808 -0.3295
   91SAPS  H12X 8923   2.251   3.660   7.658 -0.5737 -0.4173  2.2294
   91SAPS  H12Y 8924   2.422   3.598   7.622  0.1234  3.2059  0.6959
   91SAPS  C313 8925   2.348   3.554   7.815 -0.4098 -0.1157  0.2550
   91SAPS  H13X 8926   2.432   3.485   7.838  0.0063  0.1573 -0.4372
   91SAPS  H13Y 8927   2.257   3.514   7.865  0.5044 -0.2941  1.8648
   91SAPS  C314 8928   2.384   3.685   7.880 -0.0749 -0.0295  0.2994
   91SAPS  H14X 8929   2.327   3.774   7.844 -2.3033 -2.2471 -2.0234
   91SAPS  H14Y 8930   2.493   3.699   7.862  0.1636 -0.5671  1.2146
   91SAPS  C315 8931   2.350   3.680   8.035 -0.3328 -0.5524  0.8445
   91SAPS  H15X 8932   2.244   3.646   8.037 -1.0078  1.2814 -0.5013
   91SAPS  H15Y 8933   2.344   3.778   8.086 -0.8122 -0.1950  0.1374
   91SAPS  C316 8934   2.435   3.588   8.119  0.8297  0.3815  0.9428
   91SAPS  H16X 8935   2.539   3.628   8.119  1.7627 -1.8544  2.3028
   91SAPS  H16Y 8936   2.423   3.484   8.080  0.8522  0.1881  1.4491
   91SAPS  C317 8937   2.381   3.589   8.263  0.2251 -0.4939 -1.3850
   91SAPS  H17X 8938   2.275   3.555   8.268 -0.0016  0.2931  2.2483
   91SAPS  H17Y 8939   2.390   3.689   8.312  1.2206 -0.4738 -1.6040
   91SAPS  C318 8940   2.453   3.483   8.341  0.4744 -0.9252  0.4290
   91SAPS  H18X 8941   2.412   3.481   8.444 -2.5789  0.3118 -0.6506
   91SAPS  H18Y 8942   2.562   3.502   8.348  0.0696  2.6905 -1.1118
   91SAPS  H18Z 8943   2.439   3.393   8.277  0.2864 -0.2516 -0.5032
   92SAPS     N 8944   5.957   1.546   6.438  0.3134 -0.1670  0.0541
   92SAPS   HN1 8945   6.055   1.519   6.458 -0.0703 -1.5571  0.1135
   92SAPS   HN2 8946   5.916   1.592   6.521  0.3577 -0.3030  0.1513
   92SAPS   HN3 8947   5.906   1.457   6.423 -0.1066  0.1276 -0.3073
   92SAPS   C12 8948   5.960   1.621   6.311 -0.5140 -0.0011 -0.0996
   92SAPS  H12A 8949   6.010   1.558   6.239 -0.6576  1.8022 -1.8668
   92SAPS   C13 8950   5.826   1.665   6.262  0.4900  0.4673 -0.1855
   92SAPS  O13A 8951   5.719   1.644   6.333 -0.3624  0.2348  0.3614
   92SAPS  O13B 8952   5.815   1.673   6.136  0.4034 -0.1218  0.0843
   92SAPS   C11 8953   6.055   1.749   6.331  0.1837 -0.0572  0.7043
   92SAPS  H11A 8954   5.999   1.799   6.413 -1.2386  2.0040 -1.3869
   92SAPS  H11B 8955   6.064   1.822   6.247  2.5499 -1.3862 -0.3135
   92SAPS     P 8956   6.293   1.807   6.411 -0.6230  0.3903  0.3216
   92SAPS   O13 8957   6.408   1.780   6.322 -0.1590  0.6848 -0.1292
   92SAPS   O14 8958   6.243   1.943   6.405 -0.1571  0.5934 -0.0514
   92SAPS   O12 8959   6.185   1.698   6.368  0.1117 -0.1452 -0.5278
   92SAPS   O11 8960   6.328   1.778   6.567  0.3682 -0.0740 -0.0027
   92SAPS    C1 8961   6.236   1.695   6.636  0.0270  0.6549 -0.0524
   92SAPS    HA 8962   6.130   1.727   6.628  0.4545  1.8617 -1.2033
   92SAPS    HB 8963   6.239   1.588   6.604 -0.8282  1.2785 -2.3896
   92SAPS    C2 8964   6.285   1.684   6.789  0.1183  0.2328  0.2986
   92SAPS    HS 8965   6.224   1.599   6.827  0.8756 -0.3362  0.2602
   92SAPS   O21 8966   6.255   1.811   6.855 -0.1718  0.1967  0.1586
   92SAPS   C21 8967   6.133   1.806   6.904 -0.0119 -0.7851  0.2685
   92SAPS   O22 8968   6.051   1.719   6.886  0.2889  0.5597 -0.3723
   92SAPS   C22 8969   6.108   1.934   6.989  0.0953  0.2400  0.5047
   92SAPS   H2R 8970   6.074   2.010   6.914 -0.1747  0.7589  1.1444
   92SAPS   H2S 8971   6.020   1.922   7.056 -0.1575  0.7696  0.2814
   92SAPS    C3 8972   6.438   1.657   6.794  0.4794 -0.4774 -0.1875
   92SAPS    HX 8973   6.482   1.734   6.727  0.5741  0.1277  0.5610
   92SAPS    HY 8974   6.450   1.550   6.767  2.0372 -0.8718  1.7810
   92SAPS   O31 8975   6.478   1.672   6.936 -0.2228  0.1304 -1.1762
   92SAPS   C31 8976   6.609   1.640   6.941 -0.6176  0.7101  0.0685
   92SAPS   O32 8977   6.667   1.581   6.849 -0.0409  0.0281 -0.0423
   92SAPS   C32 8978   6.678   1.676   7.073 -0.4155  0.1396  0.6847
   92SAPS   H2X 8979   6.636   1.774   7.104  0.0935 -0.4394  3.5575
   92SAPS   H2Y 8980   6.787   1.698   7.066 -0.2924  0.0113  1.8631
   92SAPS   C23 8981   6.236   1.991   7.055 -0.2325 -0.0134 -0.0054
   92SAPS   H3R 8982   6.207   2.092   7.092 -2.2900 -0.5472 -0.0468
   92SAPS   H3S 8983   6.312   2.008   6.976  0.2634  0.2457  0.5153
   92SAPS   C24 8984   6.292   1.900   7.166  0.1974  0.1987 -0.1394
   92SAPS   H4R 8985   6.372   1.958   7.216 -1.2729  1.0806  1.2862
   92SAPS   H4S 8986   6.334   1.811   7.114 -0.5623  0.2991 -0.9556
   92SAPS   C25 8987   6.187   1.856   7.262  0.6991 -0.7500  0.0297
   92SAPS   H5R 8988   6.095   1.809   7.224  1.6364 -1.3859 -1.5454
   92SAPS   C26 8989   6.199   1.880   7.392 -0.1457  0.3361  0.3255
   92SAPS   H6R 8990   6.119   1.849   7.462  0.4609 -0.3329  0.7373
   92SAPS   C27 8991   6.326   1.923   7.463 -0.5401  0.2837  0.0855
   92SAPS   H7R 8992   6.324   2.032   7.487  2.8254  0.5836 -0.3783
   92SAPS   H7S 8993   6.418   1.900   7.404  0.0550 -1.5511  1.6568
   92SAPS   C28 8994   6.331   1.856   7.603  0.6218 -0.6640  0.6900
   92SAPS   H8R 8995   6.364   1.753   7.622 -0.2469 -0.9188  0.9046
   92SAPS   C29 8996   6.272   1.901   7.717  0.0871 -0.1189  0.2007
   92SAPS   H9R 8997   6.279   1.840   7.808 -1.4431  1.3812  1.3886
   92SAPS  C210 8998   6.202   2.032   7.739  0.2787  0.2558 -0.1157
   92SAPS  H10R 8999   6.116   2.029   7.810 -0.2255 -0.9582 -0.7660
   92SAPS  H10S 9000   6.161   2.053   7.638  1.2577 -1.7640 -0.9737
   92SAPS  C211 9001   6.299   2.141   7.776 -0.4991 -0.2309 -0.6589
   92SAPS  H11R 9002   6.396   2.146   7.725 -0.2208  2.1401 -0.0168
   92SAPS  C212 9003   6.269   2.245   7.859 -0.4434  0.7398  0.4005
   92SAPS  H12R 9004   6.344   2.325   7.868 -0.0072  0.4566 -0.5214
   92SAPS  C213 9005   6.155   2.261   7.945  1.0918 -0.0219 -0.8412
   92SAPS  H13R 9006   6.064   2.223   7.894 -1.0318 -0.4908  2.8561
   92SAPS  H13S 9007   6.124   2.366   7.965  0.0715 -0.7227  1.7365
   92SAPS  C214 9008   6.171   2.188   8.076 -0.2673  0.0211 -0.3839
   92SAPS  H14R 9009   6.193   2.081   8.071  0.9174  0.1606  1.1961
   92SAPS  C215 9010   6.152   2.234   8.201 -0.0854  0.8641 -1.1136
   92SAPS  H15R 9011   6.169   2.168   8.287  1.0225  1.7260 -0.6486
   92SAPS  C216 9012   6.116   2.375   8.243  0.9518 -0.5103 -0.2341
   92SAPS  H16R 9013   6.042   2.364   8.325 -1.5506  1.8970 -1.9627
   92SAPS  H16S 9014   6.061   2.425   8.161 -0.6049 -1.7744 -0.0147
   92SAPS  C217 9015   6.231   2.451   8.297  0.5868  0.3324  0.7728
   92SAPS  H17R 9016   6.302   2.473   8.214 -0.3982  0.3514 -0.0822
   92SAPS  H17S 9017   6.288   2.395   8.375  0.7707 -0.8618 -0.1900
   92SAPS  C218 9018   6.186   2.585   8.356 -0.3227  0.1603 -0.2816
   92SAPS  H18R 9019   6.099   2.561   8.421 -0.9897  1.8156 -0.5115
   92SAPS  H18S 9020   6.168   2.652   8.270 -0.3507  2.1878  1.2410
   92SAPS  C219 9021   6.307   2.647   8.436  0.2257 -0.3167  0.1120
   92SAPS  H19R 9022   6.332   2.749   8.398  1.8597 -0.2624  1.1971
   92SAPS  H19S 9023   6.392   2.576   8.432  0.9670  0.3803  2.2438
   92SAPS  C220 9024   6.286   2.661   8.587  0.2338 -0.6673  0.1296
   92SAPS  H20R 9025   6.369   2.707   8.644 -0.8274 -1.2258  2.2434
   92SAPS  H20S 9026   6.280   2.560   8.633  2.3604 -0.1437  1.7256
   92SAPS  H20T 9027   6.192   2.718   8.603 -0.4537 -0.7380 -2.9530
   92SAPS   C33 9028   6.654   1.578   7.185 -0.3036 -0.1502  0.0369
   92SAPS   H3X 9029   6.680   1.473   7.159 -2.8081 -0.5802 -1.0156
   92SAPS   H3Y 9030   6.544   1.578   7.200 -0.2175  0.7798  0.8082
   92SAPS   C34 9031   6.735   1.624   7.309 -0.6447 -0.2473 -0.3331
   92SAPS   H4X 9032   6.726   1.735   7.312 -3.8187 -0.4206  1.0537
   92SAPS   H4Y 9033   6.841   1.600   7.286 -0.7411 -0.2514 -0.7852
   92SAPS   C35 9034   6.686   1.563   7.442  0.2093  1.0931 -0.1224
   92SAPS   H5X 9035   6.692   1.453   7.431 -1.8679  1.1736 -3.3015
   92SAPS   H5Y 9036   6.579   1.593   7.447 -0.5784 -1.5920  0.3786
   92SAPS   C36 9037   6.767   1.610   7.559 -0.1493  0.2717 -0.1364
   92SAPS   H6X 9038   6.814   1.707   7.532 -0.6058 -0.2169 -3.0019
   92SAPS   H6Y 9039   6.846   1.533   7.574 -0.0316  0.7398  2.0035
   92SAPS   C37 9040   6.675   1.611   7.682  0.5877  0.1887  0.3606
   92SAPS   H7X 9041   6.650   1.507   7.713  1.2253 -0.4064 -1.0708
   92SAPS   H7Y 9042   6.579   1.666   7.671  0.8295  0.1596 -2.7959
   92SAPS   C38 9043   6.751   1.665   7.804  0.0938  0.0609  0.4847
   92SAPS   H8X 9044   6.785   1.767   7.775  1.9876 -1.0703 -1.5611
   92SAPS   H8Y 9045   6.843   1.603   7.818 -1.1967 -1.8608  0.7714
   92SAPS   C39 9046   6.686   1.662   7.945  0.5199 -0.6007 -0.2771
   92SAPS   H9X 9047   6.761   1.716   8.006  0.0425  0.7146 -0.8061
   92SAPS   H9Y 9048   6.667   1.560   7.984  0.7601 -1.0066 -1.1813
   92SAPS  C310 9049   6.549   1.735   7.950  0.1768 -0.0367  0.1609
   92SAPS  H10X 9050   6.501   1.690   8.039 -0.7447 -2.9370 -1.6556
   92SAPS  H10Y 9051   6.493   1.699   7.861  0.3311 -0.1169  0.0959
   92SAPS  C311 9052   6.559   1.889   7.962  0.4217  0.3179  0.6320
   92SAPS  H11X 9053   6.466   1.948   7.945  0.2848  0.0942  0.6009
   92SAPS  H11Y 9054   6.629   1.934   7.888  0.0250 -0.6641 -0.3710
   92SAPS  C312 9055   6.598   1.936   8.105 -0.1950  0.6461 -0.0648
   92SAPS  H12X 9056   6.689   1.880   8.135  1.9251  1.8277 -3.6017
   92SAPS  H12Y 9057   6.520   1.907   8.179  0.1580  0.4232  0.2215
   92SAPS  C313 9058   6.606   2.088   8.121 -0.1808  0.0653  0.4459
   92SAPS  H13X 9059   6.514   2.128   8.073  0.8333  1.0160 -0.7944
   92SAPS  H13Y 9060   6.693   2.137   8.072 -1.4419  1.0205 -0.9086
   92SAPS  C314 9061   6.619   2.118   8.270  0.2755 -0.0511 -1.2101
   92SAPS  H14X 9062   6.728   2.136   8.285  0.1664 -0.2979 -0.0047
   92SAPS  H14Y 9063   6.589   2.030   8.331  0.9026 -0.0824 -0.9361
   92SAPS  C315 9064   6.545   2.241   8.318  0.0251 -0.1256  0.6537
   92SAPS  H15X 9065   6.437   2.218   8.320 -0.2342  0.0999 -3.4818
   92SAPS  H15Y 9066   6.555   2.311   8.233  0.2905  0.1755  0.9320
   92SAPS  C316 9067   6.615   2.304   8.445 -0.1607 -0.1090  0.2559
   92SAPS  H16X 9068   6.546   2.387   8.471  0.1072 -0.0151  0.6774
   92SAPS  H16Y 9069   6.716   2.341   8.416 -0.2361  0.4131  0.6403
   92SAPS  C317 9070   6.630   2.217   8.567 -0.4338  0.0585  0.2823
   92SAPS  H17X 9071   6.686   2.123   8.549  0.9567  0.8884  0.1002
   92SAPS  H17Y 9072   6.525   2.184   8.587 -0.4960 -0.2887 -0.5713
   92SAPS  C318 9073   6.670   2.290   8.695 -0.0275 -0.4930  0.5441
   92SAPS  H18X 9074   6.595   2.364   8.731 -0.6866 -0.6376 -0.4849
   92SAPS  H18Y 9075   6.767   2.344   8.688  0.1705 -0.6985  1.5825
   92SAPS  H18Z 9076   6.678   2.219   8.779 -2.4462  1.3256  2.4623
   93SAPS     N 9077   0.608   1.512   6.264  0.7019  0.1621  0.4182
   93SAPS   HN1 9078   0.689   1.447   6.272 -0.0712 -1.0109 -0.8717
   93SAPS   HN2 9079   0.533   1.453   6.305  0.7862 -0.6529 -0.5467
   93SAPS   HN3 9080   0.595   1.531   6.162 -0.7526 -0.1322  0.5291
   93SAPS   C12 9081   0.633   1.642   6.340 -0.2917  1.0695 -0.1678
   93SAPS  H12A 9082   0.679   1.613   6.434  1.5480  1.7990 -0.7798
   93SAPS   C13 9083   0.737   1.737   6.278  0.5635 -0.8265  0.1233
   93SAPS  O13A 9084   0.775   1.714   6.161  0.2133 -0.4904  0.1178
   93SAPS  O13B 9085   0.788   1.824   6.358  0.0227 -0.1648  0.6027
   93SAPS   C11 9086   0.500   1.728   6.350 -0.1242  0.9864 -0.5164
   93SAPS  H11A 9087   0.479   1.777   6.252  0.3258  0.2612 -0.9876
   93SAPS  H11B 9088   0.505   1.813   6.421 -2.0014  2.8442 -2.4544
   93SAPS     P 9089   0.247   1.684   6.401 -0.1425  0.4750 -0.3053
   93SAPS   O13 9090   0.240   1.826   6.356 -0.1732 -0.2691 -0.1319
   93SAPS   O14 9091   0.158   1.581   6.330 -0.1697 -0.5488  0.3409
   93SAPS   O12 9092   0.398   1.639   6.391 -0.1098 -0.2712 -0.0594
   93SAPS   O11 9093   0.218   1.687   6.554 -0.2881  0.1636  0.2751
   93SAPS    C1 9094   0.309   1.728   6.654  0.4422 -0.2380 -0.3447
   93SAPS    HA 9095   0.357   1.819   6.610  0.7602 -0.7455 -1.0773
   93SAPS    HB 9096   0.243   1.757   6.738 -1.0739 -1.4161 -1.0852
   93SAPS    C2 9097   0.405   1.615   6.709 -0.2004  0.3476  0.8896
   93SAPS    HS 9098   0.471   1.604   6.620  0.3053  0.4203  1.2481
   93SAPS   O21 9099   0.331   1.489   6.728 -0.4725  0.1047 -0.3695
   93SAPS   C21 9100   0.402   1.377   6.764 -0.1105 -0.4173  0.1208
   93SAPS   O22 9101   0.526   1.370   6.763  0.8498 -0.4275  0.7184
   93SAPS   C22 9102   0.298   1.270   6.794  0.5937 -0.3248 -0.2943
   93SAPS   H2R 9103   0.199   1.317   6.777  0.8654  0.4531  0.2142
   93SAPS   H2S 9104   0.306   1.177   6.734  1.7026 -0.2046 -0.3494
   93SAPS    C3 9105   0.471   1.664   6.837  0.0611 -0.0742  0.2921
   93SAPS    HX 9106   0.521   1.759   6.808 -0.9228 -0.1072 -1.6542
   93SAPS    HY 9107   0.549   1.593   6.872 -1.2600 -1.9576 -0.4348
   93SAPS   O31 9108   0.379   1.680   6.943  0.4295  0.2600  0.4396
   93SAPS   C31 9109   0.426   1.747   7.051 -0.8517  0.2100 -0.3315
   93SAPS   O32 9110   0.542   1.791   7.057  0.3567 -0.2833  0.6969
   93SAPS   C32 9111   0.333   1.749   7.161  0.1582 -0.0795 -0.2399
   93SAPS   H2X 9112   0.281   1.651   7.174  1.1572 -0.8149 -1.5548
   93SAPS   H2Y 9113   0.258   1.828   7.140 -1.2652 -1.5903 -1.1335
   93SAPS   C23 9114   0.299   1.229   6.946 -0.3025  0.4196  0.5436
   93SAPS   H3R 9115   0.297   1.305   7.027 -1.5939 -0.9617  1.8890
   93SAPS   H3S 9116   0.396   1.175   6.957  1.1072  2.9819  1.7559
   93SAPS   C24 9117   0.180   1.136   6.982  0.0518 -0.1095 -0.1860
   93SAPS   H4R 9118   0.212   1.089   7.077 -0.8410 -1.5671 -0.5730
   93SAPS   H4S 9119   0.172   1.055   6.907 -0.9829  1.0867 -1.4283
   93SAPS   C25 9120   0.055   1.215   6.979 -0.2057  0.1943 -0.8792
   93SAPS   H5R 9121   0.028   1.277   6.893 -2.1620  1.4291  0.5489
   93SAPS   C26 9122  -0.032   1.212   7.079 -0.5464  0.3250  0.0955
   93SAPS   H6R 9123  -0.131   1.257   7.062 -0.1465  1.2608  0.1580
   93SAPS   C27 9124  -0.002   1.126   7.199  0.1821 -0.0106  0.0927
   93SAPS   H7R 9125   0.097   1.145   7.246  0.8051  0.4593 -1.3627
   93SAPS   H7S 9126  -0.000   1.020   7.163 -0.1194  0.3231 -0.9309
   93SAPS   C28 9127  -0.108   1.137   7.308  0.5021 -0.2018 -0.2127
   93SAPS   H8R 9128  -0.203   1.169   7.263  0.6885 -1.4206 -1.5330
   93SAPS   C29 9129  -0.105   1.118   7.441 -0.1166  0.4533 -0.3899
   93SAPS   H9R 9130  -0.198   1.146   7.493 -0.5046  1.2094 -1.4602
   93SAPS  C210 9131   0.005   1.066   7.531 -0.3795  0.4416  0.5881
   93SAPS  H10R 9132   0.092   1.042   7.467 -1.8156  0.3610 -1.4408
   93SAPS  H10S 9133  -0.033   0.968   7.568  0.2428 -0.3299 -0.7485
   93SAPS  C211 9134   0.039   1.167   7.639  0.4580 -0.2144  0.4478
   93SAPS  H11R 9135  -0.038   1.184   7.716  0.2632  0.4470  0.1109
   93SAPS  C212 9136   0.144   1.249   7.644 -0.3035  0.3255 -0.8627
   93SAPS  H12R 9137   0.138   1.324   7.724  0.2078 -0.5061 -0.0074
   93SAPS  C213 9138   0.263   1.248   7.555 -0.6399  0.4653 -0.6525
   93SAPS  H13R 9139   0.286   1.147   7.515 -1.1321 -0.5870  1.5833
   93SAPS  H13S 9140   0.344   1.268   7.629 -2.6573  0.6052  1.6144
   93SAPS  C214 9141   0.265   1.344   7.440 -0.2404  0.4017  0.2137
   93SAPS  H14R 9142   0.172   1.351   7.382 -0.6182  1.6291  0.9123
   93SAPS  C215 9143   0.367   1.414   7.390  0.0392  0.3186  0.0597
   93SAPS  H15R 9144   0.359   1.478   7.301 -1.5910 -0.5316 -0.4392
   93SAPS  C216 9145   0.505   1.409   7.458 -0.3042  0.1665  0.0305
   93SAPS  H16R 9146   0.506   1.368   7.561 -0.3017  0.9283  0.3470
   93SAPS  H16S 9147   0.555   1.507   7.473 -0.9764  0.8951 -2.1005
   93SAPS  C217 9148   0.620   1.334   7.372  0.4172  0.0488 -0.5498
   93SAPS  H17R 9149   0.566   1.245   7.333 -1.0081  2.3488 -4.4424
   93SAPS  H17S 9150   0.708   1.300   7.430 -1.3759 -2.7341  0.7522
   93SAPS  C218 9151   0.662   1.403   7.239 -0.5893  0.6967 -0.4455
   93SAPS  H18R 9152   0.743   1.478   7.253 -0.9105  0.7629  1.2238
   93SAPS  H18S 9153   0.569   1.451   7.201 -0.6268  2.2286  1.4418
   93SAPS  C219 9154   0.701   1.290   7.133 -0.0186  0.6498  0.0752
   93SAPS  H19R 9155   0.618   1.218   7.115  1.5787 -1.1722 -0.4060
   93SAPS  H19S 9156   0.782   1.229   7.179 -1.0473  0.5373  1.8378
   93SAPS  C220 9157   0.762   1.343   7.001  0.0974 -0.2920 -0.2472
   93SAPS  H20R 9158   0.778   1.270   6.919 -0.4189 -0.3817 -0.2744
   93SAPS  H20S 9159   0.855   1.400   7.020  0.2427 -0.1831 -1.2220
   93SAPS  H20T 9160   0.698   1.424   6.959 -1.5296 -1.1432  0.5164
   93SAPS   C33 9161   0.403   1.781   7.295  0.8809  0.3696 -0.4937
   93SAPS   H3X 9162   0.449   1.879   7.273  2.2046 -0.0342  0.3402
   93SAPS   H3Y 9163   0.488   1.709   7.309 -1.0201 -1.8547  0.2662
   93SAPS   C34 9164   0.297   1.793   7.405  0.2002  0.0391  0.2772
   93SAPS   H4X 9165   0.249   1.693   7.400 -0.2245  0.2633 -3.8517
   93SAPS   H4Y 9166   0.226   1.869   7.365  0.6903  1.0553  1.2939
   93SAPS   C35 9167   0.341   1.801   7.552  0.1242 -0.2336 -0.3127
   93SAPS   H5X 9168   0.405   1.719   7.592  1.2745  1.2298  0.9933
   93SAPS   H5Y 9169   0.245   1.801   7.608  0.0163 -0.5336 -0.4885
   93SAPS   C36 9170   0.419   1.934   7.580  0.3313  0.2124  0.7056
   93SAPS   H6X 9171   0.362   2.019   7.536 -0.7768 -1.1999 -0.7331
   93SAPS   H6Y 9172   0.511   1.914   7.520 -0.4747 -1.4589 -0.0567
   93SAPS   C37 9173   0.465   1.955   7.726  0.0390  0.2844 -0.0868
   93SAPS   H7X 9174   0.530   1.870   7.757 -1.1752 -0.7393 -0.2644
   93SAPS   H7Y 9175   0.374   1.966   7.789  0.5453 -1.1807  0.9674
   93SAPS   C38 9176   0.549   2.085   7.740  0.4899 -0.0367 -0.3956
   93SAPS   H8X 9177   0.477   2.167   7.718  0.7446 -0.0525 -1.3105
   93SAPS   H8Y 9178   0.626   2.090   7.661  1.6952 -2.0363  0.5696
   93SAPS   C39 9179   0.616   2.116   7.876  0.6842  0.0398  0.4897
   93SAPS   H9X 9180   0.721   2.083   7.860  1.4099  2.4797 -0.1015
   93SAPS   H9Y 9181   0.573   2.068   7.966 -0.2350 -0.8442 -0.3920
   93SAPS  C310 9182   0.621   2.268   7.891 -0.1831  0.4250 -0.4043
   93SAPS  H10X 9183   0.520   2.313   7.896 -0.0895  0.5169  0.9946
   93SAPS  H10Y 9184   0.671   2.300   7.797  2.8132 -0.8052  0.6396
   93SAPS  C311 9185   0.698   2.311   8.020 -0.4688  0.5699  0.1616
   93SAPS  H11X 9186   0.639   2.265   8.102  0.1971 -3.3316 -1.3109
   93SAPS  H11Y 9187   0.716   2.420   8.020  3.0922  0.0885 -0.1462
   93SAPS  C312 9188   0.842   2.246   8.017  0.0750 -0.0254 -0.4179
   93SAPS  H12X 9189   0.878   2.256   7.913  1.1141 -2.8331 -0.4049
   93SAPS  H12Y 9190   0.832   2.135   8.024 -2.6572  0.2110  1.4163
   93SAPS  C313 9191   0.944   2.298   8.124  0.4425  0.1869 -0.2630
   93SAPS  H13X 9192   0.966   2.405   8.107  0.3755  0.0621 -1.2015
   93SAPS  H13Y 9193   1.039   2.248   8.093  0.5046 -0.7679  1.3618
   93SAPS  C314 9194   0.917   2.257   8.270  0.3366 -0.2669  0.9931
   93SAPS  H14X 9195   0.884   2.150   8.270  1.3890 -0.6255 -0.3543
   93SAPS  H14Y 9196   0.833   2.311   8.318 -0.3159 -0.1369 -0.2407
   93SAPS  C315 9197   1.053   2.261   8.348  0.2146  0.5756  0.2403
   93SAPS  H15X 9198   1.111   2.172   8.313 -2.5232 -1.0743 -0.4178
   93SAPS  H15Y 9199   1.034   2.233   8.454  0.4625  0.1609  0.1780
   93SAPS  C316 9200   1.138   2.393   8.337 -0.2469 -0.9364  0.1158
   93SAPS  H16X 9201   1.086   2.473   8.394  1.9094  0.8484 -0.2989
   93SAPS  H16Y 9202   1.144   2.418   8.229  3.9691 -1.2846  0.1004
   93SAPS  C317 9203   1.276   2.373   8.398 -0.0102  0.2098  0.0055
   93SAPS  H17X 9204   1.317   2.283   8.347 -1.5319 -0.4000 -0.1974
   93SAPS  H17Y 9205   1.257   2.361   8.507 -0.7095  1.6190  0.0664
   93SAPS  C318 9206   1.385   2.483   8.375  0.0482 -0.0114  0.0657
   93SAPS  H18X 9207   1.478   2.463   8.432  0.1739  0.2228 -0.0539
   93SAPS  H18Y 9208   1.349   2.580   8.414  1.9547  0.5696  0.5187
   93SAPS  H18Z 9209   1.410   2.495   8.267 -1.5433 -3.6434 -0.8657
   94SAPS     N 9210   5.373   3.931   5.524  0.3393  1.0461  0.2084
   94SAPS   HN1 9211   5.385   3.831   5.550  1.3960  0.9090 -0.6941
   94SAPS   HN2 9212   5.281   3.937   5.476 -0.0362 -2.8603  0.0931
   94SAPS   HN3 9213   5.452   3.953   5.459  0.7615 -1.1708 -0.1053
   94SAPS   C12 9214   5.382   4.018   5.647  0.5932  0.6354 -0.7695
   94SAPS  H12A 9215   5.482   4.000   5.684  0.7251  0.9374 -0.9807
   94SAPS   C13 9216   5.374   4.166   5.609  0.3817  0.6626 -0.3397
   94SAPS  O13A 9217   5.394   4.208   5.492  0.4567  0.4825  0.1267
   94SAPS  O13B 9218   5.370   4.244   5.716  0.0121  0.0153 -0.4307
   94SAPS   C11 9219   5.280   3.986   5.762 -0.2227  0.4131  0.5393
   94SAPS  H11A 9220   5.183   4.006   5.713  0.9335  1.4275 -1.4780
   94SAPS  H11B 9221   5.271   4.062   5.841  0.1133  0.9983  0.0215
   94SAPS     P 9222   5.389   3.809   5.915  0.2180 -0.0670 -0.0923
   94SAPS   O13 9223   5.313   3.819   6.036 -0.4170 -0.0255 -0.0263
   94SAPS   O14 9224   5.439   3.674   5.872 -0.0011 -0.1389  0.4677
   94SAPS   O12 9225   5.297   3.851   5.796  0.0981  0.3075 -0.3636
   94SAPS   O11 9226   5.504   3.913   5.916  0.1530  0.1245 -0.1271
   94SAPS    C1 9227   5.513   4.008   6.030  0.1535 -0.2844  0.6854
   94SAPS    HA 9228   5.527   4.111   5.990 -2.8455 -0.0288  0.1012
   94SAPS    HB 9229   5.424   4.002   6.096 -0.3490 -1.5395 -0.0892
   94SAPS    C2 9230   5.631   3.969   6.120  0.2524 -0.5563 -0.1163
   94SAPS    HS 9231   5.729   3.942   6.074  0.1041 -3.9618  1.2659
   94SAPS   O21 9232   5.590   3.853   6.195 -0.1501  0.0997 -0.0067
   94SAPS   C21 9233   5.681   3.786   6.259 -0.4489 -0.0369  0.3054
   94SAPS   O22 9234   5.803   3.804   6.255  0.4360 -0.0255  0.1860
   94SAPS   C22 9235   5.610   3.672   6.325 -0.4025  0.3859 -0.6148
   94SAPS   H2R 9236   5.502   3.691   6.345 -0.1657  0.3622  0.7764
   94SAPS   H2S 9237   5.600   3.586   6.254 -0.3639 -1.2517  1.2904
   94SAPS    C3 9238   5.675   4.088   6.211 -0.1924 -0.1686 -0.2250
   94SAPS    HX 9239   5.711   4.174   6.151 -0.2909  0.5049  0.6551
   94SAPS    HY 9240   5.762   4.054   6.272 -0.1409  0.8071  0.2702
   94SAPS   O31 9241   5.569   4.138   6.307 -0.1484 -0.1089  0.0862
   94SAPS   C31 9242   5.603   4.234   6.394 -0.5875  0.0594  0.3529
   94SAPS   O32 9243   5.715   4.283   6.406  0.0320  0.1977 -0.1789
   94SAPS   C32 9244   5.488   4.270   6.481  0.7193  0.1200 -0.5697
   94SAPS   H2X 9245   5.419   4.184   6.497  0.2865  0.7435  1.1891
   94SAPS   H2Y 9246   5.435   4.359   6.440 -1.4477 -0.5533  0.6273
   94SAPS   C23 9247   5.669   3.620   6.457  0.2573  0.3417 -0.7239
   94SAPS   H3R 9248   5.780   3.621   6.450  0.5582  0.2412  2.7096
   94SAPS   H3S 9249   5.646   3.512   6.466  1.4273  0.0940 -0.6116
   94SAPS   C24 9250   5.607   3.682   6.586  0.2762  0.2008  0.1200
   94SAPS   H4R 9251   5.638   3.633   6.681 -0.8477  0.3885  0.5905
   94SAPS   H4S 9252   5.499   3.657   6.594  0.2636  0.8644  2.5813
   94SAPS   C25 9253   5.634   3.828   6.601  0.9674  0.3349  0.4084
   94SAPS   H5R 9254   5.727   3.864   6.554 -0.2544  1.6245 -1.1502
   94SAPS   C26 9255   5.554   3.926   6.645 -1.2030 -0.2144  0.1309
   94SAPS   H6R 9256   5.600   4.025   6.633 -1.5574 -0.3677 -3.5854
   94SAPS   C27 9257   5.421   3.920   6.715  0.3857  0.0598  0.4757
   94SAPS   H7R 9258   5.370   3.822   6.706  2.2926 -1.1562  2.2040
   94SAPS   H7S 9259   5.351   3.981   6.654  1.8670 -1.3321 -2.8752
   94SAPS   C28 9260   5.417   3.973   6.849  0.3787 -0.1088 -0.2419
   94SAPS   H8R 9261   5.405   4.082   6.854 -2.2229 -0.3677  0.6687
   94SAPS   C29 9262   5.413   3.911   6.967 -0.0400 -1.0613  0.5956
   94SAPS   H9R 9263   5.401   3.976   7.054  1.2510 -2.1283  1.6078
   94SAPS  C210 9264   5.426   3.761   6.989  0.0860 -0.2932  0.1444
   94SAPS  H10R 9265   5.436   3.713   6.890  0.8647  0.3205 -0.0854
   94SAPS  H10S 9266   5.329   3.730   7.035 -0.2475  0.3579 -0.1068
   94SAPS  C211 9267   5.543   3.730   7.079 -0.3644 -0.9379  0.4000
   94SAPS  H11R 9268   5.642   3.738   7.032  0.4889 -0.1414  2.2448
   94SAPS  C212 9269   5.540   3.716   7.214 -0.7044  0.7922  0.3621
   94SAPS  H12R 9270   5.634   3.695   7.267 -0.6031 -0.9074 -0.4296
   94SAPS  C213 9271   5.418   3.706   7.307 -0.5399  0.6207  0.1470
   94SAPS  H13R 9272   5.400   3.597   7.323 -1.2907  0.2270 -2.8579
   94SAPS  H13S 9273   5.330   3.736   7.247  0.1194 -0.5029 -1.4453
   94SAPS  C214 9274   5.435   3.785   7.433  1.0241 -0.2132 -0.0598
   94SAPS  H14R 9275   5.474   3.888   7.428 -0.6999  0.6263  1.9635
   94SAPS  C215 9276   5.415   3.740   7.554 -0.1651 -0.0966 -0.3929
   94SAPS  H15R 9277   5.439   3.814   7.631 -2.8213  1.6345 -1.0985
   94SAPS  C216 9278   5.371   3.597   7.593 -0.1767 -0.5122 -0.1975
   94SAPS  H16R 9279   5.421   3.522   7.529  0.5998 -1.4109  1.4008
   94SAPS  H16S 9280   5.261   3.597   7.579 -0.3155 -0.1496  0.8052
   94SAPS  C217 9281   5.400   3.565   7.741  0.1891 -0.5839  0.1172
   94SAPS  H17R 9282   5.510   3.562   7.758  0.1733 -1.3878  0.0883
   94SAPS  H17S 9283   5.381   3.460   7.770 -0.4789  0.0327  2.1408
   94SAPS  C218 9284   5.325   3.662   7.838  0.4386  0.4479  0.2795
   94SAPS  H18R 9285   5.217   3.638   7.854  0.8684 -0.6311  1.7287
   94SAPS  H18S 9286   5.317   3.767   7.801 -2.7489  1.3657  2.9693
   94SAPS  C219 9287   5.387   3.670   7.976  0.4393 -0.2008  0.2546
   94SAPS  H19R 9288   5.492   3.704   7.960 -0.2979  3.1251  1.5588
   94SAPS  H19S 9289   5.389   3.573   8.031 -1.2563 -0.3470  0.0978
   94SAPS  C220 9290   5.324   3.760   8.082  0.3696  0.6164 -0.1863
   94SAPS  H20R 9291   5.325   3.862   8.040  2.3643  0.7105 -0.0092
   94SAPS  H20S 9292   5.386   3.748   8.174 -1.3183 -3.6475  0.6502
   94SAPS  H20T 9293   5.218   3.731   8.100  0.6057  0.0419  0.3441
   94SAPS   C33 9294   5.536   4.317   6.626  0.5625 -0.3444  0.0075
   94SAPS   H3X 9295   5.603   4.242   6.675 -0.6417 -1.3290  0.2168
   94SAPS   H3Y 9296   5.448   4.322   6.694  2.0958  1.4809  1.9797
   94SAPS   C34 9297   5.588   4.461   6.641 -0.3341 -0.5624  0.5669
   94SAPS   H4X 9298   5.504   4.532   6.624 -0.2138 -0.4066  0.6254
   94SAPS   H4Y 9299   5.641   4.467   6.544 -0.8448 -3.1604  0.0288
   94SAPS   C35 9300   5.673   4.480   6.765 -1.1550  0.6829 -0.4195
   94SAPS   H5X 9301   5.734   4.573   6.762 -0.7557  0.4003 -1.1995
   94SAPS   H5Y 9302   5.751   4.402   6.769 -3.5632 -2.0391 -2.5331
   94SAPS   C36 9303   5.593   4.482   6.897 -0.8696 -0.2624  0.6322
   94SAPS   H6X 9304   5.553   4.384   6.927 -1.7831  0.3456  1.4397
   94SAPS   H6Y 9305   5.510   4.554   6.882 -2.3001 -2.1244 -0.7374
   94SAPS   C37 9306   5.686   4.528   7.010  0.2850  0.0168  0.4800
   94SAPS   H7X 9307   5.718   4.632   6.986 -1.5164  0.3439 -0.7690
   94SAPS   H7Y 9308   5.779   4.469   7.001  0.6714  0.5758  0.8275
   94SAPS   C38 9309   5.630   4.492   7.149  0.0545 -0.0503  0.5359
   94SAPS   H8X 9310   5.611   4.384   7.164  0.9786 -0.9662 -3.5354
   94SAPS   H8Y 9311   5.527   4.532   7.163 -0.0777  0.0688 -0.6449
   94SAPS   C39 9312   5.731   4.528   7.254 -0.2563 -0.0398 -0.2458
   94SAPS   H9X 9313   5.758   4.633   7.230 -0.8353  0.0502 -0.5016
   94SAPS   H9Y 9314   5.825   4.471   7.236 -0.3740  0.1742 -1.6437
   94SAPS  C310 9315   5.669   4.504   7.395 -0.9325  0.0277 -0.0890
   94SAPS  H10X 9316   5.634   4.399   7.390 -2.1744  0.4482 -0.4566
   94SAPS  H10Y 9317   5.572   4.556   7.407 -2.2672 -2.2077 -0.5502
   94SAPS  C311 9318   5.766   4.541   7.507 -0.0440 -0.0485  0.3096
   94SAPS  H11X 9319   5.778   4.652   7.506 -2.9783  0.3671  0.7180
   94SAPS  H11Y 9320   5.869   4.506   7.486 -0.7676 -2.1018 -0.0504
   94SAPS  C312 9321   5.725   4.462   7.635  0.1856  0.4481 -0.9102
   94SAPS  H12X 9322   5.722   4.353   7.612 -0.1168 -0.0643  1.2718
   94SAPS  H12Y 9323   5.619   4.489   7.656  0.0185  0.8414 -2.2135
   94SAPS  C313 9324   5.818   4.490   7.754 -0.5505  0.1174 -0.6763
   94SAPS  H13X 9325   5.838   4.597   7.772 -4.4770  0.8429  0.3655
   94SAPS  H13Y 9326   5.909   4.429   7.737 -0.9672 -1.5584  2.3411
   94SAPS  C314 9327   5.751   4.435   7.882  0.0084  0.0633 -0.6714
   94SAPS  H14X 9328   5.831   4.405   7.954  0.4714  1.5390 -0.5339
   94SAPS  H14Y 9329   5.673   4.359   7.863 -2.7994  1.5543  3.4978
   94SAPS  C315 9330   5.696   4.554   7.971 -0.7798 -1.0494 -0.2400
   94SAPS  H15X 9331   5.604   4.592   7.921  0.1259  0.5293 -0.7916
   94SAPS  H15Y 9332   5.784   4.622   7.975  0.4016 -2.4195 -1.4783
   94SAPS  C316 9333   5.665   4.506   8.114  0.4393 -0.5018  0.1106
   94SAPS  H16X 9334   5.748   4.452   8.166 -1.1857 -2.2286  1.0486
   94SAPS  H16Y 9335   5.580   4.435   8.104  0.6138 -0.6047 -0.6784
   94SAPS  C317 9336   5.617   4.628   8.200 -0.0986  0.5043 -0.5469
   94SAPS  H17X 9337   5.527   4.683   8.166 -1.9965 -1.3284  1.2344
   94SAPS  H17Y 9338   5.693   4.709   8.193  0.2555  0.0852 -1.8062
   94SAPS  C318 9339   5.580   4.585   8.346 -0.1371  0.1328 -0.3159
   94SAPS  H18X 9340   5.672   4.552   8.399 -0.4869 -0.1015  0.1604
   94SAPS  H18Y 9341   5.501   4.507   8.338  0.1456 -0.3444  1.1314
   94SAPS  H18Z 9342   5.543   4.670   8.407  0.6007 -0.8418  1.5901
   95SAPS     N 9343   2.648   0.492   6.398  0.2773  0.1464 -0.2772
   95SAPS   HN1 9344   2.622   0.493   6.297 -0.0794  2.5084 -0.2092
   95SAPS   HN2 9345   2.668   0.593   6.406 -0.5274  0.3638 -0.7687
   95SAPS   HN3 9346   2.734   0.436   6.413  0.7267  0.9447  0.1808
   95SAPS   C12 9347   2.521   0.455   6.468  0.0115 -0.3348  0.1713
   95SAPS  H12A 9348   2.514   0.517   6.557 -0.6584 -0.2595  0.0661
   95SAPS   C13 9349   2.389   0.480   6.391  0.3096 -0.0836  0.0246
   95SAPS  O13A 9350   2.406   0.507   6.267  0.0618 -0.4795  0.3709
   95SAPS  O13B 9351   2.276   0.468   6.436 -0.6736 -0.4734 -0.1572
   95SAPS   C11 9352   2.515   0.307   6.513 -0.2825  0.3243  0.3376
   95SAPS  H11A 9353   2.418   0.288   6.563 -1.4983  2.1501 -1.1585
   95SAPS  H11B 9354   2.594   0.300   6.590 -1.2556 -0.8058  1.2708
   95SAPS     P 9355   2.689   0.153   6.390  0.1586  0.1142  0.2028
   95SAPS   O13 9356   2.712   0.125   6.252 -0.5459  0.3147  0.2528
   95SAPS   O14 9357   2.789   0.238   6.456  0.8106 -0.4235 -0.2600
   95SAPS   O12 9358   2.551   0.214   6.408  0.4110  0.1139  0.2345
   95SAPS   O11 9359   2.673   0.017   6.469  0.2387 -0.0689 -0.0351
   95SAPS    C1 9360   2.559  -0.017   6.546  0.0627 -0.4128 -0.7101
   95SAPS    HA 9361   2.474   0.037   6.500  1.2550  0.7430 -1.6044
   95SAPS    HB 9362   2.541  -0.127   6.546  0.8346 -0.5935  1.5508
   95SAPS    C2 9363   2.577   0.027   6.695  0.0974 -0.2360  0.3695
   95SAPS    HS 9364   2.618   0.130   6.693  0.2041 -0.2863 -0.8927
   95SAPS   O21 9365   2.658  -0.068   6.769 -0.2821  0.3659  0.0826
   95SAPS   C21 9366   2.758  -0.023   6.844  0.6012  0.5458  0.1558
   95SAPS   O22 9367   2.777   0.093   6.880 -0.0831  0.4442 -0.1697
   95SAPS   C22 9368   2.849  -0.142   6.888  0.1974  0.0379  0.2988
   95SAPS   H2R 9369   2.787  -0.232   6.904  2.3629 -1.1377  2.8549
   95SAPS   H2S 9370   2.915  -0.166   6.802 -1.2265 -1.6316 -0.3947
   95SAPS    C3 9371   2.436   0.040   6.751  0.8815  0.3490 -0.3268
   95SAPS    HX 9372   2.384  -0.058   6.743  2.1231 -0.4329  0.7496
   95SAPS    HY 9373   2.388   0.113   6.683 -1.7665 -0.1467  0.8509
   95SAPS   O31 9374   2.445   0.095   6.887  0.3102 -0.3554 -0.2660
   95SAPS   C31 9375   2.380   0.034   6.988  0.1204  0.3979 -0.2108
   95SAPS   O32 9376   2.310  -0.066   6.984 -0.4225 -0.0675 -0.3994
   95SAPS   C32 9377   2.412   0.114   7.110  0.4164 -0.6286 -0.0560
   95SAPS   H2X 9378   2.319   0.115   7.171  0.4462  0.6663  0.0036
   95SAPS   H2Y 9379   2.433   0.221   7.090  0.2016 -0.2255  1.7131
   95SAPS   C23 9380   2.917  -0.107   7.016 -0.1963 -0.5500 -0.0261
   95SAPS   H3R 9381   2.840  -0.090   7.094 -2.1261  0.9544 -2.1089
   95SAPS   H3S 9382   2.967  -0.008   7.006  1.9330 -1.5810 -0.0385
   95SAPS   C24 9383   3.011  -0.207   7.074 -0.4231 -0.2033 -0.0705
   95SAPS   H4R 9384   3.067  -0.256   6.992  1.3312 -0.9600  1.5298
   95SAPS   H4S 9385   2.942  -0.286   7.111 -0.0784 -0.3431  0.2828
   95SAPS   C25 9386   3.104  -0.157   7.179 -0.4894 -0.5515 -0.4010
   95SAPS   H5R 9387   3.197  -0.116   7.139  0.5762 -2.3435  0.1127
   95SAPS   C26 9388   3.081  -0.138   7.313  0.3303  0.2835 -0.1521
   95SAPS   H6R 9389   3.164  -0.123   7.383  2.3646 -2.2590 -1.8198
   95SAPS   C27 9390   2.953  -0.171   7.379  0.2918  0.6236  0.1515
   95SAPS   H7R 9391   2.944  -0.281   7.396  2.7870  0.4479  0.7630
   95SAPS   H7S 9392   2.863  -0.138   7.322 -2.3694  0.2116  3.8126
   95SAPS   C28 9393   2.936  -0.095   7.505  0.8718  0.6458  0.2584
   95SAPS   H8R 9394   2.937   0.014   7.494 -0.6684  0.5289 -1.6077
   95SAPS   C29 9395   2.907  -0.145   7.627  0.1602 -0.2607  0.6282
   95SAPS   H9R 9396   2.897  -0.061   7.697 -0.0082  1.2810 -1.1502
   95SAPS  C210 9397   2.886  -0.289   7.679  0.0912 -0.1257  0.5339
   95SAPS  H10R 9398   2.946  -0.309   7.771  0.8345 -2.5450 -0.3802
   95SAPS  H10S 9399   2.944  -0.360   7.616 -0.2863  1.0021 -1.1223
   95SAPS  C211 9400   2.745  -0.329   7.687 -1.1462 -0.1322  0.1331
   95SAPS  H11R 9401   2.689  -0.315   7.593  1.2364 -0.2077 -1.3788
   95SAPS  C212 9402   2.685  -0.377   7.805 -0.8287  0.4644  0.1842
   95SAPS  H12R 9403   2.583  -0.411   7.783 -1.0866  0.5881  1.1290
   95SAPS  C213 9404   2.742  -0.378   7.946 -0.4722 -0.4318 -0.0869
   95SAPS  H13R 9405   2.825  -0.452   7.941  0.1365  0.3108 -1.4029
   95SAPS  H13S 9406   2.656  -0.406   8.010 -0.5271  0.4810  0.2494
   95SAPS  C214 9407   2.797  -0.250   8.010  0.4235 -0.3228  0.3693
   95SAPS  H14R 9408   2.790  -0.163   7.943  1.0781  0.3984  1.2013
   95SAPS  C215 9409   2.832  -0.227   8.140  0.4639  0.5305 -0.9684
   95SAPS  H15R 9410   2.858  -0.123   8.163 -1.2882  0.1752  3.4754
   95SAPS  C216 9411   2.835  -0.313   8.265 -0.0714 -0.0681  0.8675
   95SAPS  H16R 9412   2.931  -0.314   8.321 -0.7502 -0.1031  2.0577
   95SAPS  H16S 9413   2.811  -0.420   8.247 -0.5372  0.2315 -0.3645
   95SAPS  C217 9414   2.731  -0.262   8.367 -0.5375  0.1049  0.2228
   95SAPS  H17R 9415   2.748  -0.335   8.450  1.6688  0.2058 -0.0969
   95SAPS  H17S 9416   2.637  -0.274   8.309  0.7754 -0.0149 -1.9884
   95SAPS  C218 9417   2.745  -0.114   8.414 -0.3849  0.2046 -0.7893
   95SAPS  H18R 9418   2.750  -0.048   8.325 -1.5105  0.4189 -0.7050
   95SAPS  H18S 9419   2.836  -0.092   8.474  0.2652  1.1962 -2.0863
   95SAPS  C219 9420   2.626  -0.060   8.499 -0.1201 -0.2017  0.6543
   95SAPS  H19R 9421   2.534  -0.056   8.437  0.0921  0.1002  0.3535
   95SAPS  H19S 9422   2.643   0.048   8.523 -0.8094 -0.0141  0.3151
   95SAPS  C220 9423   2.602  -0.137   8.630 -0.6535 -0.6388  0.3129
   95SAPS  H20R 9424   2.690  -0.121   8.696 -0.6672  0.8084  0.0271
   95SAPS  H20S 9425   2.602  -0.247   8.615  2.3940 -0.4625 -2.2351
   95SAPS  H20T 9426   2.513  -0.098   8.684 -1.4754 -3.1295  0.8852
   95SAPS   C33 9427   2.525   0.058   7.186  0.6218 -0.1327  0.5592
   95SAPS   H3X 9428   2.620   0.094   7.140  0.3151  1.0118  0.7992
   95SAPS   H3Y 9429   2.521  -0.053   7.183 -2.6591 -0.1657  2.5164
   95SAPS   C34 9430   2.517   0.105   7.335 -0.5050 -0.3826  0.4588
   95SAPS   H4X 9431   2.433   0.046   7.377 -2.0980  1.3219 -0.2215
   95SAPS   H4Y 9432   2.499   0.214   7.347 -0.1351 -0.3188  0.4462
   95SAPS   C35 9433   2.631   0.059   7.423  0.1331 -0.0182 -0.5368
   95SAPS   H5X 9434   2.726   0.110   7.395 -0.8314  1.7932 -0.6938
   95SAPS   H5Y 9435   2.648  -0.050   7.411 -0.8897  0.0162 -2.7114
   95SAPS   C36 9436   2.607   0.105   7.567  0.5132  0.0970 -0.2112
   95SAPS   H6X 9437   2.583   0.214   7.565  0.5056  0.1352  1.2142
   95SAPS   H6Y 9438   2.694   0.080   7.632  2.2808  0.7816 -2.1804
   95SAPS   C37 9439   2.492   0.025   7.634  0.3646  0.0906  0.7117
   95SAPS   H7X 9440   2.507  -0.081   7.603 -2.4513 -0.2136  0.1296
   95SAPS   H7Y 9441   2.389   0.054   7.604 -0.0852 -1.3190  0.8228
   95SAPS   C38 9442   2.498   0.027   7.784 -1.0368  0.2409  0.3102
   95SAPS   H8X 9443   2.605   0.021   7.815 -0.4044  2.5874 -1.1779
   95SAPS   H8Y 9444   2.440  -0.062   7.816  1.1952 -2.3861 -2.3941
   95SAPS   C39 9445   2.441   0.162   7.841  0.3643 -0.0206  0.0845
   95SAPS   H9X 9446   2.338   0.177   7.802  0.8885  0.7361 -1.0597
   95SAPS   H9Y 9447   2.508   0.243   7.807 -0.3237 -0.2334 -1.9388
   95SAPS  C310 9448   2.422   0.153   7.995 -0.0778 -0.3374  0.1103
   95SAPS  H10X 9449   2.517   0.114   8.037  0.6576  0.6965 -0.5659
   95SAPS  H10Y 9450   2.343   0.077   8.017  1.2962 -2.3521 -1.4675
   95SAPS  C311 9451   2.386   0.290   8.068 -0.2348 -0.1337 -0.6689
   95SAPS  H11X 9452   2.304   0.339   8.011 -0.2625  1.1092  0.4088
   95SAPS  H11Y 9453   2.466   0.365   8.052  0.7670 -0.8520  0.7017
   95SAPS  C312 9454   2.363   0.266   8.209  0.4548 -0.1318  0.6487
   95SAPS  H12X 9455   2.460   0.257   8.262  1.2901  0.6618 -0.7021
   95SAPS  H12Y 9456   2.301   0.174   8.221  0.0748 -0.2553 -1.7203
   95SAPS  C313 9457   2.295   0.378   8.285  0.5781  0.0357  0.3312
   95SAPS  H13X 9458   2.195   0.400   8.242  0.7828  1.0420  0.3450
   95SAPS  H13Y 9459   2.357   0.470   8.288 -0.3913  0.7328 -0.5498
   95SAPS  C314 9460   2.281   0.337   8.434 -0.2270 -0.1951  0.1503
   95SAPS  H14X 9461   2.371   0.274   8.452  0.0555 -0.0996 -0.8559
   95SAPS  H14Y 9462   2.191   0.273   8.447 -1.0762  0.4902 -1.9952
   95SAPS  C315 9463   2.259   0.463   8.523 -0.1244  0.7627  0.5938
   95SAPS  H15X 9464   2.157   0.506   8.513 -0.5890  0.0583  2.1132
   95SAPS  H15Y 9465   2.328   0.546   8.496 -1.3404  1.3898 -0.7434
   95SAPS  C316 9466   2.300   0.424   8.665  0.7321  0.2862  0.4269
   95SAPS  H16X 9467   2.407   0.396   8.678  1.0792  1.9870  1.4576
   95SAPS  H16Y 9468   2.258   0.322   8.676  3.5933 -0.9248  0.8850
   95SAPS  C317 9469   2.257   0.525   8.779 -0.2136 -0.6512 -0.7405
   95SAPS  H17X 9470   2.308   0.622   8.763  0.2307 -0.8785 -0.7121
   95SAPS  H17Y 9471   2.280   0.473   8.875  3.3286 -0.5276 -1.4100
   95SAPS  C318 9472   2.112   0.561   8.788 -0.5317  0.2731 -0.1150
   95SAPS  H18X 9473   2.093   0.634   8.869  2.1877 -0.0605  0.9276
   95SAPS  H18Y 9474   2.044   0.474   8.798 -0.3052 -0.3450 -3.0789
   95SAPS  H18Z 9475   2.076   0.616   8.698 -1.7371 -0.5358 -0.1373
   96SAPS     N 9476   1.052   1.705   6.191  0.1127 -0.5022 -0.1812
   96SAPS   HN1 9477   1.060   1.642   6.109 -1.2687  0.0988 -0.8075
   96SAPS   HN2 9478   0.951   1.714   6.214  0.2801  0.8150  0.1115
   96SAPS   HN3 9479   1.081   1.799   6.155  0.4840  0.5880  2.7299
   96SAPS   C12 9480   1.139   1.676   6.303 -0.6769  1.1893  0.3188
   96SAPS  H12A 9481   1.100   1.712   6.398  2.9893  1.7480  1.7643
   96SAPS   C13 9482   1.165   1.519   6.304  0.4419  0.9968 -0.3731
   96SAPS  O13A 9483   1.100   1.444   6.224 -0.2126 -0.0208  0.0639
   96SAPS  O13B 9484   1.234   1.471   6.399  0.1267  0.1785  0.1461
   96SAPS   C11 9485   1.274   1.752   6.280 -0.3284  0.5583 -0.0357
   96SAPS  H11A 9486   1.319   1.711   6.187  0.7759  2.3680 -0.3497
   96SAPS  H11B 9487   1.334   1.721   6.368 -2.2925 -0.4605  1.0031
   96SAPS     P 9488   1.346   2.000   6.350  0.2168  0.3405 -0.1606
   96SAPS   O13 9489   1.370   1.932   6.484  0.2599 -0.6771  0.8938
   96SAPS   O14 9490   1.462   2.052   6.270  0.3176 -0.2864 -1.4137
   96SAPS   O12 9491   1.253   1.897   6.260  0.2859 -0.0384 -0.3971
   96SAPS   O11 9492   1.247   2.123   6.360 -0.0145  1.3688 -0.0244
   96SAPS    C1 9493   1.126   2.113   6.436  0.1177  0.2185  0.3049
   96SAPS    HA 9494   1.055   2.182   6.385 -2.3423 -2.4474 -0.1911
   96SAPS    HB 9495   1.076   2.013   6.430  0.4577  0.0733 -0.1505
   96SAPS    C2 9496   1.152   2.146   6.584  0.5659 -0.1506  0.1868
   96SAPS    HS 9497   1.182   2.056   6.642 -0.2338 -0.6529 -0.1572
   96SAPS   O21 9498   1.023   2.192   6.648 -0.4964 -0.1773 -0.0498
   96SAPS   C21 9499   1.015   2.176   6.773 -0.2578 -0.1989 -0.0977
   96SAPS   O22 9500   1.093   2.110   6.845 -0.3545 -0.6284 -0.1844
   96SAPS   C22 9501   0.890   2.246   6.825  0.3045 -0.1826 -0.0677
   96SAPS   H2R 9502   0.827   2.268   6.737 -1.6616 -0.3409  1.2425
   96SAPS   H2S 9503   0.824   2.178   6.884 -2.1347  0.8636 -1.4674
   96SAPS    C3 9504   1.257   2.250   6.611  0.1648 -0.9208  0.3509
   96SAPS    HX 9505   1.215   2.343   6.566  0.2231 -1.2670 -0.4322
   96SAPS    HY 9506   1.348   2.232   6.550 -1.6203 -1.1325 -2.4612
   96SAPS   O31 9507   1.274   2.271   6.747 -0.1733  0.0969 -0.1589
   96SAPS   C31 9508   1.379   2.217   6.801 -0.1743  0.5421 -0.7096
   96SAPS   O32 9509   1.461   2.154   6.739  0.4212 -0.3391  0.1098
   96SAPS   C32 9510   1.392   2.250   6.952  0.5073 -0.3979  0.6139
   96SAPS   H2X 9511   1.310   2.210   7.016  1.3627 -0.1406  1.9290
   96SAPS   H2Y 9512   1.379   2.360   6.962 -2.6202 -0.7866  2.2411
   96SAPS   C23 9513   0.912   2.382   6.907  0.4617 -0.2901  0.5465
   96SAPS   H3R 9514   0.813   2.430   6.891  0.8512  0.1565 -0.5955
   96SAPS   H3S 9515   0.986   2.438   6.847 -2.1469  2.1804 -0.5759
   96SAPS   C24 9516   0.923   2.375   7.057  0.1097  0.6351  0.2893
   96SAPS   H4R 9517   0.833   2.316   7.086  1.4504 -1.4596  0.4490
   96SAPS   H4S 9518   0.905   2.477   7.098  0.7874 -0.6829  4.4029
   96SAPS   C25 9519   1.048   2.309   7.117 -0.1428 -0.0653 -0.0435
   96SAPS   H5R 9520   1.088   2.227   7.055 -2.1145  1.0324 -2.9319
   96SAPS   C26 9521   1.121   2.356   7.220 -0.5599 -0.9657  0.0697
   96SAPS   H6R 9522   1.214   2.301   7.239 -1.0918 -1.4854  1.2375
   96SAPS   C27 9523   1.095   2.474   7.311  0.0686  0.5571  0.0117
   96SAPS   H7R 9524   1.007   2.530   7.275  0.9257  1.5444 -0.5887
   96SAPS   H7S 9525   1.182   2.543   7.311 -0.2108  0.9405 -1.4491
   96SAPS   C28 9526   1.082   2.428   7.456 -0.4641 -0.1470  0.8608
   96SAPS   H8R 9527   1.090   2.318   7.467  0.5124 -0.2734 -0.7300
   96SAPS   C29 9528   1.053   2.505   7.561 -0.4924 -0.4406  0.2299
   96SAPS   H9R 9529   1.038   2.464   7.662 -2.6646  1.5996  0.8508
   96SAPS  C210 9530   1.030   2.656   7.556  0.2635 -0.3866 -0.6946
   96SAPS  H10R 9531   0.999   2.683   7.453  0.3249 -1.8457 -1.1247
   96SAPS  H10S 9532   1.129   2.706   7.561  0.3699 -0.6645  0.0372
   96SAPS  C211 9533   0.930   2.712   7.656  0.1574 -0.5071  0.0618
   96SAPS  H11R 9534   0.829   2.740   7.621  0.8178  1.4691 -0.3985
   96SAPS  C212 9535   0.958   2.746   7.789 -0.4184  0.8364  0.2829
   96SAPS  H12R 9536   0.878   2.786   7.853 -1.1325 -1.7886  1.1711
   96SAPS  C213 9537   1.093   2.732   7.862  0.3470 -0.2433  0.5381
   96SAPS  H13R 9538   1.131   2.836   7.874  2.4834 -0.7027 -1.6027
   96SAPS  H13S 9539   1.156   2.658   7.809  0.3758  1.1133 -1.4216
   96SAPS  C214 9540   1.080   2.668   8.000  0.5376  0.6632  0.3006
   96SAPS  H14R 9541   1.074   2.559   8.004  2.5401  0.5170  0.3898
   96SAPS  C215 9542   1.068   2.726   8.122 -0.2657 -0.7012 -0.6462
   96SAPS  H15R 9543   1.060   2.659   8.209 -0.8920  0.2312  0.0218
   96SAPS  C216 9544   1.067   2.874   8.162  0.3129 -0.0587 -0.2067
   96SAPS  H16R 9545   0.988   2.930   8.109 -1.5052 -0.2833  2.1100
   96SAPS  H16S 9546   1.153   2.928   8.116  0.6193 -0.1752  0.2239
   96SAPS  C217 9547   1.060   2.919   8.316  0.7646  0.4494 -0.0989
   96SAPS  H17R 9548   0.976   2.865   8.364  2.2571 -1.4616  0.4764
   96SAPS  H17S 9549   1.036   3.028   8.318 -0.3024  0.2936 -2.0624
   96SAPS  C218 9550   1.181   2.895   8.413 -0.3493  0.0505  0.4160
   96SAPS  H18R 9551   1.203   2.788   8.432 -0.9558 -0.0311  0.6531
   96SAPS  H18S 9552   1.158   2.937   8.513  1.5373 -0.4612  1.1087
   96SAPS  C219 9553   1.318   2.967   8.385 -0.2551  0.2448 -0.0370
   96SAPS  H19R 9554   1.307   3.077   8.395 -1.2828  0.1915 -0.5045
   96SAPS  H19S 9555   1.338   2.963   8.276 -0.2549  0.8259 -0.0582
   96SAPS  C220 9556   1.437   2.924   8.465  0.1338 -0.1115 -0.6304
   96SAPS  H20R 9557   1.522   2.994   8.456 -0.8256  1.2619  0.4424
   96SAPS  H20S 9558   1.473   2.823   8.435  0.6524  0.1075 -0.7495
   96SAPS  H20T 9559   1.410   2.929   8.573 -0.1760 -1.8280 -0.5975
   96SAPS   C33 9560   1.528   2.216   7.026  0.3245  0.1406  0.6312
   96SAPS   H3X 9561   1.606   2.283   6.984  1.0257  0.9816  3.0952
   96SAPS   H3Y 9562   1.558   2.113   7.001  2.4647  0.9469 -0.3438
   96SAPS   C34 9563   1.536   2.240   7.176 -0.4073  0.5128  0.1976
   96SAPS   H4X 9564   1.473   2.163   7.226  1.7892 -2.2672 -1.0366
   96SAPS   H4Y 9565   1.503   2.343   7.200 -1.0858  0.4122 -0.2966
   96SAPS   C35 9566   1.684   2.225   7.228  0.5842  0.3579 -0.4558
   96SAPS   H5X 9567   1.743   2.298   7.168 -1.5443  3.4487  0.9443
   96SAPS   H5Y 9568   1.708   2.122   7.195 -0.0514 -0.0489  0.3370
   96SAPS   C36 9569   1.694   2.236   7.379  1.6389 -0.1832  0.1862
   96SAPS   H6X 9570   1.655   2.143   7.425  1.1163  0.2052  0.5354
   96SAPS   H6Y 9571   1.624   2.316   7.412 -0.1628 -0.1953 -3.2246
   96SAPS   C37 9572   1.835   2.270   7.427  0.6369  0.1767  0.1463
   96SAPS   H7X 9573   1.871   2.366   7.384  1.3627  0.1651  0.7092
   96SAPS   H7Y 9574   1.899   2.189   7.387 -2.1478 -2.3204  0.4126
   96SAPS   C38 9575   1.858   2.253   7.578  0.0578 -0.0171 -0.2538
   96SAPS   H8X 9576   1.961   2.293   7.590  0.3862  0.0177 -2.7707
   96SAPS   H8Y 9577   1.845   2.150   7.618  0.5577 -0.5856 -1.5072
   96SAPS   C39 9578   1.778   2.350   7.666  0.4414  0.4380 -0.0999
   96SAPS   H9X 9579   1.668   2.336   7.657  0.4017 -2.6329  3.0359
   96SAPS   H9Y 9580   1.817   2.453   7.657 -1.1824  1.0421 -0.5756
   96SAPS  C310 9581   1.803   2.319   7.812 -0.4162 -0.4049  0.4107
   96SAPS  H10X 9582   1.912   2.310   7.832 -0.4948  2.1549  2.4840
   96SAPS  H10Y 9583   1.751   2.223   7.835 -0.5700 -0.8855 -1.7971
   96SAPS  C311 9584   1.756   2.433   7.899 -0.5766  0.0848 -0.9391
   96SAPS  H11X 9585   1.650   2.419   7.928 -0.2633  1.2845  0.9802
   96SAPS  H11Y 9586   1.775   2.536   7.861  0.8494  0.8554  1.6327
   96SAPS  C312 9587   1.825   2.429   8.042  0.7358  0.2056  0.3224
   96SAPS  H12X 9588   1.916   2.493   8.049  2.5462 -2.0648 -1.0003
   96SAPS  H12Y 9589   1.852   2.321   8.045 -0.7077 -0.1926 -0.1034
   96SAPS  C313 9590   1.740   2.471   8.162 -0.3728 -0.1359  0.5582
   96SAPS  H13X 9591   1.662   2.393   8.175 -0.4157  0.0237  1.3174
   96SAPS  H13Y 9592   1.685   2.562   8.130 -1.5974 -0.9991  0.1344
   96SAPS  C314 9593   1.817   2.483   8.297  0.1798  0.0304  0.5543
   96SAPS  H14X 9594   1.766   2.552   8.367 -1.5471  0.6409 -1.1994
   96SAPS  H14Y 9595   1.921   2.518   8.284  0.8273 -1.7919  0.4944
   96SAPS  C315 9596   1.823   2.353   8.387  0.9914 -1.3228  0.5856
   96SAPS  H15X 9597   1.851   2.266   8.323  1.7231 -0.4534 -0.3023
   96SAPS  H15Y 9598   1.724   2.341   8.435 -0.3440 -0.3931 -1.7882
   96SAPS  C316 9599   1.927   2.371   8.505  0.4880  0.3217  0.3606
   96SAPS  H16X 9600   1.944   2.480   8.523  1.1550  0.6095 -1.7443
   96SAPS  H16Y 9601   2.027   2.325   8.498 -0.6203 -2.1138 -0.3777
   96SAPS  C317 9602   1.881   2.297   8.635  0.7363  1.0982 -0.2873
   96SAPS  H17X 9603   1.785   2.341   8.668  0.0101  1.0624 -2.2573
   96SAPS  H17Y 9604   1.966   2.313   8.705  1.7505  0.5804 -1.3638
   96SAPS  C318 9605   1.860   2.145   8.630 -0.0340  0.8414 -0.5213
   96SAPS  H18X 9606   1.957   2.095   8.613  0.8034  2.1047  0.3151
   96SAPS  H18Y 9607   1.791   2.120   8.547 -0.5739  1.7414 -0.3613
   96SAPS  H18Z 9608   1.827   2.101   8.727 -2.9534 -0.6852 -2.0721
   97SAPS     N 9609   0.357   0.330   6.526 -0.1069  0.2987 -0.0774
   97SAPS   HN1 9610   0.408   0.409   6.570 -1.0506  0.2478  1.1586
   97SAPS   HN2 9611   0.271   0.294   6.573 -0.7005 -0.2502 -1.5234
   97SAPS   HN3 9612   0.426   0.253   6.526 -0.4609 -0.0229 -0.4258
   97SAPS   C12 9613   0.326   0.368   6.387  0.1438 -0.2740  0.0089
   97SAPS  H12A 9614   0.422   0.383   6.340 -0.8556  0.5067 -1.8623
   97SAPS   C13 9615   0.248   0.272   6.305  0.2020  0.1794 -0.5560
   97SAPS  O13A 9616   0.202   0.164   6.350 -0.2536 -0.2847  0.2983
   97SAPS  O13B 9617   0.270   0.283   6.179  0.1721 -0.8952 -0.5158
   97SAPS   C11 9618   0.257   0.510   6.383  0.0274 -0.2487 -0.9089
   97SAPS  H11A 9619   0.234   0.544   6.279 -1.5705  1.3350 -0.0938
   97SAPS  H11B 9620   0.332   0.583   6.421 -0.1808  1.8441 -4.0923
   97SAPS     P 9621   0.005   0.578   6.456  0.2871  0.3942  0.4034
   97SAPS   O13 9622   0.007   0.675   6.343 -0.1420  0.0671  0.0228
   97SAPS   O14 9623  -0.107   0.480   6.442 -0.1792 -0.0647 -0.6184
   97SAPS   O12 9624   0.144   0.512   6.466 -0.5729  0.3326 -0.6948
   97SAPS   O11 9625  -0.005   0.657   6.587 -0.2321 -0.4532  0.3115
   97SAPS    C1 9626   0.052   0.605   6.705  0.5752 -0.0785  0.3421
   97SAPS    HA 9627   0.103   0.508   6.694 -0.5926 -0.5776 -0.8931
   97SAPS    HB 9628   0.122   0.681   6.746  0.9026  1.4775 -2.8184
   97SAPS    C2 9629  -0.070   0.578   6.803  0.4505  0.1960 -0.4697
   97SAPS    HS 9630  -0.145   0.660   6.791  1.9041  1.3557 -2.1904
   97SAPS   O21 9631  -0.012   0.563   6.936 -0.0539 -0.6709  0.0090
   97SAPS   C21 9632  -0.029   0.664   7.019  0.2371  0.8660 -0.7081
   97SAPS   O22 9633  -0.074   0.766   6.982 -0.1803  0.1881 -0.2895
   97SAPS   C22 9634   0.009   0.619   7.165  0.0605  0.5809  0.7523
   97SAPS   H2R 9635  -0.085   0.579   7.210 -1.7220  1.1459 -2.2195
   97SAPS   H2S 9636   0.080   0.533   7.160 -3.1758 -2.4001  1.6283
   97SAPS    C3 9637  -0.141   0.442   6.760 -0.2369 -0.5549 -0.8728
   97SAPS    HX 9638  -0.060   0.370   6.735 -0.2444 -1.1104  0.5684
   97SAPS    HY 9639  -0.195   0.457   6.665  0.6695  0.1678 -1.2862
   97SAPS   O31 9640  -0.226   0.389   6.865 -0.0152  0.2625 -0.6666
   97SAPS   C31 9641  -0.350   0.434   6.860  0.8595  0.0046  0.0314
   97SAPS   O32 9642  -0.397   0.510   6.775 -0.1578 -0.5572  0.1216
   97SAPS   C32 9643  -0.435   0.373   6.974 -0.2549  0.1477  0.2182
   97SAPS   H2X 9644  -0.395   0.273   7.000 -1.4574  0.1502  2.3105
   97SAPS   H2Y 9645  -0.540   0.356   6.943 -0.2857  1.4779 -0.5050
   97SAPS   C23 9646   0.071   0.732   7.242  0.3692  0.1389 -0.0747
   97SAPS   H3R 9647  -0.009   0.805   7.268  0.4760 -0.6340  2.8484
   97SAPS   H3S 9648   0.140   0.780   7.171 -1.0056  0.5239 -1.1953
   97SAPS   C24 9649   0.126   0.674   7.369  0.0449 -0.2848 -0.4308
   97SAPS   H4R 9650   0.189   0.584   7.352  1.5531  0.1459  2.2424
   97SAPS   H4S 9651   0.045   0.656   7.443  0.9776 -1.4885  0.3423
   97SAPS   C25 9652   0.234   0.767   7.418  0.4832  0.4001  0.1244
   97SAPS   H5R 9653   0.282   0.817   7.333 -0.0437  0.1874 -0.3089
   97SAPS   C26 9654   0.278   0.788   7.543 -0.2822 -0.1103 -0.3867
   97SAPS   H6R 9655   0.366   0.853   7.556  1.7145 -2.3042 -2.0406
   97SAPS   C27 9656   0.227   0.734   7.674  0.0330  0.0470  0.0517
   97SAPS   H7R 9657   0.117   0.724   7.661  0.1897 -0.6258 -0.8233
   97SAPS   H7S 9658   0.273   0.793   7.756  0.5745 -1.5898  0.9770
   97SAPS   C28 9659   0.281   0.594   7.698 -0.2493 -0.4870 -0.4332
   97SAPS   H8R 9660   0.241   0.518   7.629 -1.8908 -0.1294  0.0770
   97SAPS   C29 9661   0.365   0.553   7.795  0.1062  0.0699 -0.4141
   97SAPS   H9R 9662   0.386   0.447   7.814 -0.1778 -0.1939 -1.4968
   97SAPS  C210 9663   0.435   0.647   7.896 -0.0819  0.2925 -0.0916
   97SAPS  H10R 9664   0.360   0.691   7.965 -0.7919 -1.8790  0.6206
   97SAPS  H10S 9665   0.483   0.734   7.846 -0.9853  2.1232  2.0615
   97SAPS  C211 9666   0.537   0.577   7.984  0.3450 -0.0510  0.1283
   97SAPS  H11R 9667   0.638   0.586   7.941 -0.3904  1.6699 -1.3640
   97SAPS  C212 9668   0.516   0.532   8.112  0.5528  0.2586  0.7409
   97SAPS  H12R 9669   0.597   0.476   8.162 -0.0614  1.1343  2.8111
   97SAPS  C213 9670   0.381   0.523   8.184 -0.4728 -0.1735 -0.0354
   97SAPS  H13R 9671   0.290   0.525   8.119 -1.2795 -1.4680  0.9883
   97SAPS  H13S 9672   0.360   0.621   8.230  2.3173  0.2795  0.4060
   97SAPS  C214 9673   0.368   0.412   8.280 -0.4772  0.2993 -0.0303
   97SAPS  H14R 9674   0.299   0.338   8.239  0.3689  0.2008 -1.3298
   97SAPS  C215 9675   0.437   0.409   8.398  0.0840  0.4677  0.6311
   97SAPS  H15R 9676   0.425   0.322   8.465  0.7882 -3.0691 -3.4359
   97SAPS  C216 9677   0.540   0.505   8.457 -0.4098 -0.5060 -0.5052
   97SAPS  H16R 9678   0.571   0.583   8.385  0.8960 -2.2011 -1.8756
   97SAPS  H16S 9679   0.625   0.436   8.478 -0.8302 -1.7279 -2.5179
   97SAPS  C217 9680   0.494   0.570   8.594  0.4339 -0.5495  0.9946
   97SAPS  H17R 9681   0.473   0.497   8.676 -1.8247 -0.8462  0.2229
   97SAPS  H17S 9682   0.395   0.614   8.572 -0.2458 -1.8500  1.3497
   97SAPS  C218 9683   0.590   0.678   8.639 -0.8189  0.1246 -0.2203
   97SAPS  H18R 9684   0.582   0.760   8.564 -2.0186  0.6933  0.4981
   97SAPS  H18S 9685   0.690   0.631   8.641 -0.8695  0.0491  0.8106
   97SAPS  C219 9686   0.558   0.736   8.775  0.1759 -0.2081 -0.5062
   97SAPS  H19R 9687   0.551   0.662   8.858  0.6244 -1.7093 -1.7453
   97SAPS  H19S 9688   0.455   0.776   8.762 -0.0217 -0.7079 -0.5001
   97SAPS  C220 9689   0.653   0.860   8.802 -0.2832  0.6551 -0.0387
   97SAPS  H20R 9690   0.758   0.827   8.787 -0.2486  0.2489  1.0046
   97SAPS  H20S 9691   0.636   0.890   8.907 -1.0808  1.8313 -0.4878
   97SAPS  H20T 9692   0.636   0.946   8.735  4.0234  2.7941  1.2400
   97SAPS   C33 9693  -0.445   0.456   7.104 -0.0675 -0.5284 -0.2357
   97SAPS   H3X 9694  -0.489   0.554   7.075  1.2670 -0.0768 -0.8215
   97SAPS   H3Y 9695  -0.345   0.483   7.146 -0.0052 -1.4234  0.2027
   97SAPS   C34 9696  -0.526   0.382   7.216 -0.3932 -0.6306 -0.0945
   97SAPS   H4X 9697  -0.470   0.292   7.250  3.1098  1.0054 -1.0116
   97SAPS   H4Y 9698  -0.618   0.348   7.165 -1.1101  1.6129 -0.3828
   97SAPS   C35 9699  -0.564   0.484   7.331  0.5484  0.2132 -0.1907
   97SAPS   H5X 9700  -0.611   0.573   7.284 -0.4437  0.0614  0.4892
   97SAPS   H5Y 9701  -0.478   0.522   7.389  0.8701 -1.2925  0.3725
   97SAPS   C36 9702  -0.668   0.435   7.429  0.3607 -0.1432 -0.0990
   97SAPS   H6X 9703  -0.753   0.394   7.371 -0.7170 -1.7264  2.4349
   97SAPS   H6Y 9704  -0.715   0.508   7.498  0.6842 -1.2192  1.3079
   97SAPS   C37 9705  -0.615   0.320   7.509 -0.1061 -0.4099 -0.3797
   97SAPS   H7X 9706  -0.575   0.249   7.434 -1.4087  1.1144 -2.6292
   97SAPS   H7Y 9707  -0.705   0.277   7.558 -0.8991  0.0053 -1.4273
   97SAPS   C38 9708  -0.509   0.361   7.617  0.7090  0.0514  0.6606
   97SAPS   H8X 9709  -0.427   0.430   7.586  0.1577  0.7849  0.8079
   97SAPS   H8Y 9710  -0.465   0.265   7.653  0.5544 -0.6761 -0.9917
   97SAPS   C39 9711  -0.590   0.427   7.732  0.3455 -0.5295 -0.5049
   97SAPS   H9X 9712  -0.671   0.353   7.750  0.7343 -1.0297 -0.7770
   97SAPS   H9Y 9713  -0.634   0.525   7.705 -1.7411 -1.0508  0.7910
   97SAPS  C310 9714  -0.509   0.449   7.864 -0.1347  0.0441 -0.1017
   97SAPS  H10X 9715  -0.426   0.519   7.840 -0.1105  0.1238  0.2106
   97SAPS  H10Y 9716  -0.468   0.352   7.897 -1.0322  0.2819  1.8656
   97SAPS  C311 9717  -0.601   0.505   7.974  0.1308  0.6112  0.3625
   97SAPS  H11X 9718  -0.669   0.420   7.999 -0.2821  0.8769  0.1427
   97SAPS  H11Y 9719  -0.656   0.590   7.929 -0.1259 -0.2058 -0.9385
   97SAPS  C312 9720  -0.521   0.563   8.092  0.8184  0.4614  0.3887
   97SAPS  H12X 9721  -0.588   0.621   8.158  2.5574  0.3327  2.3492
   97SAPS  H12Y 9722  -0.451   0.638   8.049 -1.5891  0.9039 -3.2853
   97SAPS  C313 9723  -0.437   0.461   8.170 -0.6809  0.5488  0.5096
   97SAPS  H13X 9724  -0.369   0.404   8.103 -2.0890  1.3920 -1.7860
   97SAPS  H13Y 9725  -0.502   0.386   8.220  0.9989 -1.8875 -0.7953
   97SAPS  C314 9726  -0.335   0.527   8.268 -0.0832  0.1122 -0.2496
   97SAPS  H14X 9727  -0.352   0.474   8.364  1.4317 -0.1896 -0.1231
   97SAPS  H14Y 9728  -0.349   0.638   8.274  1.2066  0.2956 -0.2895
   97SAPS  C315 9729  -0.186   0.502   8.231 -0.4263  0.2237 -0.0419
   97SAPS  H15X 9730  -0.166   0.551   8.133  0.0118 -0.7514 -0.4452
   97SAPS  H15Y 9731  -0.169   0.393   8.227  2.0916  0.5762 -1.1000
   97SAPS  C316 9732  -0.084   0.559   8.331  0.9092 -0.0868 -0.1513
   97SAPS  H16X 9733  -0.125   0.656   8.366  0.6736 -0.3290  0.2495
   97SAPS  H16Y 9734   0.005   0.589   8.272  0.7239  0.8716  0.0338
   97SAPS  C317 9735  -0.045   0.481   8.452 -0.0085  0.4037 -0.4891
   97SAPS  H17X 9736   0.029   0.411   8.406 -2.5802 -1.9012 -1.3564
   97SAPS  H17Y 9737  -0.131   0.425   8.494 -0.9082  0.6636 -1.9225
   97SAPS  C318 9738   0.033   0.558   8.565 -0.1858  0.6749  0.0024
   97SAPS  H18X 9739  -0.022   0.653   8.586 -1.6061 -0.2631  0.6976
   97SAPS  H18Y 9740   0.141   0.578   8.547  0.4925 -2.4364  0.0645
   97SAPS  H18Z 9741   0.029   0.500   8.660 -0.5029  2.2914  1.0157
   98SAPS     N 9742   3.730   0.697   6.325  0.3472 -0.1530 -0.1915
   98SAPS   HN1 9743   3.660   0.695   6.402 -0.3255  0.0255 -0.7837
   98SAPS   HN2 9744   3.776   0.604   6.320 -0.3764 -0.5258 -0.0366
   98SAPS   HN3 9745   3.798   0.769   6.356  0.4211 -0.4414  0.3239
   98SAPS   C12 9746   3.662   0.727   6.194  0.2042  0.1825  0.7433
   98SAPS  H12A 9747   3.741   0.717   6.121 -0.3452 -2.9509  0.4317
   98SAPS   C13 9748   3.543   0.627   6.172 -0.3028 -0.7430  0.4511
   98SAPS  O13A 9749   3.502   0.550   6.257 -0.0170  0.6998 -0.6033
   98SAPS  O13B 9750   3.469   0.644   6.070  0.0575  0.5345 -0.0269
   98SAPS   C11 9751   3.602   0.867   6.197 -0.7529  0.5430 -0.5655
   98SAPS  H11A 9752   3.528   0.878   6.279 -0.3776  0.8573 -0.2604
   98SAPS  H11B 9753   3.552   0.885   6.100 -1.8045  0.0102 -0.1332
   98SAPS     P 9754   3.701   1.102   6.255  0.2057  0.1103  0.1384
   98SAPS   O13 9755   3.718   1.177   6.130 -0.9714 -0.1910  0.4538
   98SAPS   O14 9756   3.578   1.134   6.323 -0.0719  0.0163 -0.3650
   98SAPS   O12 9757   3.716   0.948   6.221  0.2958 -0.4711  0.1447
   98SAPS   O11 9758   3.825   1.135   6.347  0.0736  0.1864 -0.0353
   98SAPS    C1 9759   3.845   1.076   6.477 -0.1380 -0.1510  0.8654
   98SAPS    HA 9760   3.814   0.970   6.474 -0.4414 -0.0479 -0.5396
   98SAPS    HB 9761   3.953   1.075   6.506 -1.0089  1.2937  4.8383
   98SAPS    C2 9762   3.760   1.138   6.585 -0.3076  0.0512  0.0441
   98SAPS    HS 9763   3.651   1.120   6.572 -0.9679  2.1355  2.0045
   98SAPS   O21 9764   3.776   1.280   6.598 -0.4926  0.0927  0.1552
   98SAPS   C21 9765   3.685   1.350   6.677  0.1364 -0.3452  0.4129
   98SAPS   O22 9766   3.574   1.307   6.701 -0.3949 -0.2005  0.1414
   98SAPS   C22 9767   3.735   1.494   6.705 -0.4746  0.0229  0.0395
   98SAPS   H2R 9768   3.814   1.513   6.630 -0.0415  1.0567  0.7377
   98SAPS   H2S 9769   3.643   1.553   6.686 -0.9358 -0.4729  0.6639
   98SAPS    C3 9770   3.794   1.061   6.723 -0.2449 -0.2024  0.6863
   98SAPS    HX 9771   3.898   1.089   6.748  0.8531 -1.9510 -1.5789
   98SAPS    HY 9772   3.803   0.951   6.712 -1.1650 -0.2193 -0.0854
   98SAPS   O31 9773   3.701   1.100   6.828 -0.7610  0.0241  0.5699
   98SAPS   C31 9774   3.596   1.021   6.843 -0.3040  0.3447  0.7935
   98SAPS   O32 9775   3.584   0.909   6.792  0.2694 -0.3201  0.4959
   98SAPS   C32 9776   3.492   1.093   6.932 -0.4301 -0.1834  0.0425
   98SAPS   H2X 9777   3.401   1.030   6.925 -0.2929 -0.4284  0.4459
   98SAPS   H2Y 9778   3.475   1.189   6.879  0.3609 -1.6320 -3.0864
   98SAPS   C23 9779   3.796   1.535   6.846 -1.4782  0.0071  0.4709
   98SAPS   H3R 9780   3.731   1.485   6.921 -1.9832 -1.1442 -0.7113
   98SAPS   H3S 9781   3.795   1.646   6.853  0.2192 -0.0327  2.9056
   98SAPS   C24 9782   3.950   1.518   6.849 -0.6617  0.8220 -0.0886
   98SAPS   H4R 9783   4.001   1.576   6.929 -2.2125  2.9827 -0.5749
   98SAPS   H4S 9784   3.990   1.570   6.759  1.1672  0.3684  0.4152
   98SAPS   C25 9785   3.987   1.368   6.849 -1.1676  0.2980 -0.0143
   98SAPS   H5R 9786   4.008   1.337   6.746 -1.4472  3.5687 -1.1421
   98SAPS   C26 9787   4.000   1.278   6.947 -0.3911 -0.7753 -0.4986
   98SAPS   H6R 9788   4.025   1.173   6.922  0.5958 -0.1217 -2.4794
   98SAPS   C27 9789   3.963   1.302   7.090 -0.5200 -0.1741 -0.3282
   98SAPS   H7R 9790   3.899   1.393   7.089 -1.5959 -0.8755 -2.9029
   98SAPS   H7S 9791   4.057   1.325   7.144  0.2496 -0.6455 -1.4457
   98SAPS   C28 9792   3.888   1.194   7.168 -0.1518  0.3548 -0.7734
   98SAPS   H8R 9793   3.823   1.123   7.114 -0.3825 -1.2040  1.4004
   98SAPS   C29 9794   3.892   1.193   7.302  0.2128 -0.3839 -0.4591
   98SAPS   H9R 9795   3.848   1.105   7.352 -3.6828  0.7329 -1.6048
   98SAPS  C210 9796   3.978   1.281   7.383  0.3751 -0.6005  0.2195
   98SAPS  H10R 9797   3.928   1.379   7.398  2.0685  0.8923 -2.8737
   98SAPS  H10S 9798   4.075   1.311   7.338 -0.3802 -0.4718 -1.3849
   98SAPS  C211 9799   3.997   1.218   7.517  0.1705 -1.3411 -0.6689
   98SAPS  H11R 9800   4.069   1.136   7.500  0.6603 -0.9180 -0.6565
   98SAPS  C212 9801   3.948   1.261   7.634 -0.1215 -0.2444  0.3036
   98SAPS  H12R 9802   3.967   1.195   7.720 -0.2237  0.6492  1.0318
   98SAPS  C213 9803   3.864   1.387   7.655 -0.2977  0.4855 -0.4285
   98SAPS  H13R 9804   3.756   1.373   7.635 -1.4377  0.7734  4.2533
   98SAPS  H13S 9805   3.905   1.479   7.607 -0.3824  0.5970 -0.2867
   98SAPS  C214 9806   3.881   1.423   7.800  0.1988 -0.5005  0.3604
   98SAPS  H14R 9807   3.986   1.427   7.830  0.5603 -1.8813 -0.6294
   98SAPS  C215 9808   3.788   1.440   7.891 -0.2488  0.2609 -0.4260
   98SAPS  H15R 9809   3.815   1.470   7.993 -1.2601  1.0610 -0.3733
   98SAPS  C216 9810   3.634   1.426   7.864 -1.2728 -0.5239 -0.2434
   98SAPS  H16R 9811   3.609   1.410   7.757 -1.6457 -3.3850  0.1988
   98SAPS  H16S 9812   3.587   1.523   7.889  0.3283  0.7157 -1.7550
   98SAPS  C217 9813   3.572   1.311   7.943 -0.1016  0.4082  0.1773
   98SAPS  H17R 9814   3.609   1.328   8.046 -0.7240  1.0137  0.3089
   98SAPS  H17S 9815   3.621   1.216   7.911 -0.5282 -0.3395  1.6432
   98SAPS  C218 9816   3.423   1.286   7.923 -0.6155 -1.0395  0.6613
   98SAPS  H18R 9817   3.409   1.303   7.814  1.8374 -2.1479  0.1166
   98SAPS  H18S 9818   3.371   1.364   7.982 -0.3344  0.0752 -0.5310
   98SAPS  C219 9819   3.377   1.141   7.961 -0.1802 -0.7595  0.1723
   98SAPS  H19R 9820   3.385   1.128   8.071 -0.2217 -2.1802  0.0188
   98SAPS  H19S 9821   3.454   1.073   7.918  0.2128 -1.2749  1.6406
   98SAPS  C220 9822   3.237   1.091   7.912 -0.4964  0.5548 -0.4739
   98SAPS  H20R 9823   3.212   0.996   7.963 -1.9530 -0.1838 -2.4299
   98SAPS  H20S 9824   3.238   1.061   7.805  1.3420  0.3167 -0.4279
   98SAPS  H20T 9825   3.160   1.167   7.935 -0.4281  0.1627  1.1829
   98SAPS   C33 9826   3.533   1.113   7.082 -0.0858  0.6663  0.3064
   98SAPS   H3X 9827   3.461   1.186   7.124  2.0504  2.2519  1.4316
   98SAPS   H3Y 9828   3.638   1.141   7.108  0.0209 -0.4861  1.2672
   98SAPS   C34 9829   3.493   0.983   7.152  0.1537 -0.2655 -0.3629
   98SAPS   H4X 9830   3.508   0.895   7.086  0.5699  0.2069 -0.9017
   98SAPS   H4Y 9831   3.393   0.972   7.200  0.3289 -3.0950 -0.4993
   98SAPS   C35 9832   3.586   0.952   7.273 -0.1102 -0.4939 -0.9998
   98SAPS   H5X 9833   3.691   0.979   7.249 -0.5719  0.7341 -1.7565
   98SAPS   H5Y 9834   3.580   0.846   7.306  1.0950 -0.1389  0.4874
   98SAPS   C36 9835   3.527   1.025   7.396 -0.2370 -0.2669 -0.0803
   98SAPS   H6X 9836   3.419   1.004   7.408 -0.0623 -0.5064  1.3450
   98SAPS   H6Y 9837   3.526   1.132   7.365  2.0243 -0.6232 -1.6257
   98SAPS   C37 9838   3.598   1.014   7.530  0.8834  0.1346 -0.0172
   98SAPS   H7X 9839   3.548   1.069   7.613  0.3850 -1.8628  1.0803
   98SAPS   H7Y 9840   3.703   1.048   7.514  0.0757  1.4241 -3.2724
   98SAPS   C38 9841   3.610   0.867   7.582  0.3833 -0.2379 -0.2259
   98SAPS   H8X 9842   3.714   0.829   7.572 -0.1780 -2.0420  0.3347
   98SAPS   H8Y 9843   3.548   0.812   7.509  0.9048  0.1419 -0.9683
   98SAPS   C39 9844   3.570   0.845   7.729  0.6545  0.2384 -0.0562
   98SAPS   H9X 9845   3.471   0.894   7.741  0.0533 -0.9113 -0.1846
   98SAPS   H9Y 9846   3.636   0.904   7.797 -0.6150  1.6983 -0.0292
   98SAPS  C310 9847   3.561   0.703   7.774 -0.1764  0.1668 -0.0620
   98SAPS  H10X 9848   3.650   0.641   7.749  0.1659 -0.4006  2.3289
   98SAPS  H10Y 9849   3.469   0.662   7.728 -0.9401  0.5270  1.0944
   98SAPS  C311 9850   3.546   0.682   7.923 -0.8568  0.1758  0.6233
   98SAPS  H11X 9851   3.629   0.730   7.979 -0.1240  0.7359 -0.8959
   98SAPS  H11Y 9852   3.548   0.575   7.950  0.5577  0.0502  0.1006
   98SAPS  C312 9853   3.411   0.740   7.988 -0.0471  0.0921 -0.5698
   98SAPS  H12X 9854   3.337   0.669   7.944  1.2533  0.1236 -2.9723
   98SAPS  H12Y 9855   3.374   0.839   7.954  0.0864 -0.4117 -2.3129
   98SAPS  C313 9856   3.415   0.728   8.142  0.7498 -0.2228  0.0006
   98SAPS  H13X 9857   3.482   0.798   8.197  0.5711  1.3559 -1.7177
   98SAPS  H13Y 9858   3.445   0.627   8.179  0.6912 -0.1537  0.2389
   98SAPS  C314 9859   3.275   0.756   8.202 -0.2934  0.1715  0.0627
   98SAPS  H14X 9860   3.206   0.714   8.125 -0.7455 -1.1928  1.1800
   98SAPS  H14Y 9861   3.244   0.862   8.215 -3.1975 -0.5098 -0.5955
   98SAPS  C315 9862   3.263   0.701   8.348 -0.0981 -0.0686  0.5919
   98SAPS  H15X 9863   3.289   0.594   8.362 -0.5731 -0.1297  1.0206
   98SAPS  H15Y 9864   3.156   0.719   8.371 -0.0600  0.5419  0.3126
   98SAPS  C316 9865   3.347   0.774   8.451  0.0812 -0.2460 -0.1753
   98SAPS  H16X 9866   3.331   0.884   8.456 -0.3974 -0.3654  1.7701
   98SAPS  H16Y 9867   3.452   0.753   8.422 -1.1391 -2.9917 -3.2489
   98SAPS  C317 9868   3.334   0.724   8.602  0.1096  0.2419 -0.2610
   98SAPS  H17X 9869   3.354   0.614   8.607 -0.7355  0.1292  1.3951
   98SAPS  H17Y 9870   3.229   0.727   8.637 -0.1165 -2.3839 -0.4594
   98SAPS  C318 9871   3.432   0.806   8.695 -0.6813 -0.2834  0.5526
   98SAPS  H18X 9872   3.529   0.827   8.646 -1.5751  3.6154  0.1513
   98SAPS  H18Y 9873   3.446   0.768   8.798 -0.7110  1.6738  1.3157
   98SAPS  H18Z 9874   3.387   0.906   8.713 -2.6002 -1.3134  1.9206
   99SAPS     N 9875   1.662   4.766   6.178 -0.6334  0.0621  0.1409
   99SAPS   HN1 9876   1.559   4.757   6.163 -0.7910 -0.0627  1.2197
   99SAPS   HN2 9877   1.704   4.696   6.241  1.2648  0.4675 -0.5945
   99SAPS   HN3 9878   1.668   4.855   6.231  0.0462 -0.1819  0.4826
   99SAPS   C12 9879   1.752   4.776   6.052  0.2301 -0.4791 -0.1410
   99SAPS  H12A 9880   1.735   4.684   5.998  0.8933 -0.6536 -0.0613
   99SAPS   C13 9881   1.742   4.892   5.958  0.6261  0.1211 -0.0975
   99SAPS  O13A 9882   1.626   4.941   5.956 -0.4233 -0.7734  0.5847
   99SAPS  O13B 9883   1.812   4.902   5.855 -0.7466 -0.3745 -0.2559
   99SAPS   C11 9884   1.899   4.766   6.106  0.0285 -0.5094 -0.3710
   99SAPS  H11A 9885   1.909   4.860   6.164 -0.4687 -0.2824 -0.6492
   99SAPS  H11B 9886   1.971   4.761   6.022  0.8619  0.1130  0.2870
   99SAPS     P 9887   2.059   4.628   6.255  0.3915 -0.2427  0.0849
   99SAPS   O13 9888   2.145   4.556   6.155  0.3855  0.4543 -0.1268
   99SAPS   O14 9889   2.097   4.752   6.310 -0.7943 -1.3914 -0.6797
   99SAPS   O12 9890   1.917   4.648   6.183 -0.3722  0.7796 -0.4061
   99SAPS   O11 9891   2.006   4.533   6.369 -0.3547 -0.0351 -0.2128
   99SAPS    C1 9892   1.897   4.563   6.449 -0.7978  0.1422 -0.1997
   99SAPS    HA 9893   1.911   4.667   6.488 -0.5665  0.4499 -1.0799
   99SAPS    HB 9894   1.807   4.538   6.390 -1.0487 -1.8464  0.9519
   99SAPS    C2 9895   1.920   4.469   6.579  0.2411 -0.3655 -0.8795
   99SAPS    HS 9896   1.895   4.364   6.554  1.1210 -0.5383 -1.0865
   99SAPS   O21 9897   1.845   4.510   6.697  0.3079  0.2458  0.3127
   99SAPS   C21 9898   1.716   4.490   6.669 -0.2985 -0.4713 -0.1992
   99SAPS   O22 9899   1.668   4.445   6.568 -0.2833  0.6104  0.2665
   99SAPS   C22 9900   1.647   4.530   6.796 -0.0547 -0.2907  0.6408
   99SAPS   H2R 9901   1.685   4.630   6.825  0.4654 -0.8217  1.8692
   99SAPS   H2S 9902   1.536   4.531   6.788  0.0070  1.4293 -0.5801
   99SAPS    C3 9903   2.070   4.483   6.616  0.5843  0.0466 -0.6974
   99SAPS    HX 9904   2.107   4.586   6.600 -0.9014  0.7001 -0.0907
   99SAPS    HY 9905   2.116   4.421   6.536  0.5427  0.5410 -1.1072
   99SAPS   O31 9906   2.087   4.426   6.747  0.1413  0.1552 -0.0774
   99SAPS   C31 9907   2.094   4.499   6.857 -0.8300  0.4303  0.2140
   99SAPS   O32 9908   2.101   4.620   6.859  0.2126  0.8234 -0.3229
   99SAPS   C32 9909   2.082   4.415   6.983 -0.2363  1.2235  0.3491
   99SAPS   H2X 9910   2.171   4.349   6.979 -0.9382  0.2294  0.7325
   99SAPS   H2Y 9911   1.997   4.344   6.988  0.9038 -0.2507 -0.5561
   99SAPS   C23 9912   1.685   4.438   6.912  0.5439  0.0992  0.6939
   99SAPS   H3R 9913   1.793   4.453   6.934  1.1805 -2.8841  0.0153
   99SAPS   H3S 9914   1.665   4.333   6.882 -1.5419 -0.1233  2.6165
   99SAPS   C24 9915   1.592   4.470   7.030  0.6017  0.1156 -0.6222
   99SAPS   H4R 9916   1.552   4.378   7.078 -1.2906  1.8602  1.3326
   99SAPS   H4S 9917   1.501   4.524   6.995  0.1697 -1.6197 -2.4041
   99SAPS   C25 9918   1.664   4.558   7.133 -0.5226  0.2187  0.8522
   99SAPS   H5R 9919   1.739   4.615   7.076 -1.2639 -2.2258 -2.9927
   99SAPS   C26 9920   1.659   4.543   7.266 -0.1926 -0.3688 -0.2998
   99SAPS   H6R 9921   1.718   4.610   7.331 -1.2942  0.2826  0.0568
   99SAPS   C27 9922   1.564   4.442   7.338 -0.7720 -0.1649  0.2532
   99SAPS   H7R 9923   1.612   4.433   7.439 -1.0458 -1.1051  0.3056
   99SAPS   H7S 9924   1.558   4.340   7.296  2.0443 -1.7891  3.2986
   99SAPS   C28 9925   1.428   4.501   7.362 -0.1229 -0.5037 -0.0206
   99SAPS   H8R 9926   1.375   4.544   7.276 -1.2675 -0.2962  0.7640
   99SAPS   C29 9927   1.367   4.512   7.476 -0.1519 -0.3839 -0.4273
   99SAPS   H9R 9928   1.266   4.555   7.485 -0.2275 -0.5793 -0.3399
   99SAPS  C210 9929   1.400   4.460   7.609 -0.9853  0.4520  0.6443
   99SAPS  H10R 9930   1.454   4.544   7.657 -0.2823 -0.6946  1.9471
   99SAPS  H10S 9931   1.473   4.378   7.593 -0.8525  0.9143 -1.4797
   99SAPS  C211 9932   1.286   4.405   7.691  0.2070  0.0571  0.3103
   99SAPS  H11R 9933   1.248   4.305   7.664  0.9774 -0.4794  1.1084
   99SAPS  C212 9934   1.236   4.476   7.797  0.2428  0.3885  0.1762
   99SAPS  H12R 9935   1.164   4.420   7.859 -0.7718  1.6242  0.1424
   99SAPS  C213 9936   1.275   4.611   7.847 -0.0685  0.3201  0.1617
   99SAPS  H13R 9937   1.327   4.665   7.765 -0.3427 -0.7807 -0.7678
   99SAPS  H13S 9938   1.348   4.609   7.931  1.7565  3.7739 -1.1130
   99SAPS  C214 9939   1.155   4.693   7.887 -0.9512  1.0424  0.0085
   99SAPS  H14R 9940   1.109   4.748   7.804 -0.0904  1.2813 -0.3303
   99SAPS  C215 9941   1.088   4.675   8.002 -0.0120  0.3014 -0.0475
   99SAPS  H15R 9942   0.991   4.726   8.013  0.6242  1.2808  1.2465
   99SAPS  C216 9943   1.126   4.589   8.123 -0.4080 -0.1840  0.8620
   99SAPS  H16R 9944   1.219   4.529   8.114  0.0465  0.4749  1.0656
   99SAPS  H16S 9945   1.040   4.522   8.144 -0.4320 -0.4738 -0.0893
   99SAPS  C217 9946   1.149   4.691   8.236 -0.3204 -0.6456  0.0878
   99SAPS  H17R 9947   1.046   4.726   8.261 -0.1217 -0.0451  0.0627
   99SAPS  H17S 9948   1.212   4.775   8.202  1.1970 -1.8442 -0.1704
   99SAPS  C218 9949   1.185   4.639   8.375  0.1691  0.2195  0.1612
   99SAPS  H18R 9950   1.291   4.607   8.366  0.2047  0.3953 -0.0682
   99SAPS  H18S 9951   1.130   4.545   8.395  0.2452 -0.1106 -1.0698
   99SAPS  C219 9952   1.172   4.743   8.476 -0.6499 -0.4152  0.0782
   99SAPS  H19R 9953   1.063   4.746   8.497 -0.6373 -1.4573  0.3866
   99SAPS  H19S 9954   1.205   4.844   8.444 -0.1443 -0.8522 -0.8398
   99SAPS  C220 9955   1.252   4.715   8.609 -0.3709 -0.8549 -0.3875
   99SAPS  H20R 9956   1.259   4.807   8.670  1.4036 -0.4795 -1.0798
   99SAPS  H20S 9957   1.358   4.693   8.585 -0.2821 -2.0684  1.0245
   99SAPS  H20T 9958   1.202   4.637   8.670 -2.1201 -0.6273 -1.4352
   99SAPS   C33 9959   2.082   4.496   7.113 -0.4386 -0.4188 -0.3389
   99SAPS   H3X 9960   1.997   4.568   7.113  0.1889  0.3396  0.5894
   99SAPS   H3Y 9961   2.169   4.565   7.111 -1.1276  0.7507  3.0731
   99SAPS   C34 9962   2.097   4.409   7.241  0.1167 -0.1718 -0.2045
   99SAPS   H4X 9963   2.124   4.464   7.334  2.6020 -2.0783  0.3357
   99SAPS   H4Y 9964   2.177   4.336   7.215 -0.2416 -1.7219  2.6421
   99SAPS   C35 9965   1.967   4.345   7.283  0.1896  1.3259 -0.5493
   99SAPS   H5X 9966   1.907   4.280   7.216 -0.1993 -0.7222  1.6149
   99SAPS   H5Y 9967   1.904   4.430   7.317  0.8569  0.9043  2.0168
   99SAPS   C36 9968   1.983   4.259   7.411  0.5509 -0.4976 -0.0174
   99SAPS   H6X 9969   2.054   4.178   7.382  1.7526  0.8022 -0.8639
   99SAPS   H6Y 9970   1.881   4.224   7.438  0.8989  1.4645  4.9296
   99SAPS   C37 9971   2.056   4.324   7.532 -0.1662  0.4249 -0.2169
   99SAPS   H7X 9972   2.148   4.374   7.495 -0.3174 -0.1725 -1.4552
   99SAPS   H7Y 9973   2.076   4.251   7.613  0.6745 -0.4283 -1.1615
   99SAPS   C38 9974   1.974   4.431   7.603 -0.5255 -0.3389  0.0884
   99SAPS   H8X 9975   1.915   4.489   7.529  0.3063 -0.0526 -0.3554
   99SAPS   H8Y 9976   2.039   4.493   7.669  2.2703 -2.8158 -0.1277
   99SAPS   C39 9977   1.857   4.382   7.693  0.0096  0.2701  0.5006
   99SAPS   H9X 9978   1.895   4.312   7.771 -1.5446 -0.9910  0.1913
   99SAPS   H9Y 9979   1.796   4.315   7.629  1.1829  1.0187 -1.4824
   99SAPS  C310 9980   1.766   4.478   7.762  0.8085 -0.5022  0.2220
   99SAPS  H10X 9981   1.693   4.523   7.691  0.9761 -1.2762 -0.4639
   99SAPS  H10Y 9982   1.825   4.554   7.817  1.4294 -0.7280 -0.1111
   99SAPS  C311 9983   1.669   4.411   7.864 -0.2727  0.6350 -1.4927
   99SAPS  H11X 9984   1.625   4.325   7.809  0.1553  1.1095 -2.6125
   99SAPS  H11Y 9985   1.587   4.483   7.884 -1.0558 -0.8943  1.3235
   99SAPS  C312 9986   1.740   4.365   7.995 -0.1341 -0.8970 -0.9242
   99SAPS  H12X 9987   1.757   4.440   8.075 -2.0952 -1.5083  0.1395
   99SAPS  H12Y 9988   1.834   4.310   7.972  0.7616 -0.4894  1.4812
   99SAPS  C313 9989   1.644   4.266   8.069  0.0886  0.4975 -0.0859
   99SAPS  H13X 9990   1.694   4.220   8.157 -0.2540  1.1808  0.4771
   99SAPS  H13Y 9991   1.608   4.181   8.008 -0.9286 -0.7533  2.1070
   99SAPS  C314 9992   1.518   4.337   8.131  0.4694  0.5017  0.6245
   99SAPS  H14X 9993   1.450   4.370   8.049 -1.6794 -1.2742  1.5867
   99SAPS  H14Y 9994   1.558   4.429   8.180  3.9271 -0.6659  0.2939
   99SAPS  C315 9995   1.451   4.245   8.234 -0.4967  0.1086  1.3988
   99SAPS  H15X 9996   1.525   4.231   8.316 -1.2231  1.3487  2.3011
   99SAPS  H15Y 9997   1.436   4.151   8.177  2.4415  1.1980 -1.4672
   99SAPS  C316 9998   1.308   4.288   8.282  0.7333 -0.7799  0.3020
   99SAPS  H16X 9999   1.235   4.284   8.199 -0.2616 -1.1737  1.1715
   99SAPS  H16Y10000   1.327   4.394   8.311 -1.0851 -0.3969  0.2326
   99SAPS  C31710001   1.261   4.192   8.390  0.2164  0.4790  0.1889
   99SAPS  H17X10002   1.304   4.218   8.489  2.6402 -0.1824 -0.6351
   99SAPS  H17Y10003   1.285   4.086   8.368  0.3081  0.0097  2.3025
   99SAPS  C31810004   1.113   4.197   8.412 -0.3799  0.5725  0.2239
   99SAPS  H18X10005   1.059   4.122   8.350  0.1235  0.0333  0.4229
   99SAPS  H18Y10006   1.074   4.299   8.394 -3.1646 -0.4012  0.1429
   99SAPS  H18Z10007   1.090   4.163   8.516  2.7158 -2.2191  0.1734
  100SAPS     N10008   5.081   0.037   6.240  0.8082 -0.0094  0.2714
  100SAPS   HN110009   4.987   0.069   6.269  0.3737 -0.0602 -1.0300
  100SAPS   HN210010   5.075  -0.065   6.225  1.3266 -0.2609  1.6244
  100SAPS   HN310011   5.136   0.053   6.327 -0.0581  0.5645  0.7273
  100SAPS   C1210012   5.132   0.110   6.125 -0.4282 -0.2190 -0.8431
  100SAPS  H12A10013   5.239   0.098   6.129 -0.3953  0.4301  1.5866
  100SAPS   C1310014   5.078   0.062   5.990  0.0364  0.6800 -0.4411
  100SAPS  O13A10015   5.011  -0.047   5.972  0.4850 -0.3139 -0.1840
  100SAPS  O13B10016   5.132   0.124   5.894 -0.2173 -0.0091 -0.1196
  100SAPS   C1110017   5.105   0.263   6.139 -0.0851  0.1152 -0.2255
  100SAPS  H11A10018   4.995   0.275   6.129  0.0828  2.7171  0.3451
  100SAPS  H11B10019   5.161   0.308   6.055  1.0589 -1.4019 -0.3092
  100SAPS     P10020   5.238   0.417   6.289 -0.6125 -0.3424  0.0662
  100SAPS   O1310021   5.362   0.393   6.210 -0.1348  0.6632  0.2235
  100SAPS   O1410022   5.174   0.548   6.265 -0.4081 -0.5971  0.1954
  100SAPS   O1210023   5.143   0.300   6.269  0.3221 -0.2529  0.2353
  100SAPS   O1110024   5.273   0.415   6.448 -0.1353  0.7627 -0.5668
  100SAPS    C110025   5.171   0.394   6.548  0.4453  0.1449  0.1359
  100SAPS    HA10026   5.104   0.482   6.559 -0.2295 -0.6197  2.9037
  100SAPS    HB10027   5.109   0.305   6.523 -1.3920  1.2947  0.3763
  100SAPS    C210028   5.237   0.371   6.690  0.4710 -0.4837 -0.4102
  100SAPS    HS10029   5.302   0.459   6.706  1.3078 -0.7570 -2.0988
  100SAPS   O2110030   5.306   0.247   6.686 -0.0945 -0.7917  0.7457
  100SAPS   C2110031   5.430   0.256   6.740 -1.2099  0.0487  0.2952
  100SAPS   O2210032   5.473   0.359   6.792 -0.6509  0.5038  0.3625
  100SAPS   C2210033   5.493   0.117   6.737  0.1420  0.3813  0.1134
  100SAPS   H2R10034   5.509   0.094   6.629  0.3591  0.8663  0.0405
  100SAPS   H2S10035   5.589   0.125   6.792 -0.2312 -1.3392  1.1043
  100SAPS    C310036   5.132   0.366   6.801 -0.0070  0.5692  0.4092
  100SAPS    HX10037   5.071   0.273   6.801  1.7681 -0.6443  0.9801
  100SAPS    HY10038   5.058   0.449   6.792 -2.5642 -1.5143  1.0978
  100SAPS   O3110039   5.196   0.366   6.929  0.1849 -0.8253 -0.2757
  100SAPS   C3110040   5.235   0.488   6.970 -0.6516  0.0449 -0.3376
  100SAPS   O3210041   5.224   0.598   6.911  0.4710 -0.1143 -0.0031
  100SAPS   C3210042   5.289   0.486   7.116  0.4526  0.7598 -0.1034
  100SAPS   H2X10043   5.356   0.574   7.130  0.3535  1.3416 -2.7657
  100SAPS   H2Y10044   5.348   0.393   7.130 -1.1315 -0.0741  1.3801
  100SAPS   C2310045   5.407   0.003   6.794  0.8134 -0.6180  0.1953
  100SAPS   H3R10046   5.445  -0.089   6.746  0.5960 -0.4128 -0.3761
  100SAPS   H3S10047   5.301   0.021   6.766  1.0523 -0.7326 -0.7882
  100SAPS   C2410048   5.425  -0.016   6.944 -0.4577 -0.3349  0.0267
  100SAPS   H4R10049   5.529  -0.052   6.960  0.2747  0.4780 -2.4361
  100SAPS   H4S10050   5.358  -0.097   6.980 -1.0305  1.2237  2.7030
  100SAPS   C2510051   5.376   0.092   7.035 -0.7673  0.4449 -0.1169
  100SAPS   H5R10052   5.332   0.177   6.981  2.5224  0.9312 -2.3416
  100SAPS   C2610053   5.413   0.111   7.168 -0.2777 -0.0335  0.2280
  100SAPS   H6R10054   5.375   0.203   7.216 -0.2812  1.5871 -2.6998
  100SAPS   C2710055   5.507   0.029   7.252  0.0851  0.2000  0.6940
  100SAPS   H7R10056   5.557   0.114   7.302 -2.2410  1.5192  0.9225
  100SAPS   H7S10057   5.584  -0.019   7.188  0.7454  2.7464 -0.5169
  100SAPS   C2810058   5.443  -0.065   7.349  0.3761 -0.1258  0.5396
  100SAPS   H8R10059   5.410  -0.160   7.304  0.1121  0.4377 -0.4908
  100SAPS   C2910060   5.427  -0.050   7.482  0.3305  0.1805  0.4335
  100SAPS   H9R10061   5.363  -0.119   7.538  0.2212 -1.0208 -1.1145
  100SAPS  C21010062   5.488   0.062   7.566 -0.7448 -0.2571 -0.2119
  100SAPS  H10R10063   5.586   0.085   7.519  0.4674 -1.4482  1.6052
  100SAPS  H10S10064   5.511   0.021   7.667 -1.1068  0.7856  0.3115
  100SAPS  C21110065   5.401   0.184   7.581  0.6244 -0.0937  0.8249
  100SAPS  H11R10066   5.393   0.239   7.486 -2.7118  1.5850  1.8777
  100SAPS  C21210067   5.326   0.225   7.682 -0.0623 -0.3710 -0.3667
  100SAPS  H12R10068   5.270   0.319   7.674  1.0779  0.4279  0.7524
  100SAPS  C21310069   5.322   0.158   7.819  0.5119 -0.0677  0.5138
  100SAPS  H13R10070   5.351   0.053   7.797  1.6296  0.4337 -0.5282
  100SAPS  H13S10071   5.222   0.154   7.867  1.6829 -1.0800  3.1088
  100SAPS  C21410072   5.414   0.234   7.916  0.2363 -0.2503 -0.3486
  100SAPS  H14R10073   5.430   0.340   7.893 -1.8078  0.2956  0.4913
  100SAPS  C21510074   5.468   0.186   8.028  0.1396  0.2318 -0.5169
  100SAPS  H15R10075   5.533   0.254   8.085  1.0542  0.2240 -1.5352
  100SAPS  C21610076   5.443   0.046   8.084  0.0505  0.1233  0.7687
  100SAPS  H16R10077   5.544  -0.000   8.092 -0.4429 -0.9363  1.0634
  100SAPS  H16S10078   5.374  -0.011   8.019 -2.3468  0.6513  2.7334
  100SAPS  C21710079   5.383   0.054   8.234  0.4371  0.2731  0.2036
  100SAPS  H17R10080   5.416  -0.046   8.269 -1.8992 -0.1704  1.3285
  100SAPS  H17S10081   5.274   0.073   8.243  0.7234  2.6290 -0.4601
  100SAPS  C21810082   5.453   0.157   8.339 -0.1905  0.3398  0.2503
  100SAPS  H18R10083   5.422   0.258   8.305  0.7325  0.0793 -1.4733
  100SAPS  H18S10084   5.563   0.148   8.327 -0.3887  0.0702 -1.6761
  100SAPS  C21910085   5.405   0.138   8.490 -0.6314 -0.4765  0.1147
  100SAPS  H19R10086   5.484   0.172   8.560 -0.8598 -0.9447  0.6095
  100SAPS  H19S10087   5.388   0.030   8.510  0.2097 -0.5204  0.6441
  100SAPS  C22010088   5.269   0.198   8.523 -0.7573 -0.5705  0.5299
  100SAPS  H20R10089   5.276   0.308   8.515 -0.7025 -0.6899 -1.9902
  100SAPS  H20S10090   5.232   0.184   8.627  0.5354 -0.5547  1.0072
  100SAPS  H20T10091   5.186   0.166   8.457  0.1870 -1.9814 -0.0310
  100SAPS   C3310092   5.184   0.484   7.231  0.2913  0.4391 -0.5054
  100SAPS   H3X10093   5.175   0.383   7.276  1.1291  0.5879  0.0150
  100SAPS   H3Y10094   5.084   0.519   7.197  0.7516  1.4675 -0.8473
  100SAPS   C3410095   5.243   0.571   7.343 -0.5568  0.3494  0.2018
  100SAPS   H4X10096   5.227   0.677   7.315 -0.9957  0.6334  1.4677
  100SAPS   H4Y10097   5.353   0.554   7.349 -0.6937 -1.5591 -1.7802
  100SAPS   C3510098   5.169   0.546   7.473  0.4297 -0.1010 -0.2297
  100SAPS   H5X10099   5.180   0.443   7.513 -0.1596  0.1029  0.4831
  100SAPS   H5Y10100   5.061   0.568   7.455 -0.1435 -0.1383  2.6656
  100SAPS   C3610101   5.226   0.638   7.577 -0.2269  0.0294  0.0526
  100SAPS   H6X10102   5.218   0.740   7.533 -0.1569  0.5148  1.1381
  100SAPS   H6Y10103   5.336   0.624   7.586 -0.1456  0.0384 -0.7975
  100SAPS   C3710104   5.175   0.631   7.721  0.3969  0.8164  0.2794
  100SAPS   H7X10105   5.145   0.530   7.757 -3.2504  1.4071 -0.7186
  100SAPS   H7Y10106   5.074   0.676   7.715  0.5892  1.2876  0.4890
  100SAPS   C3810107   5.260   0.694   7.833 -0.0265 -0.7392 -0.4830
  100SAPS   H8X10108   5.266   0.802   7.810 -1.3492 -0.4406  0.4684
  100SAPS   H8Y10109   5.363   0.651   7.832  1.0145  1.5655 -2.9582
  100SAPS   C3910110   5.205   0.680   7.980 -0.0445  0.0012 -0.8280
  100SAPS   H9X10111   5.215   0.572   8.004 -0.5436  0.3220  0.8958
  100SAPS   H9Y10112   5.099   0.714   7.985 -0.9046 -2.4533 -1.1602
  100SAPS  C31010113   5.284   0.770   8.086  0.1946 -0.2266  0.6492
  100SAPS  H10X10114   5.280   0.875   8.052  0.7706 -0.3502  0.1710
  100SAPS  H10Y10115   5.391   0.740   8.078  0.1517  0.0376 -1.2976
  100SAPS  C31110116   5.243   0.745   8.228  0.5425 -0.2617 -0.1387
  100SAPS  H11X10117   5.134   0.754   8.250  0.6938 -0.3497  0.6944
  100SAPS  H11Y10118   5.286   0.829   8.287 -0.1388  1.0201 -1.4010
  100SAPS  C31210119   5.292   0.616   8.286 -0.1579 -0.8686  1.2252
  100SAPS  H12X10120   5.393   0.593   8.245 -1.0219 -0.5735 -1.2245
  100SAPS  H12Y10121   5.231   0.529   8.255 -0.8495  0.0741 -0.1537
  100SAPS  C31310122   5.317   0.610   8.435 -0.2550 -0.3389 -0.5500
  100SAPS  H13X10123   5.378   0.701   8.454  0.2528 -0.3190 -2.1725
  100SAPS  H13Y10124   5.387   0.525   8.449 -0.3795 -0.7473 -2.2870
  100SAPS  C31410125   5.189   0.634   8.524 -0.0670 -0.4752 -0.5756
  100SAPS  H14X10126   5.126   0.547   8.495  1.0657 -1.0834 -1.2710
  100SAPS  H14Y10127   5.155   0.733   8.488  0.2280 -0.6728 -1.4119
  100SAPS  C31510128   5.203   0.638   8.675  0.3514  0.2006 -0.0096
  100SAPS  H15X10129   5.247   0.540   8.705  1.3065  0.0353 -1.8468
  100SAPS  H15Y10130   5.105   0.640   8.728  0.2780  3.3525 -0.1185
  100SAPS  C31610131   5.267   0.763   8.728 -0.4687  0.4511 -0.5226
  100SAPS  H16X10132   5.206   0.842   8.680  0.4407  0.5097 -1.6146
  100SAPS  H16Y10133   5.370   0.764   8.688 -0.0306  2.5894  0.5465
  100SAPS  C31710134   5.276   0.770   8.886 -0.4718 -0.0569 -0.2226
  100SAPS  H17X10135   5.317   0.868   8.920 -1.8167  0.0236  1.2422
  100SAPS  H17Y10136   5.338   0.686   8.924 -1.5078 -0.3764  0.8258
  100SAPS  C31810137   5.137   0.754   8.956 -1.5630 -0.5464  0.1251
  100SAPS  H18X10138   5.117   0.646   8.974 -1.0400 -0.8470 -1.0494
  100SAPS  H18Y10139   5.061   0.804   8.893 -0.9741 -0.0346 -0.1889
  100SAPS  H18Z10140   5.143   0.805   9.055  0.5613 -1.0764  0.3155
  101OSM      N10141   1.369   4.249  11.096 -0.2754 -0.2617 -0.0852
  101OSM    C1510142   1.229   4.292  11.149  0.0456  0.2730  0.3825
  101OSM   H15A10143   1.171   4.336  11.070  1.4943  0.8946 -0.3814
  101OSM   H15B10144   1.260   4.364  11.223  0.9774 -0.0249  0.3015
  101OSM   H15C10145   1.166   4.209  11.180  0.6450 -1.1800 -2.0278
  101OSM    C1410146   1.453   4.368  11.056 -0.0094  0.2509 -0.9696
  101OSM   H14A10147   1.479   4.429  11.142 -0.1511 -0.2276 -0.5799
  101OSM   H14B10148   1.396   4.433  10.992 -0.5622  0.1119 -0.6272
  101OSM   H14C10149   1.536   4.335  10.995 -0.9275 -0.1754 -2.0106
  101OSM    C1310150   1.438   4.172  11.196  0.9932 -0.4937 -0.0601
  101OSM   H13A10151   1.531   4.134  11.157 -0.2055 -0.6393 -3.0523
  101OSM   H13B10152   1.375   4.086  11.216 -1.1857  1.1426  0.5183
  101OSM   H13C10153   1.457   4.232  11.284 -0.4863  1.1675 -0.8132
  101OSM    C1210154   1.328   4.169  10.968  0.2123  0.1248 -1.0160
  101OSM   H12A10155   1.254   4.222  10.911  1.0314  3.3174  0.6593
  101OSM   H12B10156   1.271   4.081  10.995  0.8787 -0.2170 -0.6906
  101OSM    C1110157   1.438   4.114  10.874  0.6652 -0.4418 -0.5611
  101OSM   H11A10158   1.525   4.182  10.859  0.8811  0.0800  2.4537
  101OSM   H11B10159   1.394   4.103  10.773 -2.5345 -0.7601  0.7257
  101OSM      P10160   1.410   3.861  10.916 -0.0353 -0.1027 -0.3656
  101OSM    O1310161   1.498   3.755  10.958  0.9491 -0.3116 -0.1908
  101OSM    O1410162   1.281   3.876  10.985  0.6164 -0.2409 -1.1702
  101OSM    O1110163   1.383   3.831  10.763 -0.2275 -0.7585 -0.2200
  101OSM    O1210164   1.495   3.995  10.919  0.0813  0.5225  0.2444
  101OSM    C1S10165   1.483   3.772  10.682 -0.2568  0.0752 -0.5289
  101OSM    H1S10166   1.490   3.665  10.713  1.4098 -0.2330 -1.8405
  101OSM    H1T10167   1.582   3.821  10.694 -0.5149  0.4124  0.3285
  101OSM     NF10168   1.563   3.729  10.453  0.3140 -0.2064 -0.4922
  101OSM    HNF10169   1.611   3.798  10.399 -1.1968  1.8447  0.6295
  101OSM    C2S10170   1.446   3.778  10.527 -0.2280  0.5836 -0.1153
  101OSM    H2S10171   1.366   3.710  10.494 -0.0814  1.0312 -1.4297
  101OSM    C3S10172   1.390   3.921  10.493 -0.1925 -0.1468 -0.7179
  101OSM    H3S10173   1.475   3.989  10.515  0.3795 -1.1941  0.4301
  101OSM     O310174   1.295   3.976  10.580  0.0186 -0.1140 -0.3382
  101OSM    HO310175   1.299   3.914  10.653 -0.5128 -1.6433 -1.5549
  101OSM    C4S10176   1.336   3.936  10.352 -0.1917 -0.0874  0.6213
  101OSM    H4S10177   1.412   3.972  10.280 -1.4399  1.1575 -0.1462
  101OSM    C5S10178   1.212   3.912  10.302 -0.1180  0.2214 -0.0369
  101OSM    H5S10179   1.141   3.883  10.381  0.9073  2.3865  1.8065
  101OSM    C6S10180   1.163   3.921  10.165 -0.0302 -0.0586 -0.2444
  101OSM    H6S10181   1.101   4.013  10.166  1.3529  0.9151  1.1481
  101OSM    H6T10182   1.084   3.844  10.150 -0.9477  0.3345  2.1793
  101OSM    C7S10183   1.263   3.894  10.049  0.0652  0.1358  0.8269
  101OSM    H7S10184   1.300   3.790  10.045  0.1290  0.1896 -3.2460
  101OSM    H7T10185   1.345   3.968  10.065 -0.4169  1.2701 -1.5095
  101OSM    C8S10186   1.195   3.919   9.910  0.3773 -0.1645 -0.1259
  101OSM    H8S10187   1.165   4.024   9.893  0.6229  0.0892  0.9548
  101OSM    H8T10188   1.097   3.868   9.908  0.0916  0.2245  2.1012
  101OSM    C9S10189   1.275   3.865   9.793  0.4195 -0.9946 -0.2358
  101OSM    H9S10190   1.280   3.754   9.794  1.9475 -0.9480 -0.6428
  101OSM    H9T10191   1.380   3.902   9.798 -0.4624  1.7873 -0.5595
  101OSM   C10S10192   1.214   3.915   9.663  0.1807  0.1734  0.4959
  101OSM   H10S10193   1.237   4.021   9.639 -3.7058  1.6754  2.3962
  101OSM   H10T10194   1.104   3.910   9.678  0.0376  0.3499 -0.4769
  101OSM   C11S10195   1.246   3.828   9.543 -0.3202 -0.2704 -0.2057
  101OSM   H11S10196   1.209   3.724   9.555  0.4648 -0.8217 -2.2468
  101OSM   H11T10197   1.356   3.830   9.530  0.0167  1.3244  2.1888
  101OSM   C12S10198   1.191   3.872   9.412  0.2886 -0.2597  0.0810
  101OSM   H12S10199   1.213   3.980   9.397 -0.2278 -0.3944 -1.9513
  101OSM   H12T10200   1.082   3.857   9.419  0.6220 -1.9386  2.5822
  101OSM   C13S10201   1.248   3.797   9.287  0.3843  0.0767  0.1279
  101OSM   H13S10202   1.185   3.822   9.198  0.9595 -1.1795 -0.6649
  101OSM   H13T10203   1.262   3.688   9.305  0.2468  0.4394  2.6932
  101OSM   C14S10204   1.388   3.845   9.246  0.7765  0.4733  0.2220
  101OSM   H14S10205   1.464   3.822   9.324  0.6511  2.1233  0.8801
  101OSM   H14T10206   1.383   3.956   9.247 -2.9616  0.4189  1.9837
  101OSM   C15S10207   1.432   3.792   9.107  0.2217  0.3927 -0.3951
  101OSM   H15S10208   1.427   3.681   9.110 -0.7612  0.4092  2.8101
  101OSM   H15T10209   1.539   3.819   9.103  0.3249 -0.1906 -1.9884
  101OSM   C16S10210   1.361   3.850   8.984 -0.4450 -0.1616  0.9089
  101OSM   H16S10211   1.251   3.832   8.991 -0.2478 -1.8563  0.1299
  101OSM   H16T10212   1.389   3.805   8.886 -0.7928 -1.3860  1.3489
  101OSM   C17S10213   1.383   4.004   8.967  0.0554 -0.3039 -0.5599
  101OSM   H17S10214   1.488   4.035   8.949  0.6972  0.1680  3.2076
  101OSM   H17T10215   1.354   4.061   9.058  1.3621  1.4140 -1.1649
  101OSM   C18S10216   1.289   4.051   8.858 -0.6859 -0.0297 -0.3597
  101OSM   H18S10217   1.189   4.005   8.875 -0.4063  0.0359  1.8136
  101OSM   H18T10218   1.308   4.030   8.751 -0.1761  0.8832 -0.4584
  101OSM   H18U10219   1.271   4.161   8.859 -1.6187 -0.1361 -2.1927
  101OSM    C1F10220   1.597   3.603  10.459  0.3827 -0.2540 -0.6538
  101OSM     OF10221   1.528   3.526  10.536  0.2311  0.2867  0.0683
  101OSM    C2F10222   1.727   3.565  10.392 -0.8638  0.2405  0.7821
  101OSM    H2F10223   1.773   3.486  10.455 -1.3583 -0.3582  0.4065
  101OSM    H2G10224   1.783   3.661  10.385 -1.2877  0.3931 -0.9672
  101OSM    C3F10225   1.708   3.504  10.244  0.1583  0.0571 -1.5964
  101OSM    H3F10226   1.643   3.579  10.195 -1.6131  0.2053  0.8001
  101OSM    H3G10227   1.644   3.416  10.268 -0.3973  0.7089 -0.6266
  101OSM    C4F10228   1.835   3.472  10.158  0.7735 -0.7901  0.3898
  101OSM    H4F10229   1.899   3.406  10.221  1.4767 -0.4695  0.0282
  101OSM    H4G10230   1.878   3.566  10.117  0.7200 -0.6564  0.6414
  101OSM    C5F10231   1.790   3.408  10.032 -0.0232 -0.0291  0.0241
  101OSM    H5F10232   1.730   3.482   9.975 -1.5145 -2.5255 -1.8512
  101OSM    H5G10233   1.722   3.322  10.052  0.7259 -0.7036 -0.2815
  101OSM    C6F10234   1.905   3.369   9.939 -0.2175 -0.3087  0.0243
  101OSM    H6F10235   1.970   3.294   9.990  1.8638  0.4022 -1.4718
  101OSM    H6G10236   1.977   3.451   9.920 -1.7334  1.1625  0.4318
  101OSM    C7F10237   1.864   3.313   9.802  0.2553 -0.1110  0.4573
  101OSM    H7F10238   1.799   3.383   9.747  0.8477 -0.4385 -0.6938
  101OSM    H7G10239   1.794   3.228   9.821  0.9542 -0.8648 -0.2532
  101OSM    C8F10240   1.982   3.276   9.711  0.5686  0.8318  0.0146
  101OSM    H8F10241   2.057   3.206   9.752 -1.4714 -2.2254 -1.1446
  101OSM    H8G10242   2.037   3.371   9.691  1.8847  0.1441  0.2975
  101OSM    C9F10243   1.926   3.223   9.580  0.9069 -0.3550  0.1906
  101OSM    H9F10244   1.829   3.171   9.590  0.9018 -0.8877 -2.0865
  101OSM   C10F10245   1.974   3.229   9.455 -0.5004 -0.0988  0.1477
  101OSM   H10F10246   1.921   3.188   9.368  2.1877 -0.5785 -1.3700
  101OSM   C11F10247   2.101   3.291   9.411  0.2684  0.9401 -1.0711
  101OSM   H11F10248   2.170   3.219   9.362 -0.0917 -0.3995  0.3362
  101OSM   H11G10249   2.149   3.338   9.500 -0.3948 -0.4765  0.0750
  101OSM   C12F10250   2.066   3.397   9.311  0.1027 -0.4673 -0.3046
  101OSM   H12F10251   1.987   3.463   9.353  1.0740 -0.0742  0.9664
  101OSM   H12G10252   2.046   3.359   9.208  1.6485  1.6347 -1.4655
  101OSM   C13F10253   2.186   3.497   9.288  0.7915  0.2335 -0.2257
  101OSM   H13F10254   2.220   3.549   9.380  1.8575  0.0243 -0.4853
  101OSM   H13G10255   2.157   3.574   9.214 -2.3521 -1.2311 -0.6990
  101OSM   C14F10256   2.317   3.424   9.247 -0.4204 -0.6499 -0.7333
  101OSM   H14F10257   2.281   3.345   9.176 -0.3934 -0.3162 -1.1218
  101OSM   H14G10258   2.351   3.390   9.347 -0.4678 -0.5118 -0.6697
  101OSM   C15F10259   2.408   3.519   9.170  0.1503 -0.0569  0.4778
  101OSM   H15F10260   2.424   3.619   9.217  1.5309  0.3353 -0.7533
  101OSM   H15G10261   2.341   3.540   9.084  0.8745  0.0561 -0.0736
  101OSM   C16F10262   2.539   3.463   9.120  0.1091  0.2647 -0.5004
  101OSM   H16F10263   2.526   3.358   9.086 -0.1511  1.3152 -3.9681
  101OSM   H16G10264   2.596   3.440   9.213 -1.4118 -1.6562  0.0396
  101OSM   C17F10265   2.616   3.541   9.018 -0.3441 -0.8639  1.0295
  101OSM   H17F10266   2.706   3.479   8.998  1.5249  2.0838 -0.4540
  101OSM   H17G10267   2.648   3.632   9.073  0.4852 -2.2075  2.8765
  101OSM   C18F10268   2.544   3.577   8.891 -0.3099 -0.1515  0.1264
  101OSM   H18F10269   2.607   3.639   8.824  2.1073 -1.3816  1.1605
  101OSM   H18G10270   2.462   3.649   8.915  1.1997  0.6388  3.5663
  101OSM   H18H10271   2.507   3.480   8.852  0.8976 -1.5711  2.3087
  102OSM      N10272   2.519   1.610  10.987 -0.5475  0.2021 -0.3638
  102OSM    C1510273   2.518   1.752  11.033 -0.3516  0.2576  0.1998
  102OSM   H15A10274   2.421   1.782  11.070 -0.1230  3.7405 -1.6502
  102OSM   H15B10275   2.533   1.809  10.943 -0.4359 -2.8661 -1.9564
  102OSM   H15C10276   2.600   1.771  11.100 -0.3307  0.8881  0.0031
  102OSM    C1410277   2.658   1.595  10.927 -0.2814  0.2722 -0.3521
  102OSM   H14A10278   2.693   1.665  10.851  1.2908  0.4148  0.4538
  102OSM   H14B10279   2.653   1.496  10.885 -2.2065 -0.5608  1.6408
  102OSM   H14C10280   2.730   1.589  11.008  0.5762  0.9431 -1.0327
  102OSM    C1310281   2.518   1.530  11.105 -0.2196  0.1954 -0.3970
  102OSM   H13A10282   2.605   1.547  11.167  0.8174 -0.8371 -1.5229
  102OSM   H13B10283   2.523   1.424  11.083  0.1715  0.5204 -2.0385
  102OSM   H13C10284   2.426   1.543  11.159  0.0241  2.2471 -0.4034
  102OSM    C1210285   2.407   1.575  10.889 -0.2581 -0.2242 -0.6223
  102OSM   H12A10286   2.311   1.594  10.935  0.5232 -0.8452  1.3232
  102OSM   H12B10287   2.418   1.469  10.874 -0.1691 -0.8794  3.2788
  102OSM    C1110288   2.410   1.647  10.752 -0.7161 -0.3211 -0.1423
  102OSM   H11A10289   2.319   1.620  10.696 -1.3105 -0.5921  0.9201
  102OSM   H11B10290   2.499   1.602  10.703 -0.0452  2.0195 -1.2123
  102OSM      P10291   2.316   1.902  10.769 -0.4051 -0.0453 -0.1771
  102OSM    O1310292   2.211   1.883  10.667 -0.2922 -0.0960  0.2871
  102OSM    O1410293   2.269   1.900  10.909 -0.2722  0.1227  0.1447
  102OSM    O1110294   2.395   2.033  10.739  0.2939 -0.8723 -0.5788
  102OSM    O1210295   2.420   1.793  10.753 -0.9182  0.4846  0.6699
  102OSM    C1S10296   2.427   2.077  10.608 -0.5850  0.3251 -0.7674
  102OSM    H1S10297   2.411   1.997  10.532 -3.6527  0.1188 -0.0250
  102OSM    H1T10298   2.529   2.120  10.612  0.3814 -1.9053 -0.3042
  102OSM     NF10299   2.390   2.258  10.436  0.3108 -0.4860  0.3606
  102OSM    HNF10300   2.451   2.337  10.431 -2.0357  1.5102  1.1007
  102OSM    C2S10301   2.345   2.207  10.562 -0.2671  0.1914 -0.3825
  102OSM    H2S10302   2.240   2.172  10.562 -0.3928  0.5540  0.1660
  102OSM    C3S10303   2.345   2.315  10.671 -0.2909  0.4190 -0.4467
  102OSM    H3S10304   2.450   2.347  10.690 -0.3009  0.3327 -0.2532
  102OSM     O310305   2.297   2.270  10.804  0.2363 -0.2139  0.5712
  102OSM    HO310306   2.315   2.176  10.805 -0.9627 -0.5151 -0.9850
  102OSM    C4S10307   2.265   2.431  10.627 -0.2751 -0.3044  0.9638
  102OSM    H4S10308   2.326   2.518  10.596 -0.5986 -0.4118 -0.0051
  102OSM    C5S10309   2.132   2.440  10.617 -0.1992  0.1720 -0.6448
  102OSM    H5S10310   2.074   2.355  10.657 -0.5027  0.9297  0.5841
  102OSM    C6S10311   2.047   2.552  10.567 -0.3438 -0.2877  0.1917
  102OSM    H6S10312   2.101   2.649  10.563 -1.2760  0.1939 -3.0083
  102OSM    H6T10313   1.957   2.562  10.632  0.8861  0.1671  1.8909
  102OSM    C7S10314   1.990   2.508  10.427  0.0187  0.0221  0.1633
  102OSM    H7S10315   1.937   2.594  10.380  1.8626  0.8727 -0.4417
  102OSM    H7T10316   1.914   2.429  10.442  1.6534 -2.3243 -2.7175
  102OSM    C8S10317   2.097   2.467  10.328  0.3576 -0.2076  0.1835
  102OSM    H8S10318   2.130   2.366  10.363  0.0069 -0.1984  0.5427
  102OSM    H8T10319   2.176   2.545  10.330  0.4527 -0.2616 -1.0653
  102OSM    C9S10320   2.052   2.464  10.187 -0.5901 -0.3943  0.8086
  102OSM    H9S10321   2.071   2.565  10.144 -1.9888 -0.0311  1.0015
  102OSM    H9T10322   1.941   2.457  10.184 -0.6701  0.7574 -1.3291
  102OSM   C10S10323   2.123   2.369  10.096 -0.5520 -0.3900 -0.1140
  102OSM   H10S10324   2.125   2.267  10.140 -3.6882 -1.6875 -2.5675
  102OSM   H10T10325   2.226   2.411  10.103  1.0342 -3.6694 -1.3880
  102OSM   C11S10326   2.068   2.361   9.945 -0.6820  0.8131  0.9609
  102OSM   H11S10327   2.046   2.461   9.903 -0.8111  0.7699  0.9261
  102OSM   H11T10328   1.976   2.300   9.958  0.6861 -1.6694 -0.2865
  102OSM   C12S10329   2.169   2.289   9.851 -0.3834  0.0994  0.0953
  102OSM   H12S10330   2.207   2.198   9.902 -1.2823 -0.1982  0.2437
  102OSM   H12T10331   2.253   2.361   9.853 -0.7240  0.4939  1.3683
  102OSM   C13S10332   2.121   2.266   9.706 -0.6316  0.0490  0.0194
  102OSM   H13S10333   2.065   2.359   9.681  0.0602  0.0168 -1.7589
  102OSM   H13T10334   2.058   2.175   9.701  0.1144 -0.7625  3.1607
  102OSM   C14S10335   2.244   2.257   9.605  0.5127 -1.1381  0.1251
  102OSM   H14S10336   2.286   2.155   9.593  0.3927 -1.0325 -1.3065
  102OSM   H14T10337   2.327   2.323   9.640 -0.4194 -0.1961  0.6036
  102OSM   C15S10338   2.209   2.309   9.462 -0.3086 -0.5325  0.4249
  102OSM   H15S10339   2.214   2.419   9.454  2.9978 -0.5647  0.6555
  102OSM   H15T10340   2.103   2.284   9.441 -0.6958  1.1013  0.3116
  102OSM   C16S10341   2.305   2.251   9.364 -0.1141  0.1906  0.0009
  102OSM   H16S10342   2.297   2.140   9.364 -0.2740  0.1760 -1.5614
  102OSM   H16T10343   2.403   2.288   9.399 -0.6824  3.4154 -1.4271
  102OSM   C17S10344   2.286   2.291   9.224 -0.1545  0.1340  0.1411
  102OSM   H17S10345   2.280   2.402   9.230  0.6804  0.1145  1.7196
  102OSM   H17T10346   2.194   2.245   9.181  0.5664  0.0582 -1.3945
  102OSM   C18S10347   2.395   2.228   9.136 -0.0539  0.0955 -0.4761
  102OSM   H18S10348   2.496   2.257   9.171  0.0138  0.0376 -0.6233
  102OSM   H18T10349   2.384   2.260   9.030 -2.4870 -0.1671 -0.3658
  102OSM   H18U10350   2.377   2.119   9.140  1.0038 -0.1336 -1.5253
  102OSM    C1F10351   2.393   2.177  10.332 -0.0317  0.5855 -0.7213
  102OSM     OF10352   2.315   2.085  10.318 -0.0560 -0.6121 -0.3279
  102OSM    C2F10353   2.489   2.214  10.223 -0.7406  0.1891  0.1835
  102OSM    H2F10354   2.589   2.179  10.256 -0.3734  1.2486  0.2535
  102OSM    H2G10355   2.490   2.325  10.213  0.8739  0.2436  0.7015
  102OSM    C3F10356   2.450   2.142  10.093 -0.0839  0.4975  0.0600
  102OSM    H3F10357   2.368   2.199  10.045  0.8670  1.0829 -0.9094
  102OSM    H3G10358   2.406   2.040  10.104  0.0954  0.4854  0.7311
  102OSM    C4F10359   2.563   2.135   9.985  0.0971 -0.0540  0.4463
  102OSM    H4F10360   2.629   2.058  10.030 -0.3355 -1.4865 -1.2510
  102OSM    H4G10361   2.612   2.233   9.965  1.3557 -0.6139  0.7505
  102OSM    C5F10362   2.501   2.087   9.849  0.4391  0.3262 -0.6253
  102OSM    H5F10363   2.424   2.164   9.829  2.1866  1.8499 -1.8494
  102OSM    H5G10364   2.446   1.991   9.860  0.1853  0.4343 -0.9223
  102OSM    C6F10365   2.606   2.074   9.740  0.0714 -0.1500  0.1928
  102OSM    H6F10366   2.698   2.020   9.774  2.5949  3.3464 -0.5188
  102OSM    H6G10367   2.651   2.176   9.736 -0.1034  0.1821  3.6033
  102OSM    C7F10368   2.554   2.022   9.602  0.4704  0.7615  0.0433
  102OSM    H7F10369   2.474   2.094   9.572 -1.2623 -0.9337  0.3989
  102OSM    H7G10370   2.507   1.922   9.618  0.3425  0.9649  0.9686
  102OSM    C8F10371   2.663   2.019   9.491 -0.1711  0.1419 -0.3379
  102OSM    H8F10372   2.740   1.948   9.530 -1.4180 -0.6707  0.7129
  102OSM    H8G10373   2.703   2.122   9.483  2.1453 -0.7459 -1.0075
  102OSM    C9F10374   2.618   1.959   9.355  0.0752  0.2859  0.3470
  102OSM    H9F10375   2.542   1.880   9.365 -0.6033  1.1032  2.1657
  102OSM   C10F10376   2.667   1.995   9.235 -0.8416 -0.5715  0.2252
  102OSM   H10F10377   2.641   1.940   9.144 -0.8757  0.6755 -0.5448
  102OSM   C11F10378   2.776   2.102   9.201  0.3439  0.1819  0.0473
  102OSM   H11F10379   2.850   2.123   9.282  2.4279  2.1214 -2.1854
  102OSM   H11G10380   2.718   2.195   9.188 -0.4613  0.2692  3.4298
  102OSM   C12F10381   2.860   2.084   9.071  0.2881 -0.3639  0.0727
  102OSM   H12F10382   2.910   1.985   9.072  0.8359 -0.0916 -0.3267
  102OSM   H12G10383   2.940   2.161   9.074 -1.2207  1.2684  1.7594
  102OSM   C13F10384   2.789   2.117   8.938  0.3652  0.4309  0.5005
  102OSM   H13F10385   2.785   2.227   8.923  0.7269  0.2898 -0.7794
  102OSM   H13G10386   2.693   2.061   8.932  0.4316  0.1373  1.9296
  102OSM   C14F10387   2.865   2.067   8.811  0.4198  0.0260  0.3633
  102OSM   H14F10388   2.863   1.956   8.798  4.0926 -0.3033  1.5273
  102OSM   H14G10389   2.968   2.102   8.833 -0.1215  1.6805  0.4171
  102OSM   C15F10390   2.799   2.134   8.681  0.4527 -0.4255 -0.0905
  102OSM   H15F10391   2.689   2.150   8.682  0.6784  2.7700 -3.4800
  102OSM   H15G10392   2.813   2.062   8.598  0.8079 -1.8530  1.1557
  102OSM   C16F10393   2.833   2.277   8.649 -0.3274  0.4343  0.0526
  102OSM   H16F10394   2.944   2.286   8.649 -0.4201  2.1558  0.8034
  102OSM   H16G10395   2.805   2.348   8.730 -1.3550 -2.7228  2.6651
  102OSM   C17F10396   2.790   2.325   8.513  0.5008  0.6800 -0.0725
  102OSM   H17F10397   2.684   2.296   8.494  0.1856 -0.1443  2.5295
  102OSM   H17G10398   2.850   2.257   8.449  0.6774 -1.3190  2.0724
  102OSM   C18F10399   2.814   2.475   8.479  0.3727 -0.1900  0.3345
  102OSM   H18F10400   2.752   2.499   8.390 -1.4840 -2.0624  1.0463
  102OSM   H18G10401   2.921   2.501   8.463 -0.0117  0.4899 -1.4016
  102OSM   H18H10402   2.783   2.542   8.561  1.5271  1.9505 -0.8783
  103OSM      N10403   3.909   6.310  11.280 -0.1278 -0.1373  0.5228
  103OSM    C1510404   3.983   6.249  11.167 -0.9962  0.1836 -0.1197
  103OSM   H15A10405   3.972   6.318  11.085 -0.4355 -0.9344 -1.1699
  103OSM   H15B10406   3.935   6.155  11.144  1.3545 -1.6104  1.7106
  103OSM   H15C10407   4.085   6.222  11.194 -0.9224  0.1223 -0.4574
  103OSM    C1410408   3.765   6.335  11.245  0.0420 -0.6237  0.6503
  103OSM   H14A10409   3.711   6.398  11.314 -2.1988  0.5567 -1.9784
  103OSM   H14B10410   3.716   6.239  11.246 -1.5255  0.0181 -2.2962
  103OSM   H14C10411   3.768   6.371  11.143  0.6485  0.0536  0.8968
  103OSM    C1310412   3.910   6.220  11.395  0.0862 -0.8956  0.8866
  103OSM   H13A10413   3.847   6.269  11.468 -0.0067  0.2526  0.0586
  103OSM   H13B10414   4.009   6.207  11.436  1.1943 -0.4448 -1.4751
  103OSM   H13C10415   3.877   6.119  11.375 -1.6985  0.0521 -1.4227
  103OSM    C1210416   3.983   6.442  11.303  0.6078  0.2825 -0.1289
  103OSM   H12A10417   4.087   6.431  11.331  1.3985 -2.9168 -3.5741
  103OSM   H12B10418   3.931   6.482  11.389 -0.0520  0.6845 -0.7038
  103OSM    C1110419   3.992   6.542  11.184  0.4142 -0.3037 -0.4287
  103OSM   H11A10420   4.048   6.482  11.110  1.5431 -1.7009  1.4687
  103OSM   H11B10421   4.054   6.630  11.212 -1.8879  1.1057  0.5841
  103OSM      P10422   3.837   6.663  11.007 -0.0098  0.3888 -0.0117
  103OSM    O1310423   3.701   6.711  11.005  0.0490 -0.6930  0.4177
  103OSM    O1410424   3.949   6.762  10.992  0.0673  0.9339 -0.4141
  103OSM    O1110425   3.853   6.550  10.898  0.1857  0.2308  0.0172
  103OSM    O1210426   3.864   6.574  11.139  0.1198 -0.3024 -0.0107
  103OSM    C1S10427   3.792   6.581  10.763 -0.5300  0.0610 -0.1425
  103OSM    H1S10428   3.867   6.608  10.685  0.0753  0.3989  0.5417
  103OSM    H1T10429   3.726   6.670  10.763  0.0358  0.5076  0.8874
  103OSM     NF10430   3.668   6.486  10.567 -0.0843 -0.2208 -0.1149
  103OSM    HNF10431   3.571   6.474  10.548  0.0414 -0.6342 -0.5090
  103OSM    C2S10432   3.711   6.457  10.705 -0.0728 -0.3292 -0.2632
  103OSM    H2S10433   3.785   6.374  10.701  1.0793  0.6718 -0.2620
  103OSM    C3S10434   3.587   6.430  10.792  0.7538  0.0814  0.6538
  103OSM    H3S10435   3.523   6.519  10.781 -0.0026 -0.5398 -0.1388
  103OSM     O310436   3.613   6.416  10.929 -0.1206 -0.0938 -0.2561
  103OSM    HO310437   3.698   6.460  10.930 -0.0903 -0.1610  0.0590
  103OSM    C4S10438   3.524   6.305  10.750  0.8297  0.0413  0.6651
  103OSM    H4S10439   3.427   6.343  10.715  0.4450  0.7533  2.4079
  103OSM    C5S10440   3.577   6.178  10.731  0.4714  0.6197 -0.4487
  103OSM    H5S10441   3.683   6.160  10.753  0.1129  0.5774  1.4137
  103OSM    C6S10442   3.499   6.064  10.679  0.3553  0.8217 -0.2942
  103OSM    H6S10443   3.391   6.090  10.671  0.5539  1.7822 -0.0076
  103OSM    H6T10444   3.498   5.990  10.762  0.0152  0.6357 -0.4593
  103OSM    C7S10445   3.538   5.996  10.544  0.4015  0.0013  0.3533
  103OSM    H7S10446   3.470   5.912  10.518  0.1255 -0.0042  1.0596
  103OSM    H7T10447   3.641   5.959  10.560  0.1406  0.1052  2.6152
  103OSM    C8S10448   3.536   6.092  10.420  0.3549 -0.1108 -1.0159
  103OSM    H8S10449   3.617   6.166  10.434 -1.6039  2.4409 -2.2376
  103OSM    H8T10450   3.441   6.149  10.424  0.3592 -0.1522  0.1127
  103OSM    C9S10451   3.553   6.015  10.285  0.3027 -0.6535  0.6043
  103OSM    H9S10452   3.461   5.958  10.261  0.0957 -0.5718  1.1847
  103OSM    H9T10453   3.639   5.948  10.308  0.1314 -1.2653 -0.4723
  103OSM   C10S10454   3.573   6.113  10.157 -0.1499  0.6404 -0.8031
  103OSM   H10S10455   3.646   6.192  10.186  2.1152 -1.5205 -0.2079
  103OSM   H10T10456   3.472   6.158  10.143  0.0879  0.7759 -2.2205
  103OSM   C11S10457   3.635   6.052  10.034 -0.3803  0.3990 -0.2772
  103OSM   H11S10458   3.609   5.945  10.019  0.8984  0.3343 -2.6647
  103OSM   H11T10459   3.743   6.052  10.060 -0.9451  0.0714  2.2764
  103OSM   C12S10460   3.593   6.132   9.914  0.2373  0.9011  0.8247
  103OSM   H12S10461   3.610   6.240   9.933 -1.2358  1.7513 -2.0852
  103OSM   H12T10462   3.484   6.125   9.896  0.5800 -0.6235 -1.0176
  103OSM   C13S10463   3.674   6.100   9.786  0.2874  0.1728 -0.4367
  103OSM   H13S10464   3.782   6.121   9.798  0.3133 -0.4444  0.4542
  103OSM   H13T10465   3.634   6.174   9.713  0.0357  0.2861 -0.1869
  103OSM   C14S10466   3.650   5.963   9.731 -0.0252  1.0246 -0.1593
  103OSM   H14S10467   3.542   5.949   9.709 -0.1313  1.2104  0.2371
  103OSM   H14T10468   3.679   5.880   9.798  1.9120  0.2022 -1.9020
  103OSM   C15S10469   3.729   5.941   9.603 -0.3331 -0.2726  0.0203
  103OSM   H15S10470   3.831   5.980   9.623 -0.9569  2.3154 -1.3833
  103OSM   H15T10471   3.687   6.008   9.525  0.0360  0.1923  0.2195
  103OSM   C16S10472   3.713   5.799   9.547 -0.1765  0.4558  0.4036
  103OSM   H16S10473   3.607   5.783   9.518 -0.4699 -0.9929  2.0726
  103OSM   H16T10474   3.735   5.722   9.624 -0.9245 -0.7736 -0.5603
  103OSM   C17S10475   3.803   5.780   9.423  0.2414 -0.6642  0.0512
  103OSM   H17S10476   3.777   5.679   9.384 -0.1746  0.0873 -1.7125
  103OSM   H17T10477   3.897   5.758   9.478 -0.2674 -0.6774  0.9291
  103OSM   C18S10478   3.803   5.892   9.315  0.1437 -0.4686 -0.5927
  103OSM   H18S10479   3.868   5.867   9.228 -0.5096  1.9985 -1.8694
  103OSM   H18T10480   3.829   5.996   9.342  0.5379 -0.5083 -0.8108
  103OSM   H18U10481   3.699   5.906   9.278  0.0771 -0.4257 -0.3894
  103OSM    C1F10482   3.756   6.489  10.469  0.2208 -0.4188  0.0116
  103OSM     OF10483   3.874   6.468  10.489  0.1103  0.2230 -0.1408
  103OSM    C2F10484   3.691   6.485  10.328 -0.6660  0.2012 -0.1281
  103OSM    H2F10485   3.583   6.511  10.338 -0.4791  0.2586  2.1203
  103OSM    H2G10486   3.714   6.387  10.280  1.9139  0.4263  0.5018
  103OSM    C3F10487   3.742   6.598  10.232 -0.0656  0.1924  0.5385
  103OSM    H3F10488   3.853   6.598  10.240  0.0541  0.7428 -0.9010
  103OSM    H3G10489   3.711   6.702  10.255 -0.5439  1.8226 -5.6408
  103OSM    C4F10490   3.709   6.569  10.088 -0.3900  0.0178  0.6507
  103OSM    H4F10491   3.685   6.667  10.043  1.2420 -0.4809 -1.4846
  103OSM    H4G10492   3.622   6.502  10.071  0.7341 -0.5918 -3.8647
  103OSM    C5F10493   3.833   6.518  10.009  0.5750 -0.4330  0.8949
  103OSM    H5F10494   3.874   6.422  10.046 -0.1530 -0.5973  1.3069
  103OSM    H5G10495   3.918   6.585  10.034  0.8470 -1.0757  1.7551
  103OSM    C6F10496   3.812   6.517   9.854 -0.3338 -0.4090 -1.0298
  103OSM    H6F10497   3.740   6.432   9.846 -1.3045  0.3010 -0.1348
  103OSM    H6G10498   3.908   6.481   9.811  1.3479  1.6964  0.7123
  103OSM    C7F10499   3.764   6.651   9.789  0.6020 -0.0972  0.2729
  103OSM    H7F10500   3.831   6.734   9.819  0.3850  0.6418 -1.1875
  103OSM    H7G10501   3.662   6.676   9.823 -0.6290 -1.9788 -1.7616
  103OSM    C8F10502   3.760   6.639   9.638 -0.5056  0.3824 -0.0730
  103OSM    H8F10503   3.865   6.623   9.602 -0.0676 -1.7188  1.9432
  103OSM    H8G10504   3.724   6.737   9.599 -0.6279  1.3240  2.2931
  103OSM    C9F10505   3.663   6.527   9.614  0.4022  0.4082  0.3858
  103OSM    H9F10506   3.563   6.537   9.657  0.1599  1.0807 -0.3145
  103OSM   C10F10507   3.683   6.414   9.541 -0.2963 -0.2243  0.4373
  103OSM   H10F10508   3.601   6.347   9.513 -0.0258 -0.0184 -0.9268
  103OSM   C11F10509   3.811   6.381   9.457 -0.1125 -0.8519  0.2207
  103OSM   H11F10510   3.875   6.307   9.510  0.8039 -0.5128 -0.3863
  103OSM   H11G10511   3.863   6.476   9.431 -1.2735 -0.2867 -0.1440
  103OSM   C12F10512   3.772   6.331   9.324  0.4421  0.2328  0.6569
  103OSM   H12F10513   3.706   6.242   9.331  0.5309  0.2083  1.2344
  103OSM   H12G10514   3.857   6.294   9.263 -0.0131 -0.7457  0.5939
  103OSM   C13F10515   3.689   6.421   9.229  0.4365 -0.0211  0.3995
  103OSM   H13F10516   3.591   6.438   9.278  0.6192  3.2548 -0.1205
  103OSM   H13G10517   3.751   6.513   9.219  0.6987 -0.0161  1.8716
  103OSM   C14F10518   3.659   6.354   9.091 -0.3489  0.5369  0.6303
  103OSM   H14F10519   3.624   6.249   9.094  0.1387  0.1572 -2.7975
  103OSM   H14G10520   3.759   6.358   9.044  0.4621 -0.4473  2.2020
  103OSM   C15F10521   3.555   6.434   9.010  0.0949 -0.3296  0.3363
  103OSM   H15F10522   3.583   6.539   8.985  1.3886 -0.5309  0.8589
  103OSM   H15G10523   3.462   6.437   9.072  1.3105  1.6399  2.1993
  103OSM   C16F10524   3.521   6.361   8.882  0.0922 -0.3483 -0.4478
  103OSM   H16F10525   3.484   6.260   8.912 -0.7567  1.0150  3.7568
  103OSM   H16G10526   3.615   6.351   8.825  1.5429  2.7808  1.1724
  103OSM   C17F10527   3.406   6.441   8.815 -0.4808  0.1312  0.3421
  103OSM   H17F10528   3.438   6.548   8.814  1.6716 -0.4707  0.9732
  103OSM   H17G10529   3.314   6.430   8.877 -0.9119  1.1448 -0.0779
  103OSM   C18F10530   3.367   6.380   8.678  0.9198 -0.6176  0.3702
  103OSM   H18F10531   3.273   6.419   8.635  1.6983 -1.7792 -2.6189
  103OSM   H18G10532   3.349   6.271   8.688  1.6131 -0.9144 -1.2933
  103OSM   H18H10533   3.448   6.393   8.604  1.1786  1.1046  0.9186
  104OSM      N10534   0.782   3.572  11.090 -0.1872 -0.5322  0.0769
  104OSM    C1510535   0.653   3.645  11.098  0.0581 -0.6454  0.1272
  104OSM   H15A10536   0.601   3.646  11.193 -0.5418 -0.6736 -0.1906
  104OSM   H15B10537   0.583   3.607  11.024  1.4013 -2.4423 -0.2779
  104OSM   H15C10538   0.676   3.746  11.066 -0.2827  0.0023  1.8342
  104OSM    C1410539   0.890   3.657  11.147  0.2790  0.2916  0.0227
  104OSM   H14A10540   0.863   3.688  11.247 -1.1153  3.2877 -1.1705
  104OSM   H14B10541   0.905   3.750  11.095  0.0486  0.8529  0.9419
  104OSM   H14C10542   0.982   3.601  11.156  0.8340  1.2414  0.4259
  104OSM    C1310543   0.764   3.448  11.166  0.0386  0.5753  0.0504
  104OSM   H13A10544   0.759   3.467  11.273  0.7502 -0.5347  0.2993
  104OSM   H13B10545   0.843   3.379  11.140 -1.3762 -1.3111  0.5426
  104OSM   H13C10546   0.672   3.400  11.138  0.5089  0.1177 -0.7268
  104OSM    C1210547   0.824   3.538  10.943 -0.1029 -0.2881  0.3001
  104OSM   H12A10548   0.762   3.459  10.903  1.3216 -0.8961 -0.7968
  104OSM   H12B10549   0.920   3.490  10.931 -0.9945 -1.5348 -3.1164
  104OSM    C1110550   0.813   3.653  10.846  0.0874 -0.5499  0.3839
  104OSM   H11A10551   0.848   3.612  10.750  0.6962 -0.4844  0.5770
  104OSM   H11B10552   0.880   3.735  10.881 -2.1660  1.5242  0.1467
  104OSM      P10553   0.637   3.847  10.801  0.0265 -0.1355 -0.4005
  104OSM    O1310554   0.489   3.861  10.803  0.2022  0.0590  0.2137
  104OSM    O1410555   0.704   3.933  10.900  0.0283  0.5127 -0.1218
  104OSM    O1110556   0.685   3.883  10.653 -0.4510 -0.2912 -0.6175
  104OSM    O1210557   0.677   3.701  10.828 -0.1508  0.7590  0.3545
  104OSM    C1S10558   0.669   3.786  10.545 -0.0143 -0.8287 -0.0491
  104OSM    H1S10559   0.574   3.729  10.551 -0.5631  0.0330 -0.3288
  104OSM    H1T10560   0.751   3.711  10.545 -0.1584 -0.9900  0.4336
  104OSM     NF10561   0.573   3.756  10.311  0.4043  0.0907 -0.1615
  104OSM    HNF10562   0.619   3.692  10.250  1.1062  0.8946 -0.5098
  104OSM    C2S10563   0.648   3.849  10.401  0.2248  0.2516 -0.3945
  104OSM    H2S10564   0.589   3.944  10.405  1.4664  1.1556 -2.0635
  104OSM    C3S10565   0.795   3.885  10.357 -0.4946  0.7064  0.3337
  104OSM    H3S10566   0.835   3.787  10.325 -0.2988  1.4167 -1.7918
  104OSM     O310567   0.889   3.931  10.455 -0.6737 -0.5909 -0.0311
  104OSM    HO310568   0.857   3.907  10.542  1.5891  2.9965  2.0226
  104OSM    C4S10569   0.788   3.972  10.233  0.2273 -0.1866 -0.0658
  104OSM    H4S10570   0.765   3.907  10.148 -2.1405 -0.3566  0.6339
  104OSM    C5S10571   0.789   4.103  10.235  0.1646  0.5952  0.0158
  104OSM    H5S10572   0.799   4.152  10.333  0.8492  0.1847  0.1539
  104OSM    C6S10573   0.770   4.196  10.113 -0.0964  0.3005 -0.2723
  104OSM    H6S10574   0.794   4.304  10.126 -1.1275  0.3712  1.2805
  104OSM    H6T10575   0.662   4.180  10.093  0.0029 -1.2309  0.3032
  104OSM    C7S10576   0.862   4.139  10.006  0.7382 -0.6206  0.1152
  104OSM    H7S10577   0.854   4.029   9.994 -2.8821 -0.5100  0.2679
  104OSM    H7T10578   0.967   4.139  10.042  0.6432 -1.0189  0.3947
  104OSM    C8S10579   0.848   4.208   9.872  0.3836 -0.1592 -0.5267
  104OSM    H8S10580   0.876   4.313   9.893 -0.1627 -0.1116  0.0131
  104OSM    H8T10581   0.741   4.193   9.843  0.0351 -0.6757  0.9033
  104OSM    C9S10582   0.926   4.154   9.762  0.1648  0.2228 -0.0001
  104OSM    H9S10583   0.959   4.052   9.794  1.0166  0.7688  0.9170
  104OSM    H9T10584   1.019   4.207   9.731 -0.2973  0.1461 -1.5945
  104OSM   C10S10585   0.845   4.157   9.634 -0.5410  0.0541  0.0514
  104OSM   H10S10586   0.799   4.256   9.615 -0.4141 -0.0599 -0.9301
  104OSM   H10T10587   0.770   4.078   9.657 -0.0315 -0.3819  0.2436
  104OSM   C11S10588   0.925   4.126   9.507  0.6801 -0.6930 -0.0858
  104OSM   H11S10589   0.960   4.021   9.512  0.8200 -0.6968 -0.9782
  104OSM   H11T10590   1.016   4.190   9.514  1.0209 -0.7839 -2.6888
  104OSM   C12S10591   0.846   4.153   9.379  0.2794 -0.2654 -0.0326
  104OSM   H12S10592   0.781   4.242   9.393  2.0717  1.1289 -0.3654
  104OSM   H12T10593   0.780   4.064   9.370 -2.4799  1.6479  0.1243
  104OSM   C13S10594   0.942   4.169   9.262 -0.4271  0.6292 -0.0082
  104OSM   H13S10595   1.042   4.204   9.294  0.2594 -0.5982 -0.7290
  104OSM   H13T10596   0.914   4.251   9.192  1.6956  2.2767  0.9616
  104OSM   C14S10597   0.966   4.039   9.179 -0.0293 -0.3795  0.4384
  104OSM   H14S10598   0.974   3.946   9.239  5.1299 -0.7242 -0.3391
  104OSM   H14T10599   1.063   4.050   9.126  0.1434 -3.4267 -0.0823
  104OSM   C15S10600   0.858   4.021   9.075  0.2583 -0.5285 -0.8578
  104OSM   H15S10601   0.764   4.039   9.131  0.8234 -1.3488  0.3814
  104OSM   H15T10602   0.843   3.912   9.060  0.4563 -0.6478 -0.2019
  104OSM   C16S10603   0.866   4.096   8.943  0.4805  0.4575 -0.3839
  104OSM   H16S10604   0.936   4.040   8.878 -0.4803 -0.4203 -0.7028
  104OSM   H16T10605   0.904   4.199   8.957  0.2817  0.2966  1.7403
  104OSM   C17S10606   0.725   4.102   8.873  0.8309 -0.2258  0.4398
  104OSM   H17S10607   0.659   4.144   8.951 -1.1106 -2.0232 -0.1552
  104OSM   H17T10608   0.705   3.996   8.848  0.5771  0.2267 -1.4356
  104OSM   C18S10609   0.725   4.185   8.744 -0.1937 -0.2739  0.0297
  104OSM   H18S10610   0.750   4.292   8.761  1.7444 -0.5510 -0.7498
  104OSM   H18T10611   0.624   4.191   8.699 -0.4339  1.6829  0.7279
  104OSM   H18U10612   0.793   4.141   8.668  0.7402  1.6998 -0.3585
  104OSM    C1F10613   0.446   3.738  10.332  0.7698 -0.0786 -0.3790
  104OSM     OF10614   0.369   3.825  10.370  0.2083 -0.6060  0.7562
  104OSM    C2F10615   0.401   3.591  10.316 -0.4389 -0.0377 -0.1708
  104OSM    H2F10616   0.383   3.555  10.420 -2.4195  1.8216  0.1881
  104OSM    H2G10617   0.478   3.537  10.256 -1.0885 -2.1509  0.7996
  104OSM    C3F10618   0.268   3.576  10.238  0.1215 -0.2254 -0.0674
  104OSM    H3F10619   0.189   3.643  10.278 -0.5386  0.0625 -1.7756
  104OSM    H3G10620   0.235   3.470  10.236 -0.5468 -0.0561  1.0198
  104OSM    C4F10621   0.286   3.606  10.085  0.4213  0.4260 -0.6018
  104OSM    H4F10622   0.341   3.702  10.085 -0.8731  1.2386  1.0212
  104OSM    H4G10623   0.189   3.613  10.032 -0.4874 -3.0856  0.3557
  104OSM    C5F10624   0.356   3.488  10.016  0.5142 -0.0543  0.0938
  104OSM    H5F10625   0.294   3.398  10.036 -0.4969  0.3814 -0.9292
  104OSM    H5G10626   0.456   3.465  10.059 -0.0729  0.7391  1.9917
  104OSM    C6F10627   0.367   3.504   9.863  0.6322 -0.4829 -0.2934
  104OSM    H6F10628   0.409   3.405   9.835  1.7817 -0.0038 -0.3113
  104OSM    H6G10629   0.441   3.581   9.834 -0.1332  0.6400  0.6736
  104OSM    C7F10630   0.234   3.523   9.781  0.3113 -0.1192  0.3225
  104OSM    H7F10631   0.195   3.621   9.815  0.0402 -0.4183  0.8979
  104OSM    H7G10632   0.174   3.430   9.793  0.8683 -0.5364 -0.0400
  104OSM    C8F10633   0.267   3.542   9.631  0.1828  0.4491  0.1770
  104OSM    H8F10634   0.338   3.459   9.608 -1.1158 -0.6967  0.1836
  104OSM    H8G10635   0.313   3.643   9.620  2.6129 -0.3374  1.9865
  104OSM    C9F10636   0.136   3.517   9.547  0.0091 -0.1752  0.0651
  104OSM    H9F10637   0.059   3.449   9.586 -0.8123  1.5622  1.6056
  104OSM   C10F10638   0.127   3.561   9.421  0.1531 -1.1122  0.3132
  104OSM   H10F10639   0.032   3.556   9.365 -1.2489  2.8464  1.9074
  104OSM   C11F10640   0.230   3.639   9.349 -0.2778  0.2015 -0.3724
  104OSM   H11F10641   0.331   3.634   9.394 -0.2126 -0.4310 -0.5834
  104OSM   H11G10642   0.198   3.746   9.347  1.9773  0.9284 -0.5125
  104OSM   C12F10643   0.241   3.589   9.204 -0.9473  0.4590  0.2540
  104OSM   H12F10644   0.292   3.664   9.139 -1.8122  1.9530  1.2503
  104OSM   H12G10645   0.145   3.571   9.151  1.8680 -4.7143 -4.2467
  104OSM   C13F10646   0.318   3.465   9.193  0.1702  0.1986  0.3294
  104OSM   H13F10647   0.279   3.396   9.270 -0.4261 -2.7059 -2.3577
  104OSM   H13G10648   0.424   3.483   9.221 -0.0150  2.3028 -0.1715
  104OSM   C14F10649   0.302   3.391   9.059 -0.9860 -0.1691  0.9091
  104OSM   H14F10650   0.368   3.427   8.977 -0.0340 -0.8175  1.3704
  104OSM   H14G10651   0.197   3.411   9.028 -0.5500 -0.0932 -0.6236
  104OSM   C15F10652   0.328   3.243   9.065  0.6676  0.1294 -0.1290
  104OSM   H15F10653   0.242   3.205   9.123 -0.4523  0.8221 -1.2921
  104OSM   H15G10654   0.424   3.221   9.117 -1.1052 -0.3024  3.2148
  104OSM   C16F10655   0.324   3.164   8.930 -0.5185  0.1284  1.0187
  104OSM   H16F10656   0.364   3.061   8.938 -2.3429 -0.7900 -0.6800
  104OSM   H16G10657   0.401   3.211   8.865 -1.5613  0.8760  0.2736
  104OSM   C17F10658   0.185   3.150   8.853 -0.2380  0.2187 -0.5483
  104OSM   H17F10659   0.202   3.095   8.759  1.6333 -1.3288  0.6187
  104OSM   H17G10660   0.134   3.247   8.835  0.2624  0.5998  0.0627
  104OSM   C18F10661   0.077   3.064   8.928 -0.1754  0.5353  0.0273
  104OSM   H18F10662  -0.007   3.033   8.862  0.5873  1.6477 -1.5447
  104OSM   H18G10663   0.051   3.112   9.025  0.0497  1.2661 -0.2589
  104OSM   H18H10664   0.129   2.973   8.964 -0.3934  0.7526  0.9219
  105OSM      N10665   6.121   4.595  11.052 -0.0217  0.5623  0.3583
  105OSM    C1510666   6.115   4.730  11.111  0.4510  0.8208  0.3876
  105OSM   H15A10667   6.210   4.779  11.106  0.1209  1.5419  1.0561
  105OSM   H15B10668   6.076   4.736  11.212 -0.2371 -0.3081  0.2122
  105OSM   H15C10669   6.055   4.801  11.055  0.6905  1.0600  0.4360
  105OSM    C1410670   6.192   4.505  11.156  0.1177 -0.4794 -0.3305
  105OSM   H14A10671   6.198   4.411  11.102  0.6013  1.1325 -3.3431
  105OSM   H14B10672   6.132   4.489  11.244 -0.7800  1.7325 -0.4778
  105OSM   H14C10673   6.293   4.535  11.176 -0.2711  0.7875 -0.1807
  105OSM    C1310674   5.982   4.552  11.033 -0.6285 -1.0223  0.4104
  105OSM   H13A10675   5.929   4.617  10.965  0.9743  1.1879  1.1658
  105OSM   H13B10676   5.911   4.560  11.115  0.4804 -0.7227  1.3673
  105OSM   H13C10677   5.985   4.449  10.999  0.9618 -0.4243 -1.4253
  105OSM    C1210678   6.199   4.585  10.926  0.0544  0.5657  0.1990
  105OSM   H12A10679   6.305   4.594  10.949 -0.0188 -0.3282  0.9287
  105OSM   H12B10680   6.178   4.672  10.866 -0.0403  0.5499  0.2088
  105OSM    C1110681   6.163   4.455  10.841  0.7016  0.4509 -0.7186
  105OSM   H11A10682   6.226   4.445  10.750  2.0872 -0.4005  0.2974
  105OSM   H11B10683   6.058   4.469  10.807 -0.2378 -1.0479  1.3305
  105OSM      P10684   6.074   4.218  10.914  0.0824  0.1872  0.0044
  105OSM    O1310685   6.144   4.087  10.929  0.0878  0.2331 -0.3238
  105OSM    O1410686   5.976   4.247  11.019  0.0225  0.2291 -0.1543
  105OSM    O1110687   6.006   4.224  10.775  0.1706  0.1003 -0.2018
  105OSM    O1210688   6.175   4.341  10.923 -0.0037 -0.9528 -0.5403
  105OSM    C1S10689   6.030   4.124  10.675 -0.1493 -0.6607  0.0175
  105OSM    H1S10690   5.999   4.026  10.717 -0.8381 -0.4949 -0.1022
  105OSM    H1T10691   6.139   4.118  10.651  0.2760  2.8339  0.5126
  105OSM     NF10692   6.014   4.033  10.436 -0.0687 -0.8985  0.3924
  105OSM    HNF10693   6.080   4.062  10.367 -2.2158 -0.0370 -1.4006
  105OSM    C2S10694   5.959   4.135  10.533 -0.3774 -0.2348 -0.0045
  105OSM    H2S10695   5.853   4.114  10.559 -0.8460  0.9577 -0.8550
  105OSM    C3S10696   5.969   4.279  10.475  0.3341  0.4659 -0.0408
  105OSM    H3S10697   6.075   4.305  10.453  0.0146  0.8775 -1.2042
  105OSM     O310698   5.938   4.380  10.573  0.0835 -0.5574 -0.4273
  105OSM    HO310699   5.927   4.330  10.654  0.4790 -1.9135 -1.1833
  105OSM    C4S10700   5.885   4.294  10.347  0.4804  0.3888 -0.0345
  105OSM    H4S10701   5.780   4.323  10.364 -0.3220 -1.1912 -1.9874
  105OSM    C5S10702   5.932   4.300  10.221 -1.0499  0.1140  0.8143
  105OSM    H5S10703   6.039   4.277  10.215 -0.7149  1.7183 -0.0892
  105OSM    C6S10704   5.857   4.327  10.089  0.0373 -0.2657 -0.1053
  105OSM    H6S10705   5.750   4.353  10.101 -0.1181  0.1331 -2.0035
  105OSM    H6T10706   5.865   4.242  10.018 -2.0505 -0.6717  0.0579
  105OSM    C7S10707   5.926   4.444  10.014 -0.6068  0.3508 -0.3188
  105OSM    H7S10708   6.034   4.425  10.001 -0.0212  2.6385  0.6676
  105OSM    H7T10709   5.917   4.535  10.077  1.7666 -1.0056  2.1964
  105OSM    C8S10710   5.858   4.466   9.876 -0.7225 -0.1870 -0.3513
  105OSM    H8S10711   5.905   4.554   9.829  3.1819 -2.0718 -0.3462
  105OSM    H8T10712   5.755   4.495   9.906 -0.3469  0.7441  0.0489
  105OSM    C9S10713   5.858   4.338   9.793  0.0631  0.1788  0.1087
  105OSM    H9S10714   5.789   4.261   9.832 -1.9206  2.2341  0.8940
  105OSM    H9T10715   5.958   4.290   9.789  0.2458  0.5986 -0.5469
  105OSM   C10S10716   5.813   4.369   9.647 -0.6747  0.2824  0.2277
  105OSM   H10S10717   5.710   4.410   9.654 -1.1519 -1.1003  1.9889
  105OSM   H10T10718   5.803   4.270   9.597 -1.4264  0.7578 -0.5834
  105OSM   C11S10719   5.900   4.465   9.565 -0.8643 -0.0884  0.2707
  105OSM   H11S10720   6.007   4.443   9.584 -0.3654  1.2863 -0.7723
  105OSM   H11T10721   5.891   4.571   9.599 -1.4917 -0.6583  2.0020
  105OSM   C12S10722   5.874   4.449   9.417 -0.2220 -0.1080 -0.1502
  105OSM   H12S10723   5.765   4.445   9.396 -0.4391 -1.6440  1.1039
  105OSM   H12T10724   5.907   4.349   9.384 -2.0202 -0.8290  0.1228
  105OSM   C13S10725   5.937   4.553   9.332  0.4126  0.1796 -0.0568
  105OSM   H13S10726   6.047   4.551   9.346  0.3979  1.2649  0.3108
  105OSM   H13T10727   5.900   4.657   9.345  2.0808  0.6422  1.3354
  105OSM   C14S10728   5.917   4.519   9.177 -0.5157 -0.3761  0.3957
  105OSM   H14S10729   5.810   4.532   9.152 -1.2625 -2.3315  2.2677
  105OSM   H14T10730   5.946   4.412   9.168  1.3706  0.0342  1.1021
  105OSM   C15S10731   5.992   4.613   9.076 -0.0868 -0.5170  0.1906
  105OSM   H15S10732   6.100   4.590   9.081  0.2763  1.0907  0.4217
  105OSM   H15T10733   5.973   4.719   9.104 -0.5057  0.3707 -3.0666
  105OSM   C16S10734   5.943   4.593   8.934  0.0088 -0.3540 -0.5058
  105OSM   H16S10735   5.840   4.633   8.929  0.3398  0.5487 -0.2340
  105OSM   H16T10736   5.938   4.486   8.903  1.6876 -0.7563  0.4689
  105OSM   C17S10737   6.038   4.660   8.840 -0.2889 -0.8511 -0.5892
  105OSM   H17S10738   5.986   4.658   8.742  0.3859  3.3011 -1.2125
  105OSM   H17T10739   6.134   4.605   8.827  0.3946 -0.1795  1.3186
  105OSM   C18S10740   6.068   4.809   8.877 -0.0305  0.2668 -0.0648
  105OSM   H18S10741   5.967   4.855   8.885 -1.2407 -2.0594 -1.1820
  105OSM   H18T10742   6.118   4.862   8.793  4.3434 -0.3911  1.8448
  105OSM   H18U10743   6.138   4.808   8.963  0.4769 -0.0721 -0.4809
  105OSM    C1F10744   5.985   3.902  10.447 -0.3252  0.0493  0.1979
  105OSM     OF10745   5.911   3.870  10.539  0.0108  0.0492 -0.6503
  105OSM    C2F10746   6.054   3.811  10.339 -0.0998  0.0057 -0.2070
  105OSM    H2F10747   6.084   3.717  10.390 -0.3705  0.0645  0.0687
  105OSM    H2G10748   6.152   3.859  10.321  0.2172 -0.1435  1.0320
  105OSM    C3F10749   5.984   3.794  10.205 -0.1030 -0.2984  0.0265
  105OSM    H3F10750   6.043   3.728  10.139 -1.0400 -0.5094 -0.6255
  105OSM    H3G10751   5.991   3.897  10.163  0.8324  0.7230  2.4918
  105OSM    C4F10752   5.835   3.770  10.215  0.1214 -0.3690  0.3465
  105OSM    H4F10753   5.785   3.851  10.272  2.2165  0.4439  1.1170
  105OSM    H4G10754   5.802   3.680  10.271 -1.3130  0.8017  1.4719
  105OSM    C5F10755   5.770   3.775  10.075  0.2429 -0.5606  0.3131
  105OSM    H5F10756   5.660   3.787  10.085  0.3863  1.6891 -0.4271
  105OSM    H5G10757   5.800   3.681  10.023 -0.3517 -0.0913 -0.9151
  105OSM    C6F10758   5.830   3.883   9.976 -0.3286  0.3142 -1.0732
  105OSM    H6F10759   5.939   3.865   9.961  0.3292  1.6371  1.5247
  105OSM    H6G10760   5.829   3.973  10.040  1.6285 -0.9819  0.9308
  105OSM    C7F10761   5.748   3.901   9.841 -0.3954  0.2477 -0.4312
  105OSM    H7F10762   5.772   4.004   9.805  2.1703  0.1527  0.7602
  105OSM    H7G10763   5.639   3.908   9.860 -0.6151 -2.0528 -0.6011
  105OSM    C8F10764   5.786   3.797   9.740 -0.0953  0.1043  0.4540
  105OSM    H8F10765   5.773   3.697   9.785  2.3013 -0.8111 -0.7576
  105OSM    H8G10766   5.895   3.804   9.720  0.0862  2.5985  1.8628
  105OSM    C9F10767   5.713   3.802   9.614 -0.4781 -0.4552  0.4860
  105OSM    H9F10768   5.607   3.772   9.617 -1.1679  1.5230 -1.4165
  105OSM   C10F10769   5.762   3.853   9.504  0.3036 -0.6165 -0.8608
  105OSM   H10F10770   5.701   3.852   9.412 -1.7777  0.1521  0.4448
  105OSM   C11F10771   5.898   3.921   9.495 -0.3546  0.6504  0.0849
  105OSM   H11F10772   5.984   3.853   9.479 -1.0630 -0.5673  1.2334
  105OSM   H11G10773   5.919   3.968   9.593 -0.5456  1.6477 -0.3437
  105OSM   C12F10774   5.903   4.035   9.393  0.0475 -0.6556 -0.2445
  105OSM   H12F10775   5.980   4.110   9.421 -1.3607  0.0606  2.0166
  105OSM   H12G10776   5.807   4.090   9.405  1.4791  2.1216 -0.5576
  105OSM   C13F10777   5.907   4.004   9.240  0.2029  0.0202 -0.7419
  105OSM   H13F10778   5.801   3.978   9.221 -0.8830  0.9670  3.1726
  105OSM   H13G10779   5.990   3.930   9.238  1.5210  1.2887  1.7901
  105OSM   C14F10780   5.922   4.125   9.140 -0.6335 -0.5287 -0.0114
  105OSM   H14F10781   6.013   4.178   9.174 -1.6332  1.0597  0.3385
  105OSM   H14G10782   5.841   4.199   9.161 -0.0285 -0.5250  2.5823
  105OSM   C15F10783   5.914   4.082   8.997  0.4391 -0.5519  0.1125
  105OSM   H15F10784   6.004   4.025   8.965 -0.0622 -0.9501 -0.6035
  105OSM   H15G10785   5.911   4.175   8.937  2.0091 -1.1547 -0.9680
  105OSM   C16F10786   5.794   3.992   8.958  0.3010 -0.4998 -0.6766
  105OSM   H16F10787   5.697   4.013   9.008  0.3308 -0.5639 -0.5917
  105OSM   H16G10788   5.819   3.888   8.989 -0.4425 -0.0463  1.6227
  105OSM   C17F10789   5.760   3.979   8.807 -0.1844 -0.5796 -0.1997
  105OSM   H17F10790   5.850   3.942   8.754 -0.1809  0.9067 -1.2885
  105OSM   H17G10791   5.732   4.078   8.764 -1.5554  0.2533  2.3994
  105OSM   C18F10792   5.645   3.882   8.781  0.6330 -0.1086  0.1666
  105OSM   H18F10793   5.619   3.883   8.673 -1.5836  0.7008  0.6596
  105OSM   H18G10794   5.554   3.914   8.836  0.3269 -0.9432  0.1482
  105OSM   H18H10795   5.680   3.782   8.813 -0.6426 -0.7837 -0.5161
  106OSM      N10796   0.740   1.247  11.005  0.3705  0.0408  0.4794
  106OSM    C1510797   0.601   1.179  11.017 -0.3891  0.1362 -0.4455
  106OSM   H15A10798   0.531   1.225  10.949  0.5084  1.3180 -0.6044
  106OSM   H15B10799   0.559   1.190  11.116  2.1555  0.7950  0.6181
  106OSM   H15C10800   0.607   1.072  11.000  0.2338 -0.3720  2.4433
  106OSM    C1410801   0.714   1.386  11.046 -0.3015  0.3333  0.6206
  106OSM   H14A10802   0.685   1.398  11.149  0.5290  3.3612  0.6028
  106OSM   H14B10803   0.640   1.439  10.988 -1.7602 -0.2406  1.8952
  106OSM   H14C10804   0.799   1.450  11.034  0.5622 -0.7996  0.5090
  106OSM    C1310805   0.832   1.175  11.098  0.0425  0.1671  0.0149
  106OSM   H13A10806   0.932   1.213  11.089 -0.2458  0.7656 -0.7995
  106OSM   H13B10807   0.847   1.074  11.063  1.3173 -0.3373  1.8995
  106OSM   H13C10808   0.788   1.184  11.196 -2.2005  2.9081 -1.1126
  106OSM    C1210809   0.787   1.238  10.858  0.6396 -0.5593  0.0053
  106OSM   H12A10810   0.702   1.256  10.794  0.1993 -0.3149  0.6427
  106OSM   H12B10811   0.805   1.133  10.840  0.9108 -0.5708  0.3324
  106OSM    C1110812   0.912   1.310  10.809  0.0606  0.4340 -0.4401
  106OSM   H11A10813   0.903   1.421  10.815  1.1667  0.6138 -1.5820
  106OSM   H11B10814   0.927   1.302  10.699  3.1185 -0.4051 -0.0567
  106OSM      P10815   1.136   1.163  10.856  0.9146  0.0844  0.4584
  106OSM    O1310816   1.262   1.201  10.920  0.0268  0.1162  0.3099
  106OSM    O1410817   1.088   1.027  10.893  0.2596 -0.1362 -0.2819
  106OSM    O1110818   1.143   1.170  10.696 -0.3982 -0.3226 -0.4680
  106OSM    O1210819   1.033   1.274  10.880  0.1365  0.2884  0.1369
  106OSM    C1S10820   1.216   1.280  10.640  0.0905  0.6260  0.1200
  106OSM    H1S10821   1.319   1.293  10.679  0.7747  1.0974 -1.7457
  106OSM    H1T10822   1.149   1.365  10.662 -1.9156 -0.9190  0.2738
  106OSM     NF10823   1.316   1.376  10.436  0.4400  0.0646 -0.1587
  106OSM    HNF10824   1.264   1.457  10.410  1.2703  0.7664  0.3590
  106OSM    C2S10825   1.236   1.269  10.479  0.1539 -0.3926  0.1078
  106OSM    H2S10826   1.283   1.169  10.467 -0.6714 -0.9175  1.0636
  106OSM    C3S10827   1.097   1.262  10.418 -0.9550 -0.4145  0.7425
  106OSM    H3S10828   1.041   1.357  10.432  0.5685  0.9459 -1.6592
  106OSM     O310829   1.012   1.162  10.474  0.2317  0.0378 -0.2602
  106OSM    HO310830   1.062   1.131  10.550 -1.1067 -0.7251  0.3485
  106OSM    C4S10831   1.102   1.247  10.264  0.2255 -0.3149  0.0742
  106OSM    H4S10832   1.163   1.161  10.232  1.9944  0.4026  1.3184
  106OSM    C5S10833   1.031   1.332  10.182  0.1653  0.1926  0.1572
  106OSM    H5S10834   0.977   1.416  10.228 -0.6049 -1.1582  1.8423
  106OSM    C6S10835   1.028   1.336  10.031 -0.0442 -0.5381 -0.2368
  106OSM    H6S10836   1.032   1.444  10.001 -0.8141 -0.3176  0.4233
  106OSM    H6T10837   0.933   1.315   9.978  0.8097  1.4783 -2.8797
  106OSM    C7S10838   1.127   1.238   9.968  0.0221  0.1799 -0.5859
  106OSM    H7S10839   1.092   1.138  10.003 -1.1069  0.6717 -0.2841
  106OSM    H7T10840   1.234   1.252   9.996  0.6779 -1.1421 -2.2127
  106OSM    C8S10841   1.114   1.223   9.811 -0.6507 -0.7814  0.2115
  106OSM    H8S10842   1.031   1.153   9.786  0.7601 -1.8133 -1.8044
  106OSM    H8T10843   1.211   1.184   9.774 -0.4816  0.9098 -1.2621
  106OSM    C9S10844   1.094   1.346   9.723  0.0516 -0.3711  0.1618
  106OSM    H9S10845   1.178   1.418   9.725  0.1549 -0.4917  2.1407
  106OSM    H9T10846   1.005   1.403   9.757 -0.1979 -0.9383  0.4709
  106OSM   C10S10847   1.077   1.324   9.570  0.2453  0.3868 -0.0967
  106OSM   H10S10848   0.978   1.272   9.566  0.7622 -0.8594  1.7192
  106OSM   H10T10849   1.151   1.254   9.526 -2.8541 -4.1197  1.1497
  106OSM   C11S10850   1.070   1.459   9.496 -0.2171 -0.0571 -0.6447
  106OSM   H11S10851   1.158   1.523   9.522 -0.0139 -0.2922 -0.7505
  106OSM   H11T10852   0.978   1.510   9.531 -0.0993 -2.2419  3.4055
  106OSM   C12S10853   1.059   1.432   9.341  0.0129  0.2170 -0.4656
  106OSM   H12S10854   0.964   1.374   9.334  0.2750 -0.1873 -0.6652
  106OSM   H12T10855   1.138   1.371   9.293 -0.2377  0.8313 -1.6805
  106OSM   C13S10856   1.042   1.561   9.264 -0.4565  0.2371 -0.2551
  106OSM   H13S10857   1.130   1.628   9.269 -0.1463 -0.1584 -0.3699
  106OSM   H13T10858   0.953   1.620   9.295 -0.4314 -0.4142  1.1400
  106OSM   C14S10859   1.023   1.544   9.113  0.3348  0.2741 -0.7385
  106OSM   H14S10860   1.024   1.645   9.066 -0.0275  1.2775  1.2877
  106OSM   H14T10861   0.929   1.486   9.100  0.3371 -0.7593  2.7126
  106OSM   C15S10862   1.147   1.474   9.046  0.5302  0.6036  0.2442
  106OSM   H15S10863   1.134   1.365   9.065 -1.8334  0.8353  0.2181
  106OSM   H15T10864   1.241   1.512   9.092  1.6667 -0.7521 -0.8297
  106OSM   C16S10865   1.152   1.499   8.891 -1.1605 -0.1580  0.0522
  106OSM   H16S10866   1.220   1.426   8.842 -1.2318 -0.7524  0.8150
  106OSM   H16T10867   1.189   1.603   8.898 -0.7951 -0.4001  2.8960
  106OSM   C17S10868   1.030   1.508   8.809  0.0639  0.2833 -0.3738
  106OSM   H17S10869   0.966   1.597   8.825  0.0741  0.3847 -0.8805
  106OSM   H17T10870   0.970   1.418   8.835  0.7995  0.2440  1.3324
  106OSM   C18S10871   1.045   1.495   8.654  0.1384  0.1671 -0.3183
  106OSM   H18S10872   0.950   1.483   8.597 -1.0217 -1.6275  1.8580
  106OSM   H18T10873   1.113   1.416   8.617 -1.9188 -0.8175 -2.2290
  106OSM   H18U10874   1.104   1.585   8.627  0.6539  0.3222  1.2252
  106OSM    C1F10875   1.451   1.379  10.447  0.0700  0.1941  0.2374
  106OSM     OF10876   1.519   1.282  10.484  0.3286 -0.3973 -0.2057
  106OSM    C2F10877   1.517   1.510  10.420 -0.0161 -0.4913 -0.3462
  106OSM    H2F10878   1.584   1.543  10.502 -0.2002  2.5967 -1.3333
  106OSM    H2G10879   1.447   1.593  10.397 -1.3789 -1.4265  0.2529
  106OSM    C3F10880   1.615   1.495  10.299  0.4329  0.5948 -0.0084
  106OSM    H3F10881   1.565   1.440  10.216 -0.7364  0.0721  1.0060
  106OSM    H3G10882   1.700   1.429  10.330 -1.1139 -0.2100  2.8559
  106OSM    C4F10883   1.674   1.632  10.248  0.0424 -0.2154 -0.1885
  106OSM    H4F10884   1.724   1.673  10.339  0.1222  0.8523 -0.6951
  106OSM    H4G10885   1.593   1.703  10.219  0.3836  0.3885  0.3039
  106OSM    C5F10886   1.772   1.597  10.132  0.4891 -0.3314 -0.0947
  106OSM    H5F10887   1.811   1.493  10.139  2.6503  0.4511  0.0174
  106OSM    H5G10888   1.857   1.668  10.139 -1.1004  1.6409  0.2222
  106OSM    C6F10889   1.691   1.609   9.999  0.7094 -0.3823 -0.0984
  106OSM    H6F10890   1.641   1.707   9.982  0.2881 -0.6251 -0.2816
  106OSM    H6G10891   1.611   1.533  10.001 -1.0779  1.4195  1.4934
  106OSM    C7F10892   1.787   1.593   9.885  0.4394 -0.3220  0.6419
  106OSM    H7F10893   1.837   1.494   9.885 -0.0579 -0.5952 -0.5783
  106OSM    H7G10894   1.865   1.672   9.890  0.8928 -0.7369  0.2184
  106OSM    C8F10895   1.712   1.616   9.753  0.4338  0.2078  0.5318
  106OSM    H8F10896   1.671   1.719   9.745 -1.0888 -0.5034 -2.0248
  106OSM    H8G10897   1.628   1.546   9.737  2.1721 -1.5907 -1.3300
  106OSM    C9F10898   1.794   1.586   9.632  0.3538 -0.1448  0.0078
  106OSM    H9F10899   1.897   1.554   9.653  0.2229 -0.1463  0.6469
  106OSM   C10F10900   1.762   1.621   9.507 -0.2165 -0.0418 -0.1598
  106OSM   H10F10901   1.836   1.595   9.429  1.1313 -0.3030  1.1706
  106OSM   C11F10902   1.637   1.679   9.460  0.1070  0.0527 -0.1902
  106OSM   H11F10903   1.635   1.786   9.491 -0.0963 -0.0953  0.3340
  106OSM   H11G10904   1.552   1.642   9.523 -0.0861  1.0473  0.1451
  106OSM   C12F10905   1.611   1.645   9.308  0.2980 -0.7787 -0.6326
  106OSM   H12F10906   1.510   1.686   9.283  0.7025  0.1232 -0.8387
  106OSM   H12G10907   1.594   1.536   9.291 -2.8793 -0.3505 -0.8911
  106OSM   C13F10908   1.716   1.703   9.208  0.5945  0.6679 -0.2401
  106OSM   H13F10909   1.800   1.631   9.215  1.7104  2.0602  2.4237
  106OSM   H13G10910   1.760   1.799   9.243  0.3172  0.3986  0.8904
  106OSM   C14F10911   1.652   1.716   9.073  0.2522 -0.3304  0.5462
  106OSM   H14F10912   1.583   1.802   9.083  0.8291  0.1587  0.3258
  106OSM   H14G10913   1.594   1.622   9.053  0.9278 -0.9291  1.3414
  106OSM   C15F10914   1.764   1.758   8.970  0.0275  0.7947 -0.0167
  106OSM   H15F10915   1.828   1.669   8.952 -2.2248 -0.9641  0.2276
  106OSM   H15G10916   1.815   1.844   9.018 -1.6636  1.7146  0.2246
  106OSM   C16F10917   1.697   1.802   8.834  0.4349 -0.6611 -0.1512
  106OSM   H16F10918   1.618   1.730   8.803  0.4560 -1.8968  2.3542
  106OSM   H16G10919   1.776   1.810   8.757  0.5465  0.3119  0.0505
  106OSM   C17F10920   1.619   1.938   8.854 -0.0093  0.3295  1.1620
  106OSM   H17F10921   1.697   2.012   8.882  0.7278 -0.5091  1.3955
  106OSM   H17G10922   1.540   1.933   8.931 -1.0676  1.0883  0.1617
  106OSM   C18F10923   1.545   1.992   8.729  0.3516  0.4243 -0.5685
  106OSM   H18F10924   1.620   2.011   8.649  0.3241 -0.1001 -0.7228
  106OSM   H18G10925   1.502   2.091   8.756  1.1368  0.2382  1.5766
  106OSM   H18H10926   1.464   1.919   8.710 -0.0457  0.6553  0.1926
  107OSM      N10927   2.065   5.332  11.489  0.1688  0.4627 -0.3525
  107OSM    C1510928   2.030   5.210  11.408  0.2404  1.1547 -0.6212
  107OSM   H15A10929   2.027   5.130  11.481 -0.7045  2.4855  0.8370
  107OSM   H15B10930   2.093   5.203  11.321  0.2278 -1.4461 -0.4930
  107OSM   H15C10931   1.933   5.229  11.367 -0.1265  2.2349  0.6954
  107OSM    C1410932   1.981   5.351  11.609  0.6531 -0.1842  0.4183
  107OSM   H14A10933   1.881   5.370  11.572 -0.1417 -0.9858  2.0626
  107OSM   H14B10934   1.993   5.429  11.683  1.5131 -0.6107  0.7403
  107OSM   H14C10935   1.980   5.262  11.670  0.3393 -0.5783 -0.1498
  107OSM    C1310936   2.208   5.312  11.532  0.0591 -0.4610 -0.4261
  107OSM   H13A10937   2.216   5.208  11.560  0.7359  0.0038  1.2033
  107OSM   H13B10938   2.234   5.371  11.619  0.7284 -0.3269 -0.7132
  107OSM   H13C10939   2.264   5.338  11.444  0.5368  0.0199  0.0099
  107OSM    C1210940   2.047   5.461  11.412 -0.6483  0.9785 -0.0561
  107OSM   H12A10941   2.081   5.543  11.474 -0.9468 -0.0064  1.4494
  107OSM   H12B10942   1.943   5.484  11.394 -1.3786 -3.3591 -2.7673
  107OSM    C1110943   2.122   5.467  11.276 -0.0860 -0.2608  0.4419
  107OSM   H11A10944   2.207   5.394  11.282 -0.0739 -0.1498  1.7140
  107OSM   H11B10945   2.170   5.567  11.270  0.9810 -0.7194  0.9202
  107OSM      P10946   1.914   5.525  11.109  0.2380 -0.0979 -0.2652
  107OSM    O1310947   1.818   5.451  11.026 -0.1492 -0.0672 -0.3630
  107OSM    O1410948   1.854   5.597  11.224  0.6099  0.1218 -0.6047
  107OSM    O1110949   1.995   5.624  11.018 -0.3511 -0.0033 -0.3320
  107OSM    O1210950   2.034   5.431  11.169  0.7944 -0.6786  0.0842
  107OSM    C1S10951   2.088   5.575  10.921 -0.5272 -1.0240 -0.2852
  107OSM    H1S10952   2.049   5.491  10.859 -1.5278  0.5383 -1.8874
  107OSM    H1T10953   2.182   5.534  10.963  0.5577 -0.0976 -1.7143
  107OSM     NF10954   2.202   5.639  10.715 -0.1194  0.1004 -0.4583
  107OSM    HNF10955   2.302   5.644  10.716 -0.0883 -0.4470 -0.3044
  107OSM    C2S10956   2.141   5.686  10.838 -0.0629 -0.2586  0.0900
  107OSM    H2S10957   2.061   5.754  10.801 -1.6990 -1.5568  1.1314
  107OSM    C3S10958   2.230   5.784  10.928  0.2222  0.4702 -0.6861
  107OSM    H3S10959   2.331   5.737  10.940  0.1929  0.3193 -1.0226
  107OSM     O310960   2.176   5.801  11.057 -0.1164  0.3446 -0.3850
  107OSM    HO310961   2.105   5.736  11.056  0.5150 -0.3666 -1.8849
  107OSM    C4S10962   2.254   5.911  10.849  0.0259  0.2597 -0.7767
  107OSM    H4S10963   2.348   5.898  10.792 -0.6100  2.7574 -2.5575
  107OSM    C5S10964   2.191   6.027  10.856  0.3657  0.1220  0.8944
  107OSM    H5S10965   2.118   6.045  10.936 -1.4534 -0.9655 -0.4350
  107OSM    C6S10966   2.233   6.153  10.774 -0.0221  0.3894  0.2631
  107OSM    H6S10967   2.244   6.239  10.844  0.0398  2.6808 -2.3403
  107OSM    H6T10968   2.142   6.176  10.714 -0.0459  1.1583  0.5756
  107OSM    C7S10969   2.354   6.145  10.677 -0.5039  0.7762  0.3925
  107OSM    H7S10970   2.442   6.107  10.735  0.0876  1.9095  0.2517
  107OSM    H7T10971   2.381   6.243  10.635  1.7339  0.2828  0.5370
  107OSM    C8S10972   2.338   6.052  10.552  0.2758  0.1255  0.3093
  107OSM    H8S10973   2.267   6.105  10.485  2.3401  0.0065 -2.1236
  107OSM    H8T10974   2.291   5.966  10.604  0.9055 -0.9068 -0.7756
  107OSM    C9S10975   2.471   6.007  10.496  0.2243 -0.6778 -0.6254
  107OSM    H9S10976   2.533   5.963  10.577  1.2892  1.4386 -0.2340
  107OSM    H9T10977   2.532   6.092  10.459 -0.5194 -0.1905 -0.7379
  107OSM   C10S10978   2.453   5.919  10.373  0.3515  0.6694  0.3234
  107OSM   H10S10979   2.400   5.823  10.386  0.2782  0.6671  0.0260
  107OSM   H10T10980   2.555   5.897  10.333 -1.0807 -2.5926 -1.9345
  107OSM   C11S10981   2.389   5.984  10.246 -0.2135  0.3560 -0.0403
  107OSM   H11S10982   2.439   6.083  10.233  0.8152  0.5195  3.7415
  107OSM   H11T10983   2.287   6.013  10.281 -1.4203 -1.5323 -1.7821
  107OSM   C12S10984   2.385   5.904  10.116 -0.3389 -0.0253 -0.4080
  107OSM   H12S10985   2.320   5.818  10.141  0.3831  0.2713  2.8836
  107OSM   H12T10986   2.485   5.860  10.097 -0.8970 -0.7738 -1.8001
  107OSM   C13S10987   2.323   5.979  10.000  0.0509  0.1444  0.9328
  107OSM   H13S10988   2.394   6.061   9.975  1.1209 -1.3560 -1.2818
  107OSM   H13T10989   2.229   6.025  10.036  0.0226  1.9798 -1.2858
  107OSM   C14S10990   2.301   5.909   9.866  0.4385  0.0743 -0.4092
  107OSM   H14S10991   2.217   5.837   9.875 -1.5756  2.1815 -1.6346
  107OSM   H14T10992   2.396   5.856   9.840  2.3807  3.3597 -0.5641
  107OSM   C15S10993   2.274   5.997   9.740 -0.0756 -0.1369  0.6239
  107OSM   H15S10994   2.194   6.074   9.751 -0.4835 -0.4050 -0.3654
  107OSM   H15T10995   2.234   5.931   9.660  0.3527  1.1274 -0.6691
  107OSM   C16S10996   2.406   6.046   9.680  0.6458 -0.2851  0.0369
  107OSM   H16S10997   2.465   5.953   9.661  0.2632 -0.5521  0.1526
  107OSM   H16T10998   2.471   6.107   9.747  0.5768  0.7360 -0.8026
  107OSM   C17S10999   2.372   6.115   9.548 -0.1180  0.6623 -0.7408
  107OSM   H17S11000   2.323   6.044   9.478 -0.2155  0.2336 -0.2470
  107OSM   H17T11001   2.464   6.134   9.488  0.7586 -1.3155 -0.0917
  107OSM   C18S11002   2.274   6.233   9.559  0.5368 -0.2680  0.6649
  107OSM   H18S11003   2.179   6.201   9.607  0.1512 -1.4074 -0.7850
  107OSM   H18T11004   2.249   6.261   9.455  0.9404 -2.0395  0.0463
  107OSM   H18U11005   2.325   6.320   9.606 -1.4782  1.4917 -0.2639
  107OSM    C1F11006   2.140   5.576  10.617 -0.3844 -0.0432 -0.1464
  107OSM     OF11007   2.016   5.563  10.616 -0.0105 -0.6545 -0.7098
  107OSM    C2F11008   2.228   5.524  10.510 -0.0390  0.4669  0.9259
  107OSM    H2F11009   2.298   5.454  10.559 -0.9329 -0.7721  0.5090
  107OSM    H2G11010   2.294   5.603  10.469 -2.0347  1.5424 -0.3721
  107OSM    C3F11011   2.160   5.457  10.383  0.3658  0.4416 -0.1690
  107OSM    H3F11012   2.087   5.526  10.336 -1.3577 -0.5291  0.9914
  107OSM    H3G11013   2.097   5.376  10.424 -0.7138 -0.1742 -2.8717
  107OSM    C4F11014   2.257   5.411  10.277 -0.1586  0.2105 -0.7761
  107OSM    H4F11015   2.192   5.357  10.204 -0.2515 -1.4264  0.4541
  107OSM    H4G11016   2.329   5.338  10.320 -0.4060  0.2921 -0.2246
  107OSM    C5F11017   2.332   5.522  10.205 -0.3451 -0.2199 -0.3276
  107OSM    H5F11018   2.411   5.565  10.272 -0.3071 -1.0843  0.2008
  107OSM    H5G11019   2.270   5.610  10.181 -0.9401 -0.2902  0.8679
  107OSM    C6F11020   2.400   5.465  10.080  0.4095  0.4292  0.5765
  107OSM    H6F11021   2.449   5.369  10.105 -0.7129 -0.7853 -1.5926
  107OSM    H6G11022   2.492   5.520  10.048 -0.4333  1.2654 -0.5119
  107OSM    C7F11023   2.304   5.448   9.959  0.3361  0.4106  0.1703
  107OSM    H7F11024   2.254   5.543   9.931 -1.0638 -0.5984 -0.9196
  107OSM    H7G11025   2.225   5.373   9.981  0.4768  0.5613  1.2348
  107OSM    C8F11026   2.386   5.402   9.831 -0.0714  0.3362 -0.1623
  107OSM    H8F11027   2.317   5.360   9.754 -1.1129  1.0651  0.3427
  107OSM    H8G11028   2.449   5.315   9.861 -2.5009 -0.1472  4.4768
  107OSM    C9F11029   2.461   5.524   9.784 -0.5889 -0.5944  0.5115
  107OSM    H9F11030   2.530   5.573   9.855 -2.5039  0.0475  2.0126
  107OSM   C10F11031   2.438   5.579   9.660  0.1737  0.5181 -0.3990
  107OSM   H10F11032   2.488   5.672   9.629  0.5924  0.1889 -0.7219
  107OSM   C11F11033   2.338   5.535   9.557  0.9018 -0.7635  0.4350
  107OSM   H11F11034   2.233   5.567   9.575  0.6594 -0.3064 -1.5551
  107OSM   H11G11035   2.321   5.425   9.560  1.3349 -0.8643 -0.4002
  107OSM   C12F11036   2.395   5.578   9.418  0.5082  0.5469  0.0214
  107OSM   H12F11037   2.495   5.535   9.397 -0.7399 -2.3018 -0.6499
  107OSM   H12G11038   2.402   5.688   9.417  1.0682  0.5171  0.5193
  107OSM   C13F11039   2.309   5.537   9.293  0.0993  0.4814 -0.1546
  107OSM   H13F11040   2.212   5.591   9.296 -1.0742 -1.4973 -0.6564
  107OSM   H13G11041   2.288   5.428   9.299  2.4269  0.0358  1.0602
  107OSM   C14F11042   2.379   5.568   9.162  0.8699  0.0037 -0.5030
  107OSM   H14F11043   2.487   5.542   9.159  1.1873  0.8979  1.4357
  107OSM   H14G11044   2.370   5.678   9.148 -0.2824 -0.0254 -0.1577
  107OSM   C15F11045   2.309   5.495   9.048 -0.2910  0.6192  0.6225
  107OSM   H15F11046   2.198   5.506   9.048 -0.4803 -1.0062  1.0498
  107OSM   H15G11047   2.328   5.385   9.045 -2.6211  0.1340  1.0347
  107OSM   C16F11048   2.364   5.549   8.915  0.4776  0.3096  0.0518
  107OSM   H16F11049   2.474   5.530   8.910  0.8970  2.3319  0.3871
  107OSM   H16G11050   2.346   5.658   8.899  1.6373  0.5492  0.2546
  107OSM   C17F11051   2.299   5.481   8.795 -0.1238 -0.2060 -0.9331
  107OSM   H17F11052   2.344   5.524   8.703  1.3365  0.4881  0.0572
  107OSM   H17G11053   2.189   5.499   8.794 -0.0523  0.4514 -3.3255
  107OSM   C18F11054   2.316   5.330   8.781 -0.6906  0.4801 -0.2925
  107OSM   H18F11055   2.425   5.317   8.765 -0.8411 -2.8705  0.6629
  107OSM   H18G11056   2.248   5.287   8.705  0.2789  0.4593 -1.1751
  107OSM   H18H11057   2.286   5.282   8.877  0.8487  2.4013  1.2378
  108OSM      N11058   4.988   4.483  11.215  0.3544 -0.5414 -0.1750
  108OSM    C1511059   4.928   4.562  11.101 -0.4022 -0.6742  0.4016
  108OSM   H15A11060   4.853   4.630  11.141 -1.7435 -2.4880  1.1306
  108OSM   H15B11061   4.889   4.498  11.024  0.2408 -1.1474  0.4671
  108OSM   H15C11062   5.010   4.613  11.053 -1.2586 -0.1651 -0.5693
  108OSM    C1411063   5.005   4.578  11.339 -0.0037  0.0869  0.0326
  108OSM   H14A11064   5.067   4.660  11.306 -0.0220  0.7764  1.6176
  108OSM   H14B11065   5.058   4.518  11.412 -1.4259 -0.6952  0.4556
  108OSM   H14C11066   4.909   4.610  11.376 -0.1163 -0.1158 -0.0770
  108OSM    C1311067   4.892   4.377  11.269  0.0395  1.0480 -0.2739
  108OSM   H13A11068   4.872   4.298  11.198  0.2797  0.6463  0.1096
  108OSM   H13B11069   4.794   4.422  11.284 -0.3710  0.5460 -1.3370
  108OSM   H13C11070   4.926   4.348  11.367  0.3602  1.3175 -0.3025
  108OSM    C1211071   5.118   4.426  11.168  0.1950 -0.3748  0.2529
  108OSM   H12A11072   5.106   4.360  11.084 -0.3683  0.6247 -0.4690
  108OSM   H12B11073   5.165   4.363  11.243  0.8736  0.1312  0.2600
  108OSM    C1111074   5.238   4.519  11.130 -0.1808  0.2409 -0.4885
  108OSM   H11A11075   5.316   4.453  11.087 -0.2804 -0.0781 -0.1865
  108OSM   H11B11076   5.273   4.562  11.226 -1.1021 -1.4263  0.6448
  108OSM      P11077   5.259   4.634  10.896 -0.2005  0.4471  0.2708
  108OSM    O1311078   5.156   4.704  10.815  0.3038 -0.0646 -0.6253
  108OSM    O1411079   5.401   4.692  10.902  0.0500  0.4284 -0.3516
  108OSM    O1111080   5.260   4.488  10.835 -0.2123  0.1960  0.0892
  108OSM    O1211081   5.203   4.618  11.040  0.1097 -0.5155 -1.0334
  108OSM    C1S11082   5.144   4.417  10.800 -0.2808  0.4151 -0.6540
  108OSM    H1S11083   5.054   4.443  10.860 -0.6149 -0.4581 -0.7631
  108OSM    H1T11084   5.169   4.310  10.817 -0.7840  0.4059  0.0926
  108OSM     NF11085   4.978   4.352  10.632 -0.1507  0.5900 -0.1644
  108OSM    HNF11086   4.996   4.258  10.603  2.6522  0.8816  0.3026
  108OSM    C2S11087   5.095   4.437  10.655 -0.6095  0.7678  0.3944
  108OSM    H2S11088   5.064   4.543  10.648  3.3753  2.1225  0.8062
  108OSM    C3S11089   5.214   4.413  10.556  0.0790 -0.4190  0.3213
  108OSM    H3S11090   5.247   4.307  10.552  2.7980  0.3748 -1.1821
  108OSM     O311091   5.330   4.489  10.587  0.3231 -0.4265  0.4775
  108OSM    HO311092   5.320   4.496  10.682  0.9537 -1.4613  0.6379
  108OSM    C4S11093   5.159   4.439  10.415 -0.6625  0.4486 -0.4518
  108OSM    H4S11094   5.071   4.381  10.382 -0.1520 -0.8839  0.4565
  108OSM    C5S11095   5.192   4.540  10.332  0.4407  0.2001 -0.0343
  108OSM    H5S11096   5.265   4.619  10.353 -2.0984  3.0789 -1.3729
  108OSM    C6S11097   5.130   4.562  10.196 -0.6642  0.0023  0.2517
  108OSM    H6S11098   5.209   4.547  10.120  0.4022  1.5082  1.0164
  108OSM    H6T11099   5.097   4.668  10.192  0.3878  0.3068 -1.3445
  108OSM    C7S11100   5.013   4.474  10.150  0.7915  0.0378  0.5365
  108OSM    H7S11101   4.941   4.487  10.233  2.2085  0.5012  1.7313
  108OSM    H7T11102   5.053   4.371  10.142  2.1613  0.6844 -2.2599
  108OSM    C8S11103   4.945   4.533  10.024  0.3699  0.1875  0.0195
  108OSM    H8S11104   4.915   4.637  10.050  1.1231  0.1079  1.2939
  108OSM    H8T11105   4.847   4.483  10.012  0.2931  0.6216 -1.2610
  108OSM    C9S11106   5.010   4.517   9.893  0.2640 -0.1740  0.4940
  108OSM    H9S11107   5.026   4.408   9.876  1.8579 -0.0563  1.0520
  108OSM    H9T11108   5.113   4.558   9.887  0.2816 -0.2019  0.6126
  108OSM   C10S11109   4.936   4.577   9.779  0.1625 -0.0077 -0.1564
  108OSM   H10S11110   4.933   4.688   9.786 -1.4543 -0.0011 -0.4740
  108OSM   H10T11111   4.831   4.545   9.796  0.1386  0.1349 -0.0387
  108OSM   C11S11112   4.990   4.536   9.641 -0.4559 -0.7653  1.0684
  108OSM   H11S11113   4.995   4.426   9.628 -1.8227 -0.6012 -1.3569
  108OSM   H11T11114   5.095   4.572   9.631 -0.8904  0.0433 -1.0950
  108OSM   C12S11115   4.900   4.594   9.526 -0.7339 -0.3410 -0.0952
  108OSM   H12S11116   4.880   4.703   9.528 -0.0981 -0.1772 -1.3820
  108OSM   H12T11117   4.802   4.542   9.516  0.3313 -2.6181  0.5269
  108OSM   C13S11118   4.966   4.576   9.388 -0.0496 -0.7426 -0.2268
  108OSM   H13S11119   4.992   4.470   9.370  2.3742 -0.3164  0.3142
  108OSM   H13T11120   5.058   4.639   9.392 -1.8110  2.0453 -0.5965
  108OSM   C14S11121   4.887   4.628   9.265  0.1431 -0.6812  0.1389
  108OSM   H14S11122   4.884   4.738   9.275  1.2198 -0.8439  3.7802
  108OSM   H14T11123   4.783   4.590   9.275  0.3636 -1.0591  1.0943
  108OSM   C15S11124   4.945   4.593   9.136 -0.1191 -0.6082  0.5132
  108OSM   H15S11125   4.971   4.486   9.126 -2.9860 -1.3920  0.6526
  108OSM   H15T11126   5.044   4.631   9.103  0.7429 -1.1393  2.3399
  108OSM   C16S11127   4.850   4.622   9.017  0.5111  0.0231 -0.0147
  108OSM   H16S11128   4.827   4.730   9.022 -0.9033 -0.2280 -0.5926
  108OSM   H16T11129   4.752   4.570   9.030  1.0112 -0.7002  1.0365
  108OSM   C17S11130   4.889   4.572   8.879  0.6859  0.4839 -0.6348
  108OSM   H17S11131   4.856   4.466   8.870  0.2419  0.7081 -1.8931
  108OSM   H17T11132   4.999   4.578   8.868  1.1069 -1.6547  1.5717
  108OSM   C18S11133   4.822   4.658   8.771 -0.4523 -0.0935 -0.3126
  108OSM   H18S11134   4.852   4.611   8.674  2.5904 -1.0239  0.9433
  108OSM   H18T11135   4.853   4.764   8.763 -2.5630  0.5791  0.0732
  108OSM   H18U11136   4.712   4.655   8.779 -0.6040 -1.7580 -2.0979
  108OSM    C1F11137   4.856   4.377  10.680  0.5776  0.5072 -0.0883
  108OSM     OF11138   4.838   4.475  10.750  0.0223 -0.9970 -0.4945
  108OSM    C2F11139   4.748   4.272  10.666 -0.5800 -0.1891 -0.3906
  108OSM    H2F11140   4.691   4.268  10.761  1.1241 -1.5751  0.6139
  108OSM    H2G11141   4.791   4.172  10.642 -1.4459 -0.7551  0.3856
  108OSM    C3F11142   4.642   4.303  10.558 -0.7598 -0.2517  0.2030
  108OSM    H3F11143   4.583   4.395  10.577  1.1196  1.3196 -1.1138
  108OSM    H3G11144   4.579   4.212  10.563 -0.8827 -0.1653  0.2222
  108OSM    C4F11145   4.690   4.308  10.412  0.1002 -0.2392  0.6127
  108OSM    H4F11146   4.752   4.218  10.398 -0.2707 -0.5274  0.7893
  108OSM    H4G11147   4.756   4.397  10.405 -0.9280  0.4666 -0.4732
  108OSM    C5F11148   4.569   4.315  10.319  0.2083  0.7961  0.0507
  108OSM    H5F11149   4.533   4.418  10.338  1.2940  0.9523  1.4467
  108OSM    H5G11150   4.498   4.237  10.352  0.1539  0.7891 -0.0850
  108OSM    C6F11151   4.602   4.297  10.167 -0.3020 -0.0525 -0.6823
  108OSM    H6F11152   4.640   4.195  10.144  1.0443  0.6755 -1.7546
  108OSM    H6G11153   4.678   4.371  10.136 -1.2569  0.1105 -2.8370
  108OSM    C7F11154   4.480   4.326  10.077  0.8233 -0.1450 -0.2112
  108OSM    H7F11155   4.452   4.434  10.074 -0.1287 -0.3996 -1.2474
  108OSM    H7G11156   4.387   4.281  10.116  1.4246 -1.2269  0.0270
  108OSM    C8F11157   4.501   4.273   9.924 -0.6480 -1.1258  0.3103
  108OSM    H8F11158   4.405   4.254   9.871 -0.6383  1.2487 -0.6572
  108OSM    H8G11159   4.542   4.170   9.933 -2.1269 -1.8896 -1.1823
  108OSM    C9F11160   4.595   4.366   9.846  0.2887  0.6348  0.3228
  108OSM    H9F11161   4.689   4.386   9.900 -1.0447  0.7575  2.7401
  108OSM   C10F11162   4.573   4.435   9.733  0.0384  0.2892  0.1881
  108OSM   H10F11163   4.650   4.505   9.698 -1.2128  0.7762 -1.7907
  108OSM   C11F11164   4.449   4.441   9.647 -0.2675 -0.2729  0.3066
  108OSM   H11F11165   4.427   4.550   9.640 -2.4097 -0.6918 -0.0059
  108OSM   H11G11166   4.368   4.380   9.692  1.1440 -1.2622  1.6155
  108OSM   C12F11167   4.486   4.390   9.502 -0.5556 -0.1565  0.5681
  108OSM   H12F11168   4.577   4.439   9.462  0.0992 -1.4564  0.4070
  108OSM   H12G11169   4.404   4.420   9.433 -0.6429 -0.2359  0.6368
  108OSM   C13F11170   4.508   4.241   9.499  1.1807 -0.0211  0.7380
  108OSM   H13F11171   4.425   4.197   9.559  0.7786 -0.6746 -0.2726
  108OSM   H13G11172   4.603   4.219   9.552  1.3102 -0.3628  0.3684
  108OSM   C14F11173   4.483   4.171   9.364 -0.1509  0.5336 -0.6062
  108OSM   H14F11174   4.381   4.183   9.321  0.1826 -1.5205 -2.0716
  108OSM   H14G11175   4.507   4.063   9.369  2.0101  1.0251  0.7732
  108OSM   C15F11176   4.581   4.214   9.252 -0.0495  0.5624  0.7488
  108OSM   H15F11177   4.684   4.214   9.293  0.1148  3.8358  0.6512
  108OSM   H15G11178   4.555   4.318   9.220  1.6706  0.8821  0.2908
  108OSM   C16F11179   4.580   4.125   9.130 -0.4584 -0.1579 -1.2101
  108OSM   H16F11180   4.475   4.095   9.107 -0.7851  0.8084 -1.0239
  108OSM   H16G11181   4.629   4.027   9.145 -1.1522 -0.6752 -2.1640
  108OSM   C17F11182   4.643   4.192   9.016 -0.5705  0.2935  0.3104
  108OSM   H17F11183   4.753   4.183   9.030 -0.8181 -1.4035  1.5057
  108OSM   H17G11184   4.624   4.301   9.003 -1.2277  0.1395 -0.0531
  108OSM   C18F11185   4.618   4.126   8.872 -0.4400 -0.3948 -0.7280
  108OSM   H18F11186   4.510   4.127   8.848 -0.7497  1.8636  0.4976
  108OSM   H18G11187   4.656   4.022   8.867  1.2008 -0.0386  2.1247
  108OSM   H18H11188   4.669   4.183   8.791 -1.6597  1.6681 -0.1359
  109OSM      N11189   0.698   4.376  11.001  0.2079  0.2351 -1.3171
  109OSM    C1511190   0.697   4.230  11.050 -0.2650 -0.8979  0.2590
  109OSM   H15A11191   0.731   4.220  11.152 -3.3399 -1.3816  1.3302
  109OSM   H15B11192   0.761   4.184  10.976  3.0654  1.6364  1.3153
  109OSM   H15C11193   0.599   4.187  11.041 -0.5821  0.1198 -1.7461
  109OSM    C1411194   0.603   4.439  11.091 -0.1690 -0.1324 -0.1377
  109OSM   H14A11195   0.508   4.394  11.067  1.3186 -2.8135 -1.3275
  109OSM   H14B11196   0.589   4.545  11.074 -1.8826 -0.3173 -0.1056
  109OSM   H14C11197   0.617   4.415  11.195 -0.2090 -1.0957 -0.3491
  109OSM    C1311198   0.830   4.446  11.022 -0.4773 -0.6091 -0.4470
  109OSM   H13A11199   0.839   4.471  11.127  0.0707  1.8010 -0.9994
  109OSM   H13B11200   0.836   4.532  10.956 -2.8401 -1.0725 -1.3643
  109OSM   H13C11201   0.906   4.371  11.006 -1.3979 -2.3867  2.7578
  109OSM    C1211202   0.661   4.377  10.857 -0.1354 -0.0551 -0.7558
  109OSM   H12A11203   0.739   4.329  10.799 -1.4038 -2.1779 -0.7918
  109OSM   H12B11204   0.639   4.476  10.821  1.0547  0.5099  0.0106
  109OSM    C1111205   0.529   4.304  10.825  0.2902 -0.3959  0.4280
  109OSM   H11A11206   0.542   4.198  10.855 -0.3262 -1.4311 -2.6009
  109OSM   H11B11207   0.527   4.304  10.714  0.4674 -1.3017  0.4202
  109OSM      P11208   0.274   4.313  10.836 -0.0311  0.1959  0.0707
  109OSM    O1311209   0.290   4.172  10.797 -0.2810  0.3003  0.7868
  109OSM    O1411210   0.181   4.337  10.946 -0.3175  0.0190 -0.5315
  109OSM    O1111211   0.215   4.390  10.710  0.7860 -0.0938  0.5698
  109OSM    O1211212   0.416   4.375  10.876 -0.1674  0.2390  0.2989
  109OSM    C1S11213   0.270   4.495  10.631 -0.9745  0.4723 -0.6914
  109OSM    H1S11214   0.367   4.459  10.592 -1.4583  1.0208 -2.5378
  109OSM    H1T11215   0.279   4.587  10.692  2.0025 -0.3857  0.3142
  109OSM     NF11216   0.250   4.591  10.414  0.0472 -0.3294 -0.2478
  109OSM    HNF11217   0.212   4.683  10.403 -1.9914 -1.2242 -1.2150
  109OSM    C2S11218   0.176   4.507  10.514  0.3413 -0.0559 -0.0215
  109OSM    H2S11219   0.149   4.408  10.470  0.2365 -0.3866  0.7656
  109OSM    C3S11220   0.043   4.561  10.565  0.5080 -0.1816  0.2955
  109OSM    H3S11221   0.069   4.651  10.625 -0.4542 -0.5787  1.3240
  109OSM     O311222  -0.024   4.483  10.664 -0.2418 -0.0368 -0.7944
  109OSM    HO311223   0.052   4.440  10.706  1.0547  2.4118 -0.4410
  109OSM    C4S11224  -0.049   4.587  10.442  0.0034 -0.4380 -0.3975
  109OSM    H4S11225  -0.021   4.685  10.402 -1.3123 -0.2105 -0.7930
  109OSM    C5S11226  -0.141   4.504  10.387  0.2372  0.7535  0.1098
  109OSM    H5S11227  -0.151   4.397  10.409 -3.6636  1.2597  1.6249
  109OSM    C6S11228  -0.223   4.542  10.268  0.0681  0.3352 -0.2325
  109OSM    H6S11229  -0.319   4.588  10.299  2.2961  3.7196  2.3616
  109OSM    H6T11230  -0.253   4.445  10.224  2.1943 -0.3632 -0.2823
  109OSM    C7S11231  -0.174   4.632  10.149 -0.2321  0.3688  0.2079
  109OSM    H7S11232  -0.104   4.713  10.177  1.8568 -1.2606 -0.0770
  109OSM    H7T11233  -0.264   4.679  10.104 -0.3980  0.1594  0.3164
  109OSM    C8S11234  -0.096   4.552  10.041  0.7308 -0.0208  0.1113
  109OSM    H8S11235  -0.153   4.459  10.020 -0.4971  0.8399 -0.4900
  109OSM    H8T11236  -0.001   4.517  10.088  0.2543 -2.1908 -0.4318
  109OSM    C9S11237  -0.091   4.635   9.907 -0.3910  0.6406  0.1981
  109OSM    H9S11238  -0.021   4.719   9.924 -3.0210  3.1948 -0.7071
  109OSM    H9T11239  -0.187   4.688   9.888  0.4007  1.6051 -1.3358
  109OSM   C10S11240  -0.034   4.546   9.791 -0.2288 -0.2726  0.2171
  109OSM   H10S11241  -0.084   4.447   9.793 -0.5383 -0.1966 -1.6560
  109OSM   H10T11242   0.076   4.535   9.802  0.1163  0.0004 -2.2288
  109OSM   C11S11243  -0.063   4.609   9.661 -0.3439 -0.2624 -0.4239
  109OSM   H11S11244  -0.040   4.718   9.662 -0.5336 -0.1607 -2.4606
  109OSM   H11T11245  -0.167   4.594   9.625  0.1509 -1.6351 -1.3785
  109OSM   C12S11246   0.026   4.541   9.542 -0.9455  0.2654 -0.1689
  109OSM   H12S11247   0.001   4.433   9.533 -2.1948  0.6359 -1.3759
  109OSM   H12T11248   0.133   4.539   9.574 -0.8912  1.5934 -0.2285
  109OSM   C13S11249   0.006   4.618   9.416 -0.2318 -0.0649  0.5746
  109OSM   H13S11250   0.084   4.695   9.396 -1.0943  0.4034 -1.1040
  109OSM   H13T11251  -0.081   4.688   9.420  0.9994  1.5776 -0.1883
  109OSM   C14S11252  -0.015   4.521   9.302  0.0269  0.1933  0.1617
  109OSM   H14S11253  -0.099   4.456   9.335  1.7923 -1.4900  1.6383
  109OSM   H14T11254   0.071   4.454   9.280 -0.7607  0.3843 -4.6403
  109OSM   C15S11255  -0.046   4.568   9.156 -0.4329  0.6147 -0.5050
  109OSM   H15S11256  -0.156   4.578   9.139 -0.1596  1.6381 -1.8648
  109OSM   H15T11257  -0.014   4.480   9.095  0.1200 -0.2197  0.9352
  109OSM   C16S11258   0.040   4.693   9.122  0.3010  0.0911  0.5085
  109OSM   H16S11259   0.144   4.671   9.153  0.0498 -1.6367  0.2327
  109OSM   H16T11260  -0.001   4.773   9.187  1.2980  0.9513  0.1003
  109OSM   C17S11261   0.026   4.734   8.969  0.1436  0.0447 -0.6210
  109OSM   H17S11262  -0.075   4.779   8.955  0.8144  0.9329 -3.0872
  109OSM   H17T11263   0.021   4.644   8.904  2.5595  0.0827 -0.9395
  109OSM   C18S11264   0.133   4.832   8.932 -0.3466  0.8298  0.1909
  109OSM   H18S11265   0.231   4.782   8.927 -0.1229  1.1680  1.0613
  109OSM   H18T11266   0.133   4.917   9.004 -0.5569  2.0119 -1.1437
  109OSM   H18U11267   0.103   4.868   8.831  0.1800  1.1128  0.1297
  109OSM    C1F11268   0.343   4.544  10.324 -0.4809  0.0096 -0.4161
  109OSM     OF11269   0.371   4.427  10.321  0.3497 -0.3339 -0.3036
  109OSM    C2F11270   0.408   4.648  10.239 -0.4469  0.1760  0.3521
  109OSM    H2F11271   0.436   4.736  10.300  1.5228  1.7441 -2.5798
  109OSM    H2G11272   0.345   4.696  10.161  0.2966 -1.1173 -1.1090
  109OSM    C3F11273   0.540   4.598  10.169  0.2713 -0.2479  0.4042
  109OSM    H3F11274   0.566   4.490  10.180 -1.9983 -0.7932  0.7601
  109OSM    H3G11275   0.625   4.650  10.218 -0.3858  0.5449  0.7147
  109OSM    C4F11276   0.544   4.628  10.017 -0.6009  0.0481 -0.3661
  109OSM    H4F11277   0.553   4.738  10.006  1.2828  0.3754  3.0557
  109OSM    H4G11278   0.453   4.599   9.960 -1.5462 -1.4986  1.7915
  109OSM    C5F11279   0.667   4.564   9.959 -0.0875  1.0188  0.0800
  109OSM    H5F11280   0.673   4.455   9.984 -0.3156  1.4408  2.1457
  109OSM    H5G11281   0.753   4.597  10.021  1.4718 -0.2302 -1.3170
  109OSM    C6F11282   0.683   4.599   9.808 -0.1808  0.7438  0.3961
  109OSM    H6F11283   0.633   4.698   9.795 -1.3315  0.1512  0.1708
  109OSM    H6G11284   0.634   4.523   9.743 -0.8880 -0.5869  2.4088
  109OSM    C7F11285   0.835   4.601   9.775  0.7367  0.5676 -0.4809
  109OSM    H7F11286   0.872   4.509   9.826  2.6185  1.4422 -0.1917
  109OSM    H7G11287   0.893   4.677   9.832  1.6139 -1.6135  1.7452
  109OSM    C8F11288   0.861   4.599   9.628  0.6311  0.2403  0.0170
  109OSM    H8F11289   0.801   4.680   9.582  0.1637  0.2825  0.6795
  109OSM    H8G11290   0.826   4.502   9.585 -0.6202  1.1003 -0.9797
  109OSM    C9F11291   1.007   4.627   9.596  0.0883  0.7270  0.1041
  109OSM    H9F11292   1.077   4.619   9.680  2.1241  0.6736 -1.5338
  109OSM   C10F11293   1.053   4.655   9.468  0.0093  1.0170  1.3960
  109OSM   H10F11294   1.160   4.681   9.469  0.5407 -0.9259  0.9395
  109OSM   C11F11295   0.967   4.667   9.343 -0.3442 -0.3060  0.7471
  109OSM   H11F11296   0.908   4.761   9.358  0.5777  0.2378  1.0231
  109OSM   H11G11297   0.901   4.577   9.338 -1.6318  0.5875  1.1460
  109OSM   C12F11298   1.054   4.684   9.213  0.0045 -0.4535 -0.5818
  109OSM   H12F11299   1.124   4.599   9.210  1.4147  0.7005 -2.2770
  109OSM   H12G11300   1.119   4.774   9.220 -0.5760  0.0208 -1.1211
  109OSM   C13F11301   0.971   4.680   9.086 -1.1036  0.3802  0.2397
  109OSM   H13F11302   0.896   4.758   9.110  0.1300  1.6604 -0.0110
  109OSM   H13G11303   0.922   4.584   9.058 -1.7266  0.4549  1.0358
  109OSM   C14F11304   1.046   4.733   8.960 -0.4116 -0.1282  0.4613
  109OSM   H14F11305   1.092   4.642   8.918  1.7133  1.4527 -0.8422
  109OSM   H14G11306   1.126   4.808   8.977  1.1308 -1.8020  0.7899
  109OSM   C15F11307   0.941   4.806   8.862  0.1445 -0.1278  0.9227
  109OSM   H15F11308   1.008   4.844   8.783 -0.9543  0.0257  0.0471
  109OSM   H15G11309   0.896   4.895   8.911  0.5426 -0.7230  2.4491
  109OSM   C16F11310   0.843   4.703   8.798 -0.6552 -0.5676  0.0076
  109OSM   H16F11311   0.779   4.658   8.877 -1.6611 -2.3098 -1.7103
  109OSM   H16G11312   0.893   4.611   8.760  0.3826 -1.2219  2.7242
  109OSM   C17F11313   0.746   4.779   8.697 -0.3079 -0.3196  0.1642
  109OSM   H17F11314   0.674   4.702   8.661 -1.0480  0.2683  0.3388
  109OSM   H17G11315   0.800   4.815   8.607 -1.1631 -1.7249 -0.9432
  109OSM   C18F11316   0.673   4.899   8.757  0.2365 -0.6051 -0.4843
  109OSM   H18F11317   0.618   4.858   8.844  0.5070  0.1414  0.0404
  109OSM   H18G11318   0.600   4.954   8.694 -0.6006  1.4928  2.1449
  109OSM   H18H11319   0.747   4.976   8.788 -0.4573 -0.1966  0.1779
  110OSM      N11320   0.997   5.078  10.953  0.0621  0.2065  0.4821
  110OSM    C1511321   0.997   5.024  11.089 -0.1499  0.2682  0.2001
  110OSM   H15A11322   0.968   4.920  11.085 -1.0336  0.5364 -2.8237
  110OSM   H15B11323   0.927   5.072  11.155  0.3936  0.2338  0.8189
  110OSM   H15C11324   1.089   5.030  11.146 -0.7252 -0.1856  1.1936
  110OSM    C1411325   0.856   5.084  10.909 -0.6504  0.4383  0.1506
  110OSM   H14A11326   0.813   4.985  10.917  0.1006  0.1831  1.4075
  110OSM   H14B11327   0.843   5.118  10.807  0.9721  1.5193  0.2581
  110OSM   H14C11328   0.794   5.135  10.981 -0.1050 -0.8427  1.5971
  110OSM    C1311329   1.044   5.215  10.968 -0.1414  0.3020 -0.0553
  110OSM   H13A11330   1.047   5.278  10.880 -1.3440  2.6435  1.4877
  110OSM   H13B11331   1.143   5.226  11.008  0.1959  1.4536 -1.1508
  110OSM   H13C11332   0.981   5.265  11.039  0.9986  0.5383  0.8130
  110OSM    C1211333   1.079   4.997  10.856 -0.4717 -0.0927  0.1226
  110OSM   H12A11334   1.177   4.985  10.898 -0.7822 -2.6814  0.3087
  110OSM   H12B11335   1.084   5.039  10.756 -2.9123 -1.7805 -0.8254
  110OSM    C1111336   1.033   4.854  10.824 -0.8339 -0.2357  0.3215
  110OSM   H11A11337   1.090   4.821  10.735  0.3706  0.9837  0.6026
  110OSM   H11B11338   0.927   4.848  10.792 -0.6649 -1.4943 -0.0510
  110OSM      P11339   1.200   4.711  10.961  0.3015 -0.0316  0.3635
  110OSM    O1311340   1.302   4.804  10.905 -0.6130  0.4585  0.0482
  110OSM    O1411341   1.209   4.681  11.105 -0.5659  0.6371  0.4276
  110OSM    O1111342   1.211   4.577  10.879 -0.5896  0.1142 -0.6663
  110OSM    O1211343   1.059   4.765  10.934  0.0341 -0.0758  0.5950
  110OSM    C1S11344   1.139   4.538  10.763 -0.5299  0.1666  0.2126
  110OSM    H1S11345   1.039   4.582  10.747 -1.4867 -2.6029 -2.2868
  110OSM    H1T11346   1.133   4.427  10.766  2.6881 -0.1084  0.2802
  110OSM     NF11347   1.148   4.525  10.510  0.9646  0.0453  0.2386
  110OSM    HNF11348   1.156   4.435  10.468 -0.5590 -0.0992  0.2228
  110OSM    C2S11349   1.224   4.558  10.630 -0.6699  0.0540  0.3163
  110OSM    H2S11350   1.255   4.664  10.635  2.5917 -0.7423 -0.3353
  110OSM    C3S11351   1.354   4.465  10.645 -0.0010  0.0859  0.0909
  110OSM    H3S11352   1.318   4.362  10.665 -2.6345  1.2169  1.6821
  110OSM     O311353   1.433   4.508  10.755  0.3489 -0.8590 -0.4478
  110OSM    HO311354   1.370   4.561  10.806  2.1809  1.0777 -0.0622
  110OSM    C4S11355   1.441   4.462  10.531  0.1226 -0.4166 -0.0103
  110OSM    H4S11356   1.472   4.566  10.513 -0.4970 -0.2929 -0.3929
  110OSM    C5S11357   1.469   4.365  10.440  0.8859 -0.0586 -0.2361
  110OSM    H5S11358   1.435   4.264  10.467  3.2183 -1.5207 -2.3489
  110OSM    C6S11359   1.553   4.376  10.320 -0.5324  0.2424  0.1971
  110OSM    H6S11360   1.494   4.326  10.240 -2.5085 -0.3719  1.9392
  110OSM    H6T11361   1.640   4.310  10.341 -0.8430 -1.1583 -2.4676
  110OSM    C7S11362   1.608   4.513  10.272  0.7531  0.1123  0.2824
  110OSM    H7S11363   1.642   4.568  10.362  0.6874  1.1454 -0.3125
  110OSM    H7T11364   1.526   4.563  10.218  0.3418 -2.1578 -1.3537
  110OSM    C8S11365   1.715   4.482  10.172 -0.6062 -0.2862  0.6458
  110OSM    H8S11366   1.675   4.410  10.098  0.2377 -1.3279  1.1711
  110OSM    H8T11367   1.805   4.440  10.221  0.1131  2.1713  1.5556
  110OSM    C9S11368   1.767   4.613  10.101  0.4745  0.1861  0.1140
  110OSM    H9S11369   1.830   4.657  10.181  1.9952  0.6832 -1.3083
  110OSM    H9T11370   1.688   4.684  10.068 -0.8607 -1.5059 -0.5026
  110OSM   C10S11371   1.858   4.577   9.975  0.5227 -0.5033  0.4542
  110OSM   H10S11372   1.884   4.470   9.990 -2.4412 -1.1515  1.6591
  110OSM   H10T11373   1.947   4.641   9.958 -0.6339  0.6204 -1.9510
  110OSM   C11S11374   1.772   4.573   9.844  0.4135  0.5742  0.7257
  110OSM   H11S11375   1.718   4.669   9.844  0.7884  0.7874  1.2221
  110OSM   H11T11376   1.693   4.495   9.846 -0.2269  1.2229  1.4989
  110OSM   C12S11377   1.861   4.552   9.722 -0.1577  0.5258 -0.0752
  110OSM   H12S11378   1.910   4.454   9.737  0.8405  1.1428  0.7781
  110OSM   H12T11379   1.935   4.633   9.739 -2.2831  2.6399 -0.2494
  110OSM   C13S11380   1.787   4.570   9.589  0.8547 -0.1458  0.2321
  110OSM   H13S11381   1.727   4.662   9.603  1.0942 -0.0786  0.8885
  110OSM   H13T11382   1.714   4.486   9.578 -0.4433  0.7367  1.6320
  110OSM   C14S11383   1.877   4.591   9.462 -0.0592 -0.2628 -0.1065
  110OSM   H14S11384   1.920   4.489   9.462 -1.9566 -1.1648  2.1759
  110OSM   H14T11385   1.951   4.670   9.487  0.4372 -0.8780  0.3897
  110OSM   C15S11386   1.800   4.637   9.342 -0.2545 -0.6481  0.2819
  110OSM   H15S11387   1.760   4.733   9.381 -2.2044 -1.7610  1.1826
  110OSM   H15T11388   1.712   4.571   9.324  0.4416 -0.8973 -2.7203
  110OSM   C16S11389   1.875   4.663   9.213  0.5913  0.5575  0.1831
  110OSM   H16S11390   1.932   4.572   9.185  2.4349  1.6209  0.3367
  110OSM   H16T11391   1.946   4.743   9.242  1.9537 -0.4039 -0.4427
  110OSM   C17S11392   1.787   4.716   9.103  0.3384 -0.1549  0.3393
  110OSM   H17S11393   1.772   4.823   9.126  0.5090  0.0183 -0.3447
  110OSM   H17T11394   1.692   4.659   9.094 -0.8321  1.4006  2.0803
  110OSM   C18S11395   1.861   4.716   8.966 -0.6757  0.8146 -0.2603
  110OSM   H18S11396   1.955   4.775   8.974 -0.4453  0.1708  3.0062
  110OSM   H18T11397   1.796   4.769   8.893  0.6303  1.4441 -1.0089
  110OSM   H18U11398   1.883   4.608   8.954 -0.6857  0.9661 -1.9614
  110OSM    C1F11399   1.052   4.601  10.463 -0.5585  0.2652 -0.4157
  110OSM     OF11400   0.996   4.692  10.523 -0.6617  0.2538 -0.3710
  110OSM    C2F11401   1.017   4.571  10.321 -0.5979  0.3822 -0.4265
  110OSM    H2F11402   0.906   4.573  10.313 -0.8649  2.0120  2.2617
  110OSM    H2G11403   1.037   4.464  10.299  1.3069  0.4864  0.5735
  110OSM    C3F11404   1.092   4.652  10.211 -0.1857  0.3508 -0.0008
  110OSM    H3F11405   1.199   4.629  10.234 -0.4780  0.8579  2.0961
  110OSM    H3G11406   1.059   4.755  10.236  0.1259 -0.0470  2.3260
  110OSM    C4F11407   1.057   4.615  10.068  0.6359 -0.1604 -0.7072
  110OSM    H4F11408   1.090   4.699  10.005  3.7562 -2.9773 -3.1668
  110OSM    H4G11409   0.950   4.588  10.077  0.4063  0.3605 -1.7820
  110OSM    C5F11410   1.125   4.495  10.010 -1.0110  0.6446 -0.1343
  110OSM    H5F11411   1.097   4.480   9.903 -1.3602  1.6038 -0.1888
  110OSM    H5G11412   1.090   4.412  10.075 -1.7849  0.8465 -0.2845
  110OSM    C6F11413   1.282   4.487  10.022 -0.0025  0.8394 -0.3408
  110OSM    H6F11414   1.303   4.480  10.131  1.6222 -1.9358 -0.7348
  110OSM    H6G11415   1.334   4.579   9.988 -0.4085  1.8144  1.5300
  110OSM    C7F11416   1.344   4.363   9.946  0.4125  0.0702 -1.2436
  110OSM    H7F11417   1.271   4.282   9.965  0.6028  0.2918  0.5939
  110OSM    H7G11418   1.444   4.347   9.992  0.8172  1.3114 -1.6382
  110OSM    C8F11419   1.375   4.391   9.799  0.3814 -0.0388  0.2411
  110OSM    H8F11420   1.458   4.464   9.788  0.6463 -0.3146  0.3994
  110OSM    H8G11421   1.286   4.442   9.756 -0.2920 -0.9785  0.4894
  110OSM    C9F11422   1.404   4.271   9.713 -0.0237 -0.0376  0.3343
  110OSM    H9F11423   1.397   4.171   9.758 -0.3629 -0.5282 -0.7593
  110OSM   C10F11424   1.407   4.263   9.578 -0.0973 -0.0090  0.2254
  110OSM   H10F11425   1.438   4.166   9.538  3.2056  1.0300  0.0005
  110OSM   C11F11426   1.399   4.385   9.487  0.7038 -0.0130  0.4309
  110OSM   H11F11427   1.482   4.458   9.476 -0.8681  1.6899 -0.6515
  110OSM   H11G11428   1.305   4.438   9.513  0.5752  0.8473 -1.5733
  110OSM   C12F11429   1.382   4.330   9.338  0.5956  0.5519  0.1800
  110OSM   H12F11430   1.282   4.282   9.324  0.9181  0.2401 -1.2359
  110OSM   H12G11431   1.455   4.248   9.317  1.2325  0.5340  2.3052
  110OSM   C13F11432   1.386   4.436   9.231  0.5554 -0.4354  1.1312
  110OSM   H13F11433   1.433   4.533   9.255  1.8598 -0.6532 -0.3901
  110OSM   H13G11434   1.282   4.449   9.194  0.9015 -2.2198 -0.6415
  110OSM   C14F11435   1.456   4.377   9.109  0.1043 -0.1204  0.0589
  110OSM   H14F11436   1.414   4.279   9.079 -2.7565  1.3005 -0.9113
  110OSM   H14G11437   1.562   4.348   9.128 -0.2405 -0.5514  1.4291
  110OSM   C15F11438   1.444   4.466   8.985  0.6856 -1.1898 -0.0365
  110OSM   H15F11439   1.491   4.562   9.014  1.4066 -2.0979  1.9893
  110OSM   H15G11440   1.344   4.494   8.946  1.3052  2.4459  0.6626
  110OSM   C16F11441   1.524   4.413   8.873  0.3847 -0.5467  0.0567
  110OSM   H16F11442   1.491   4.309   8.851 -1.6007 -0.0598  0.5482
  110OSM   H16G11443   1.632   4.419   8.897  0.3895 -2.0663  0.5055
  110OSM   C17F11444   1.506   4.485   8.739 -0.7321  0.2749  1.0586
  110OSM   H17F11445   1.516   4.594   8.757 -1.9203  0.5477  0.1702
  110OSM   H17G11446   1.398   4.473   8.716 -0.5391 -0.5841  0.5865
  110OSM   C18F11447   1.583   4.418   8.623 -0.7439  0.1875 -0.3107
  110OSM   H18F11448   1.683   4.464   8.610 -1.0144  1.2385  1.1138
  110OSM   H18G11449   1.532   4.447   8.529 -0.3595  0.7283 -0.3564
  110OSM   H18H11450   1.585   4.307   8.629 -0.1112  0.2813  1.8770
  111OSM      N11451   3.890   0.645  11.191  0.8980  0.0214 -0.5504
  111OSM    C1511452   3.964   0.519  11.217  0.1028  0.7632  0.5753
  111OSM   H15A11453   3.985   0.518  11.323  0.4432  0.3523  0.5044
  111OSM   H15B11454   4.047   0.496  11.152 -1.6717 -2.6357 -0.7160
  111OSM   H15C11455   3.901   0.432  11.205  0.5680  0.4923  0.0320
  111OSM    C1411456   3.971   0.764  11.228  0.3783 -0.0457  0.2545
  111OSM   H14A11457   4.000   0.748  11.331 -2.6889 -0.5429  1.1416
  111OSM   H14B11458   3.916   0.856  11.229  0.8675  0.2634 -0.5472
  111OSM   H14C11459   4.064   0.780  11.176  1.5810  0.2803  2.3593
  111OSM    C1311460   3.880   0.655  11.038 -0.0115 -0.2681 -0.2283
  111OSM   H13A11461   3.837   0.577  10.978  0.3400 -0.0406 -0.7823
  111OSM   H13B11462   3.979   0.670  10.997 -1.3890  1.3496 -3.2415
  111OSM   H13C11463   3.825   0.745  11.016  2.3696  1.1217 -0.8498
  111OSM    C1211464   3.756   0.639  11.266 -0.0012 -0.2986  0.4204
  111OSM   H12A11465   3.779   0.662  11.369 -0.2339  0.3621  0.3285
  111OSM   H12B11466   3.727   0.535  11.266  0.3499 -0.4145 -0.8578
  111OSM    C1111467   3.638   0.728  11.222 -0.3458  0.2535 -0.3702
  111OSM   H11A11468   3.677   0.832  11.216 -0.5295  0.5520  2.3868
  111OSM   H11B11469   3.577   0.724  11.315  0.6055 -1.2276  0.2242
  111OSM      P11470   3.472   0.563  11.111 -0.1419 -0.0305 -0.3878
  111OSM    O1311471   3.536   0.452  11.191  0.0051  0.0290 -0.0907
  111OSM    O1411472   3.328   0.591  11.139 -0.4879  0.6168 -0.1138
  111OSM    O1111473   3.491   0.516  10.958 -0.2446 -0.5423  0.9541
  111OSM    O1211474   3.563   0.689  11.106  0.1504 -0.8258 -0.2626
  111OSM    C1S11475   3.504   0.612  10.853 -0.1788  0.9933  0.9936
  111OSM    H1S11476   3.583   0.685  10.881  0.3814  1.3450 -1.3052
  111OSM    H1T11477   3.411   0.669  10.832  0.1952  1.3168  0.1665
  111OSM     NF11478   3.591   0.651  10.634 -0.2274  0.1213 -0.5672
  111OSM    HNF11479   3.532   0.680  10.559 -0.2493 -2.3161 -1.5753
  111OSM    C2S11480   3.551   0.542  10.731  0.1012 -0.0508  0.3884
  111OSM    H2S11481   3.634   0.475  10.760 -1.1191 -1.0167  1.8185
  111OSM    C3S11482   3.432   0.460  10.674 -0.5380 -0.2346  0.1452
  111OSM    H3S11483   3.348   0.532  10.659  0.0775  0.1179 -1.9748
  111OSM     O311484   3.392   0.357  10.757  0.3552  0.2428 -0.2738
  111OSM    HO311485   3.452   0.360  10.832 -1.0322  0.2297  0.8880
  111OSM    C4S11486   3.478   0.404  10.534 -0.0173  0.2372  0.1462
  111OSM    H4S11487   3.487   0.478  10.453  1.3611 -0.7258 -0.6216
  111OSM    C5S11488   3.516   0.280  10.502 -0.5204 -0.2716 -0.3692
  111OSM    H5S11489   3.522   0.209  10.586 -2.1835 -1.1941 -0.9874
  111OSM    C6S11490   3.563   0.224  10.373  0.6029 -0.1843  0.1176
  111OSM    H6S11491   3.529   0.119  10.357  1.6064 -0.6310  0.8372
  111OSM    H6T11492   3.672   0.213  10.389  0.5439  1.6754  2.1269
  111OSM    C7S11493   3.549   0.310  10.248 -0.6908 -0.2675 -0.4641
  111OSM    H7S11494   3.604   0.252  10.169  1.7503  0.2703  0.7383
  111OSM    H7T11495   3.603   0.406  10.260  0.5908 -1.3182  3.5976
  111OSM    C8S11496   3.404   0.333  10.206  0.2360  0.0315 -0.5595
  111OSM    H8S11497   3.343   0.399  10.271  0.3512 -1.4947  1.1659
  111OSM    H8T11498   3.347   0.238  10.218 -0.8143  0.8738  1.8981
  111OSM    C9S11499   3.401   0.392  10.066 -0.8848  0.7699 -0.1737
  111OSM    H9S11500   3.488   0.457  10.042  0.9939 -1.7662 -0.6553
  111OSM    H9T11501   3.305   0.445  10.057 -1.7923 -1.0256 -1.7941
  111OSM   C10S11502   3.414   0.286   9.957 -0.6130  0.1546 -0.5005
  111OSM   H10S11503   3.315   0.238   9.947 -0.8734 -0.2608  2.9260
  111OSM   H10T11504   3.481   0.203   9.988  0.1268  0.7788 -0.4005
  111OSM   C11S11505   3.474   0.335   9.827  0.3225  0.4482  0.0946
  111OSM   H11S11506   3.480   0.241   9.768  3.1737  1.0413 -0.6803
  111OSM   H11T11507   3.579   0.360   9.851  0.4848 -0.9550  0.9850
  111OSM   C12S11508   3.384   0.434   9.756 -0.0642  0.4730  0.0891
  111OSM   H12S11509   3.387   0.533   9.806 -2.5303  0.0767  1.1797
  111OSM   H12T11510   3.279   0.400   9.765 -0.1817  0.2036 -1.8821
  111OSM   C13S11511   3.422   0.443   9.607 -0.3514  0.7118 -0.4308
  111OSM   H13S11512   3.435   0.347   9.551 -1.0736  1.5518 -2.1224
  111OSM   H13T11513   3.522   0.491   9.592 -1.5415  3.3864 -0.3425
  111OSM   C14S11514   3.315   0.507   9.513  0.1043 -0.2638 -0.3138
  111OSM   H14S11515   3.323   0.613   9.546  1.4507 -0.4706  0.1022
  111OSM   H14T11516   3.211   0.473   9.534 -1.2302  3.0159 -0.9606
  111OSM   C15S11517   3.345   0.487   9.368  0.2903 -0.2738  0.3481
  111OSM   H15S11518   3.347   0.381   9.335  2.0473 -0.9965  2.5061
  111OSM   H15T11519   3.445   0.530   9.346  0.6575 -1.3065 -0.0986
  111OSM   C16S11520   3.246   0.558   9.275 -0.3408 -0.1438  0.5466
  111OSM   H16S11521   3.267   0.667   9.274 -0.4503 -0.1143 -1.1051
  111OSM   H16T11522   3.141   0.537   9.306 -0.5490  0.3645  0.2136
  111OSM   C17S11523   3.276   0.517   9.131  0.0029 -0.7001  0.7443
  111OSM   H17S11524   3.243   0.414   9.105 -0.4289 -0.1845 -0.8589
  111OSM   H17T11525   3.384   0.529   9.107  0.2599 -3.5970  0.0393
  111OSM   C18S11526   3.204   0.616   9.033 -0.4498 -0.0613  0.1517
  111OSM   H18S11527   3.232   0.579   8.932  0.2551 -0.2673  0.4187
  111OSM   H18T11528   3.241   0.720   9.037 -0.6072 -0.0532  2.0526
  111OSM   H18U11529   3.093   0.618   9.039 -0.4014  0.4464  0.9525
  111OSM    C1F11530   3.697   0.730  10.655  0.3568 -0.0830  0.0404
  111OSM     OF11531   3.780   0.703  10.739 -0.0830  0.0346 -0.5798
  111OSM    C2F11532   3.701   0.849  10.557  1.2556  0.0647 -0.1517
  111OSM    H2F11533   3.678   0.933  10.626 -0.0187 -0.3609 -0.0379
  111OSM    H2G11534   3.615   0.839  10.488  0.2820  0.4061  0.9711
  111OSM    C3F11535   3.835   0.876  10.490  0.5493  0.0842  0.4142
  111OSM    H3F11536   3.919   0.895  10.560  0.5736  1.3319  0.0695
  111OSM    H3G11537   3.825   0.970  10.432 -2.4700  0.2515  1.0337
  111OSM    C4F11538   3.881   0.767  10.399 -0.6651 -0.3081  1.1418
  111OSM    H4F11539   3.891   0.669  10.451  3.7332 -1.2170 -0.9165
  111OSM    H4G11540   3.982   0.791  10.362 -0.9672 -1.6567 -0.7603
  111OSM    C5F11541   3.790   0.755  10.273 -0.3709  0.9205 -0.3462
  111OSM    H5F11542   3.772   0.859  10.237 -0.8324  0.7898 -0.4921
  111OSM    H5G11543   3.699   0.701  10.307 -0.3708  2.5081  2.4519
  111OSM    C6F11544   3.846   0.674  10.154  0.1181 -0.5614 -1.1882
  111OSM    H6F11545   3.883   0.578  10.194  1.2461  0.0111 -0.7983
  111OSM    H6G11546   3.935   0.726  10.112  0.0665  0.1931 -0.3981
  111OSM    C7F11547   3.745   0.647  10.047  0.1584 -0.7523  0.2648
  111OSM    H7F11548   3.660   0.717  10.063  1.7789  1.3296  0.1779
  111OSM    H7G11549   3.710   0.542  10.052 -1.6918 -0.2252 -0.6714
  111OSM    C8F11550   3.809   0.655   9.903 -0.1157  1.1970 -0.4094
  111OSM    H8F11551   3.746   0.607   9.825  1.9876 -1.5371 -0.5843
  111OSM    H8G11552   3.890   0.579   9.908 -1.5908 -0.3628  0.2207
  111OSM    C9F11553   3.850   0.792   9.864 -0.2335 -0.0583  0.3357
  111OSM    H9F11554   3.832   0.864   9.944 -0.6317  0.4889 -0.2420
  111OSM   C10F11555   3.893   0.834   9.741  0.7079 -0.1551  0.3144
  111OSM   H10F11556   3.934   0.934   9.723  0.7248 -0.1936  0.1351
  111OSM   C11F11557   3.922   0.732   9.628  0.1040  0.0255 -0.3988
  111OSM   H11F11558   3.877   0.631   9.637  1.8228 -0.6912  0.6842
  111OSM   H11G11559   4.033   0.726   9.625  0.2523  2.3229 -1.5714
  111OSM   C12F11560   3.876   0.795   9.494  0.0260  0.3732 -0.3531
  111OSM   H12F11561   3.911   0.725   9.415  0.0504  1.8013 -1.6388
  111OSM   H12G11562   3.923   0.887   9.454  1.5111 -0.1323  0.1601
  111OSM   C13F11563   3.721   0.795   9.471 -0.1971  0.0558  0.2605
  111OSM   H13F11564   3.684   0.896   9.498 -0.4001 -0.3741  1.6653
  111OSM   H13G11565   3.674   0.729   9.546  0.6392  1.6494  2.2737
  111OSM   C14F11566   3.688   0.752   9.325  0.1176 -0.7422 -0.3226
  111OSM   H14F11567   3.577   0.754   9.315  0.1724 -2.9323 -1.8833
  111OSM   H14G11568   3.716   0.647   9.303 -0.7349 -0.7753 -1.3581
  111OSM   C15F11569   3.758   0.851   9.224  0.1503 -0.4101 -0.0808
  111OSM   H15F11570   3.865   0.866   9.245 -0.1834  2.7555 -0.2114
  111OSM   H15G11571   3.713   0.951   9.242  1.8154 -0.0151  2.2300
  111OSM   C16F11572   3.735   0.821   9.079 -0.4778 -0.2610  0.6624
  111OSM   H16F11573   3.629   0.796   9.058 -0.4299  0.1536 -0.1070
  111OSM   H16G11574   3.811   0.750   9.038  2.4090  2.8216  0.2149
  111OSM   C17F11575   3.768   0.940   8.987  0.1004  0.7996  0.4850
  111OSM   H17F11576   3.877   0.960   8.998  0.0586  1.5088 -0.2254
  111OSM   H17G11577   3.707   1.029   9.015  0.8408  1.6419 -0.4836
  111OSM   C18F11578   3.735   0.917   8.841  0.3023  0.1120 -0.1705
  111OSM   H18F11579   3.633   0.873   8.842 -0.0759  0.9767 -0.5324
  111OSM   H18G11580   3.806   0.857   8.779  0.5128 -1.3599  1.4288
  111OSM   H18H11581   3.722   1.009   8.781  1.9335  0.5260  0.0783
  112OSM      N11582   4.566   0.147  11.225  0.0928  0.7300 -0.0183
  112OSM    C1511583   4.518   0.282  11.175  0.9664  0.6505 -0.1809
  112OSM   H15A11584   4.525   0.299  11.069 -1.5412  0.6873 -0.3920
  112OSM   H15B11585   4.572   0.364  11.222  0.7227  0.5384  0.3086
  112OSM   H15C11586   4.413   0.290  11.200  1.1369 -1.0591  1.3047
  112OSM    C1411587   4.714   0.132  11.211  0.4132  0.0702 -0.2941
  112OSM   H14A11588   4.746   0.030  11.202  2.0363  0.4340  0.9093
  112OSM   H14B11589   4.764   0.174  11.297 -0.0638  0.6031 -0.2675
  112OSM   H14C11590   4.752   0.176  11.120 -0.3111 -0.6309 -0.9527
  112OSM    C1311591   4.519   0.141  11.371 -0.0637 -0.3906 -0.3060
  112OSM   H13A11592   4.544   0.053  11.428 -0.0565 -0.0569  0.2081
  112OSM   H13B11593   4.411   0.144  11.366 -0.1688  0.7821  1.6062
  112OSM   H13C11594   4.551   0.226  11.429 -0.0848 -0.8258  0.3498
  112OSM    C1211595   4.514   0.036  11.138  0.0545 -0.0478  0.2633
  112OSM   H12A11596   4.552  -0.062  11.161 -2.0047 -0.6388  1.3719
  112OSM   H12B11597   4.539   0.059  11.035  0.9439 -0.1426  0.4510
  112OSM    C1111598   4.363   0.017  11.152 -0.0379  0.2169  0.9198
  112OSM   H11A11599   4.323   0.118  11.127  1.0221  0.4556  0.0732
  112OSM   H11B11600   4.330  -0.023  11.250  0.0200  0.8137  1.1903
  112OSM      P11601   4.374  -0.214  11.043  0.4377  0.0763 -0.0267
  112OSM    O1311602   4.490  -0.215  10.953 -0.1746 -0.5049 -0.1217
  112OSM    O1411603   4.391  -0.271  11.180  0.1327  0.2592  0.4448
  112OSM    O1111604   4.265  -0.302  10.962 -0.2110 -0.2722  0.4306
  112OSM    O1211605   4.319  -0.064  11.043 -0.2335  0.2182  0.1660
  112OSM    C1S11606   4.184  -0.240  10.861  0.4857  0.5439  0.0958
  112OSM    H1S11607   4.236  -0.149  10.826  0.4863  0.6391  0.3382
  112OSM    H1T11608   4.092  -0.205  10.914 -0.4521 -1.4403 -0.1352
  112OSM     NF11609   4.125  -0.256  10.611 -0.3035  0.1971  1.1829
  112OSM    HNF11610   4.037  -0.283  10.575  1.0154 -1.0480 -1.3313
  112OSM    C2S11611   4.160  -0.323  10.735 -0.3230 -0.6773  0.0132
  112OSM    H2S11612   4.258  -0.370  10.712  0.0446  0.2446 -0.3552
  112OSM    C3S11613   4.063  -0.441  10.776  0.5571  0.0553 -0.2061
  112OSM    H3S11614   3.962  -0.408  10.807 -0.7639 -1.6448 -2.4157
  112OSM     O311615   4.103  -0.519  10.882 -0.1948  0.1350 -0.0651
  112OSM    HO311616   4.176  -0.479  10.929  1.4919 -1.4152 -1.2386
  112OSM    C4S11617   4.040  -0.535  10.659 -0.6707  0.0484  0.5907
  112OSM    H4S11618   3.936  -0.539  10.625 -0.1319  0.7068 -1.2445
  112OSM    C5S11619   4.132  -0.615  10.609 -0.1439  0.9738 -0.2232
  112OSM    H5S11620   4.232  -0.624  10.653  0.0474  0.1369 -0.8219
  112OSM    C6S11621   4.113  -0.718  10.498  0.3420  0.1176  0.4120
  112OSM    H6S11622   4.115  -0.822  10.537  2.0862 -0.7687 -1.8628
  112OSM    H6T11623   4.190  -0.713  10.419 -1.5148  0.7333 -1.4570
  112OSM    C7S11624   3.972  -0.711  10.438  0.0377  0.4160 -0.5575
  112OSM    H7S11625   3.943  -0.605  10.422  0.4952  0.7551  0.7540
  112OSM    H7T11626   3.890  -0.737  10.509  0.6108 -1.6321 -0.5832
  112OSM    C8S11627   3.961  -0.776  10.301 -0.3367 -0.3201  0.9520
  112OSM    H8S11628   3.851  -0.774  10.284 -0.0235  2.7043 -1.5944
  112OSM    H8T11629   4.007  -0.877  10.298 -1.8552 -1.0236  0.5604
  112OSM    C9S11630   4.025  -0.700  10.192 -0.1443 -0.1990  0.0998
  112OSM    H9S11631   4.123  -0.666  10.233  0.1207 -2.0228  1.0457
  112OSM    H9T11632   3.955  -0.615  10.176 -0.2612 -0.2694  0.2371
  112OSM   C10S11633   4.042  -0.786  10.062 -0.3706  0.3527  0.2568
  112OSM   H10S11634   3.942  -0.821  10.031 -0.3237 -0.5535  1.0892
  112OSM   H10T11635   4.125  -0.859  10.077  0.1751  0.2030 -2.8489
  112OSM   C11S11636   4.086  -0.700   9.942 -0.8067 -0.2201  0.3272
  112OSM   H11S11637   4.189  -0.668   9.969 -0.7787 -2.6787  3.9049
  112OSM   H11T11638   4.023  -0.609   9.947 -1.4239 -0.6649  0.9827
  112OSM   C12S11639   4.088  -0.761   9.804  0.3946  0.7451  0.3027
  112OSM   H12S11640   3.993  -0.817   9.799  1.2902 -0.7826 -0.4144
  112OSM   H12T11641   4.168  -0.838   9.798 -0.6822 -0.4350  0.7599
  112OSM   C13S11642   4.084  -0.663   9.686 -0.2544 -0.3420  0.0056
  112OSM   H13S11643   4.162  -0.587   9.706 -0.8909  0.6600 -1.1256
  112OSM   H13T11644   3.990  -0.604   9.679 -0.1903  0.2960  3.0264
  112OSM   C14S11645   4.097  -0.732   9.549 -0.5153  0.5179  0.5417
  112OSM   H14S11646   4.014  -0.803   9.530  1.3489 -1.5853 -0.2312
  112OSM   H14T11647   4.197  -0.780   9.553  0.5058  2.4712 -0.2796
  112OSM   C15S11648   4.098  -0.636   9.433  0.5453  0.2209 -0.5634
  112OSM   H15S11649   4.140  -0.539   9.467  1.1895 -0.5940  1.0672
  112OSM   H15T11650   4.005  -0.593   9.389 -0.8727 -1.8418  0.2711
  112OSM   C16S11651   4.176  -0.693   9.313  0.1034 -0.0489 -0.3331
  112OSM   H16S11652   4.138  -0.794   9.286 -0.0927 -0.5403  1.6587
  112OSM   H16T11653   4.275  -0.709   9.362 -0.6629  2.1246  2.1548
  112OSM   C17S11654   4.187  -0.604   9.193 -0.5762  0.4267  0.5129
  112OSM   H17S11655   4.241  -0.521   9.241 -0.7830 -0.6634  2.7689
  112OSM   H17T11656   4.082  -0.575   9.169 -0.9201 -1.4643 -0.4731
  112OSM   C18S11657   4.272  -0.669   9.078  0.3119 -0.1523  0.0994
  112OSM   H18S11658   4.370  -0.709   9.114  0.9450 -0.1941 -1.5633
  112OSM   H18T11659   4.294  -0.602   8.992 -0.5521  1.0046  0.7635
  112OSM   H18U11660   4.220  -0.761   9.042  0.3054 -0.9465  2.0352
  112OSM    C1F11661   4.200  -0.170  10.547 -0.2757  0.3499  0.2874
  112OSM     OF11662   4.311  -0.141  10.583 -0.3126 -0.4667 -0.0101
  112OSM    C2F11663   4.149  -0.101  10.424  0.2791 -0.4939  0.3560
  112OSM    H2F11664   4.079  -0.173  10.376 -0.8365  2.0350 -2.0673
  112OSM    H2G11665   4.234  -0.077  10.357  0.7427 -1.7243  0.4680
  112OSM    C3F11666   4.062   0.024  10.460 -0.1238 -0.4307  0.9842
  112OSM    H3F11667   4.133   0.096  10.506 -0.7177  0.2550  0.8458
  112OSM    H3G11668   3.987  -0.013  10.534  0.0196  0.1890  1.4441
  112OSM    C4F11669   3.983   0.091  10.346 -0.3400 -0.5065 -0.4840
  112OSM    H4F11670   3.903   0.162  10.378  0.5700  0.1647  0.3631
  112OSM    H4G11671   3.925   0.012  10.294 -0.7432 -1.2279  0.9912
  112OSM    C5F11672   4.078   0.162  10.249  0.3431 -0.6055 -0.3902
  112OSM    H5F11673   4.143   0.093  10.191 -0.2000 -1.0029 -0.5414
  112OSM    H5G11674   4.143   0.230  10.307  0.2913 -0.2341 -0.7637
  112OSM    C6F11675   4.004   0.243  10.139  0.0695  0.5981 -0.5854
  112OSM    H6F11676   4.072   0.312  10.084 -0.7982  0.4164 -1.9218
  112OSM    H6G11677   3.921   0.300  10.185 -2.0994 -2.9477  0.2797
  112OSM    C7F11678   3.912   0.169  10.038 -1.3086  0.4933 -0.4631
  112OSM    H7F11679   3.835   0.114  10.097  0.4693 -1.4089  0.1966
  112OSM    H7G11680   3.965   0.088   9.983 -1.7906 -1.4749  1.8212
  112OSM    C8F11681   3.832   0.262   9.948 -0.3631 -0.7547  1.1742
  112OSM    H8F11682   3.795   0.347  10.009 -0.4590 -0.1595  0.3104
  112OSM    H8G11683   3.743   0.210   9.907  0.8486 -3.2939  1.5672
  112OSM    C9F11684   3.923   0.310   9.838  0.7312  0.0174  0.2807
  112OSM    H9F11685   4.028   0.328   9.867  1.1510 -1.1777 -0.4218
  112OSM   C10F11686   3.892   0.332   9.713 -0.4244  0.4663  0.1068
  112OSM   H10F11687   3.976   0.371   9.654  0.4506 -0.3487  0.7666
  112OSM   C11F11688   3.756   0.313   9.650  0.4889 -0.2268  0.3402
  112OSM   H11F11689   3.708   0.409   9.621 -2.3420 -2.0777 -1.6602
  112OSM   H11G11690   3.680   0.253   9.705  0.2379 -0.8548 -0.6691
  112OSM   C12F11691   3.786   0.246   9.513  0.1328 -0.0337 -0.2119
  112OSM   H12F11692   3.841   0.150   9.529  0.3091  0.3966  2.0736
  112OSM   H12G11693   3.842   0.324   9.457 -0.7587  2.2607  1.9505
  112OSM   C13F11694   3.654   0.202   9.438 -0.3017 -0.8277 -0.6015
  112OSM   H13F11695   3.589   0.291   9.421  1.1807  0.1524 -1.2907
  112OSM   H13G11696   3.595   0.138   9.508 -0.8912  0.2983 -0.0422
  112OSM   C14F11697   3.682   0.132   9.299 -0.1770  0.6649 -0.4223
  112OSM   H14F11698   3.764   0.058   9.311 -1.5511 -1.0978 -1.4642
  112OSM   H14G11699   3.716   0.199   9.217 -1.2624 -2.1998 -3.4560
  112OSM   C15F11700   3.573   0.046   9.235 -0.3772 -0.7647  0.6064
  112OSM   H15F11701   3.483   0.034   9.298 -0.5413  1.0469  0.7635
  112OSM   H15G11702   3.610  -0.059   9.225 -0.5781 -0.8389  0.6392
  112OSM   C16F11703   3.540   0.107   9.090 -0.0541  0.1055 -0.5511
  112OSM   H16F11704   3.516   0.015   9.033 -0.9914 -1.8029  2.6645
  112OSM   H16G11705   3.629   0.147   9.036  0.8358 -1.9225 -0.6728
  112OSM   C17F11706   3.426   0.205   9.093  0.6636 -0.5260  0.0248
  112OSM   H17F11707   3.460   0.308   9.117  0.4836 -0.5828  0.5353
  112OSM   H17G11708   3.350   0.178   9.170  0.2310 -1.2308 -0.6255
  112OSM   C18F11709   3.354   0.209   8.953  0.4831  0.9868  0.4171
  112OSM   H18F11710   3.349   0.106   8.912 -0.4689  1.2934 -0.2722
  112OSM   H18G11711   3.406   0.274   8.880  1.2174 -2.1382 -2.0789
  112OSM   H18H11712   3.250   0.243   8.972 -0.3114 -2.0498  2.3323
  113OSM      N11713   1.335   2.034  11.156  0.3206  0.2135 -0.0524
  113OSM    C1511714   1.416   2.050  11.282  0.1884 -0.0717 -0.2317
  113OSM   H15A11715   1.478   1.970  11.319 -1.0721  0.4809  3.4784
  113OSM   H15B11716   1.345   2.069  11.361  0.6461  1.5326 -0.1822
  113OSM   H15C11717   1.478   2.137  11.269 -1.2745  1.3316  1.6358
  113OSM    C1411718   1.246   1.911  11.172 -0.3023  0.3433 -0.1512
  113OSM   H14A11719   1.211   1.884  11.073  0.6026 -2.2545  0.1376
  113OSM   H14B11720   1.162   1.939  11.234  1.0919  3.0014  0.6756
  113OSM   H14C11721   1.310   1.831  11.206 -0.0692  0.1909 -0.9224
  113OSM    C1311722   1.245   2.153  11.135 -0.5619  0.1274  0.2332
  113OSM   H13A11723   1.174   2.163  11.216 -1.9230 -2.9897 -0.4469
  113OSM   H13B11724   1.170   2.140  11.059 -1.1626 -3.4701  1.2590
  113OSM   H13C11725   1.291   2.248  11.110 -1.3507  0.3524 -0.4235
  113OSM    C1211726   1.422   2.028  11.031 -0.1782  0.0241  1.1429
  113OSM   H12A11727   1.488   2.113  11.046 -4.1066  3.1444  2.6772
  113OSM   H12B11728   1.362   2.041  10.942  2.0766  1.0168 -0.3191
  113OSM    C1111729   1.508   1.904  11.011 -0.0036 -0.1344  0.3009
  113OSM   H11A11730   1.559   1.908  10.913  2.1037  0.4335  1.3687
  113OSM   H11B11731   1.437   1.818  11.016 -0.3416  0.1357  0.1933
  113OSM      P11732   1.731   1.985  11.120  0.2727 -0.1515 -0.1196
  113OSM    O1311733   1.674   2.115  11.154  0.5186 -0.1207 -0.1466
  113OSM    O1411734   1.830   1.930  11.214  0.4951  0.1327 -0.5175
  113OSM    O1111735   1.791   1.991  10.977  0.3095 -0.5659 -0.2435
  113OSM    O1211736   1.609   1.881  11.111 -0.2259  0.5460 -0.4430
  113OSM    C1S11737   1.857   1.886  10.909  0.1038 -0.6084  0.6557
  113OSM    H1S11738   1.795   1.794  10.918 -3.2669  1.4060 -0.1648
  113OSM    H1T11739   1.960   1.874  10.949  0.0830 -0.2946  0.8074
  113OSM     NF11740   1.935   1.799  10.686 -0.3353  0.0242 -0.2913
  113OSM    HNF11741   2.031   1.820  10.670 -0.2182  0.5537  0.9456
  113OSM    C2S11742   1.861   1.908  10.756  0.2226  0.0564  0.6043
  113OSM    H2S11743   1.758   1.906  10.716  0.2912  0.0289  0.4278
  113OSM    C3S11744   1.904   2.055  10.733  0.7508  0.1403 -0.1351
  113OSM    H3S11745   1.994   2.080  10.793  0.3346 -0.1339  0.6231
  113OSM     O311746   1.804   2.147  10.769  0.1394  0.7325  0.8546
  113OSM    HO311747   1.748   2.092  10.824 -0.3053 -0.3525 -0.6077
  113OSM    C4S11748   1.945   2.081  10.593  0.1781  0.4637  0.4267
  113OSM    H4S11749   2.051   2.066  10.570  0.4267 -1.7760  2.6001
  113OSM    C5S11750   1.864   2.098  10.487 -0.2694  0.0271  0.4516
  113OSM    H5S11751   1.755   2.086  10.494 -0.2012 -3.7646 -2.0039
  113OSM    C6S11752   1.915   2.116  10.351  0.3421  0.0951  0.2971
  113OSM    H6S11753   2.022   2.144  10.337 -0.2360  3.5624  1.7932
  113OSM    H6T11754   1.858   2.196  10.298  0.5307  1.2293  1.7551
  113OSM    C7S11755   1.900   1.986  10.266 -0.2369 -0.1687  0.2732
  113OSM    H7S11756   1.797   1.949  10.286 -1.7107  0.7233 -4.3267
  113OSM    H7T11757   1.965   1.905  10.305 -2.3110 -4.1302 -3.4890
  113OSM    C8S11758   1.933   1.991  10.118 -0.0563  0.2100 -0.3530
  113OSM    H8S11759   1.942   1.888  10.075 -2.3622 -0.0922 -0.2403
  113OSM    H8T11760   2.021   2.057  10.102  0.5972 -0.6506 -0.3963
  113OSM    C9S11761   1.816   2.045  10.028 -0.1428  0.2338 -0.4711
  113OSM    H9S11762   1.784   2.144  10.068 -1.9368 -0.7699  0.7607
  113OSM    H9T11763   1.733   1.972  10.040  0.7553 -0.9016 -0.9720
  113OSM   C10S11764   1.860   2.057   9.878 -0.1253 -0.1441 -0.0493
  113OSM   H10S11765   1.896   1.959   9.841 -1.5923 -1.1468  1.0808
  113OSM   H10T11766   1.947   2.126   9.868 -1.8086  1.9552 -1.1638
  113OSM   C11S11767   1.748   2.107   9.784  0.6469 -0.8124 -0.8719
  113OSM   H11S11768   1.711   2.205   9.823  2.3340 -0.0256 -1.1550
  113OSM   H11T11769   1.658   2.042   9.790 -0.8534  1.2812  1.5447
  113OSM   C12S11770   1.786   2.117   9.637 -0.2570 -0.0903 -0.2508
  113OSM   H12S11771   1.849   2.030   9.608 -2.4346 -2.0854  0.6592
  113OSM   H12T11772   1.836   2.216   9.623 -1.7109  1.1232  2.4292
  113OSM   C13S11773   1.662   2.107   9.548  0.1931  0.2644 -0.2941
  113OSM   H13S11774   1.567   2.138   9.597  1.3446  1.1950  1.4664
  113OSM   H13T11775   1.651   2.003   9.512 -1.5048  0.7993 -1.4140
  113OSM   C14S11776   1.665   2.203   9.428 -0.2960 -0.3362 -0.3224
  113OSM   H14S11777   1.698   2.300   9.470 -0.0760 -0.5238 -0.0551
  113OSM   H14T11778   1.565   2.219   9.382 -0.1388 -0.5806 -0.7603
  113OSM   C15S11779   1.770   2.158   9.321 -0.5741  0.3753  0.4203
  113OSM   H15S11780   1.763   2.051   9.293  0.5246  0.5285 -0.5394
  113OSM   H15T11781   1.872   2.178   9.360 -1.0394  4.4664  0.0391
  113OSM   C16S11782   1.791   2.247   9.201  0.1034  0.3010  0.5036
  113OSM   H16S11783   1.883   2.207   9.155 -0.6153  0.9168 -1.6116
  113OSM   H16T11784   1.804   2.355   9.223  1.1502  0.4134 -0.6250
  113OSM   C17S11785   1.670   2.241   9.104  0.3120  0.5720  0.5835
  113OSM   H17S11786   1.576   2.285   9.146  0.5173  1.0728  0.5284
  113OSM   H17T11787   1.649   2.133   9.089  3.6883 -0.3906  1.9781
  113OSM   C18S11788   1.693   2.310   8.971 -0.3902 -0.5106 -0.5131
  113OSM   H18S11789   1.605   2.286   8.908 -0.1243  0.5730 -1.3307
  113OSM   H18T11790   1.790   2.274   8.930 -1.0575 -1.3284 -1.4144
  113OSM   H18U11791   1.687   2.421   8.981  2.1409 -0.5041  2.9821
  113OSM    C1F11792   1.897   1.672  10.689  0.1810  0.2336  0.2472
  113OSM     OF11793   1.795   1.639  10.751  0.0032 -0.3470 -0.5158
  113OSM    C2F11794   2.006   1.578  10.647  0.7128  0.2427 -0.6487
  113OSM    H2F11795   1.985   1.478  10.690  4.3030 -0.7475 -0.8651
  113OSM    H2G11796   2.105   1.604  10.692  1.4087 -0.8869 -1.4805
  113OSM    C3F11797   2.002   1.556  10.492  0.5294  0.2071 -0.3563
  113OSM    H3F11798   2.015   1.661  10.457 -0.8454  0.0388 -1.4329
  113OSM    H3G11799   1.904   1.516  10.459  1.5612 -2.2798 -0.6532
  113OSM    C4F11800   2.121   1.465  10.438  0.0455  0.2211  0.5381
  113OSM    H4F11801   2.119   1.374  10.502 -3.3098  0.4998  1.0414
  113OSM    H4G11802   2.221   1.512  10.448 -0.9727  2.2822  1.8216
  113OSM    C5F11803   2.101   1.421  10.285 -0.1624  0.1792 -0.5858
  113OSM    H5F11804   1.991   1.405  10.278 -0.2500  0.7193 -0.4774
  113OSM    H5G11805   2.148   1.321  10.278 -0.2045  0.0601  0.6287
  113OSM    C6F11806   2.155   1.525  10.192  0.1012 -0.1613  0.2545
  113OSM    H6F11807   2.266   1.527  10.203  0.1470 -1.2210  0.0620
  113OSM    H6G11808   2.108   1.622  10.218 -2.5277 -0.4845 -2.6922
  113OSM    C7F11809   2.129   1.493  10.040 -0.5364 -0.4463  0.2385
  113OSM    H7F11810   2.020   1.494  10.022 -0.9098 -1.7504  2.0832
  113OSM    H7G11811   2.159   1.388  10.018  1.7052  0.5668 -1.9741
  113OSM    C8F11812   2.221   1.581   9.946  0.1946  0.5369 -0.1756
  113OSM    H8F11813   2.211   1.550   9.839 -0.0424  0.1182 -0.0347
  113OSM    H8G11814   2.328   1.558   9.965 -0.0042  0.4419  0.8942
  113OSM    C9F11815   2.189   1.732   9.955  0.7620  0.3766 -0.0249
  113OSM    H9F11816   2.218   1.779  10.050  0.0015  2.1890 -0.6371
  113OSM   C10F11817   2.139   1.805   9.859 -0.0692  0.2624 -0.3739
  113OSM   H10F11818   2.124   1.913   9.872  1.7686  0.3811  1.3905
  113OSM   C11F11819   2.103   1.757   9.714  0.0128  0.0774 -0.3488
  113OSM   H11F11820   1.997   1.789   9.702 -0.5035 -0.0289  2.9609
  113OSM   H11G11821   2.119   1.650   9.689  1.6227  0.8859 -3.1049
  113OSM   C12F11822   2.200   1.832   9.615  0.1567 -0.9195 -0.2808
  113OSM   H12F11823   2.307   1.802   9.618  0.5190  0.3266 -0.1545
  113OSM   H12G11824   2.206   1.938   9.651 -1.3414 -0.8429 -0.1850
  113OSM   C13F11825   2.146   1.853   9.471  0.6859 -0.5995  0.3197
  113OSM   H13F11826   2.209   1.930   9.421  0.1179  1.6351  2.7852
  113OSM   H13G11827   2.040   1.887   9.474 -0.0588 -2.8156  1.4156
  113OSM   C14F11828   2.147   1.728   9.387 -0.9046  0.7605 -0.8240
  113OSM   H14F11829   2.092   1.645   9.435  1.5565 -1.1278 -1.1035
  113OSM   H14G11830   2.250   1.687   9.386 -0.8980  0.7384  0.2169
  113OSM   C15F11831   2.097   1.748   9.247 -0.7390  0.3079 -0.3520
  113OSM   H15F11832   2.011   1.818   9.255  1.4748  3.0683  1.3498
  113OSM   H15G11833   2.072   1.647   9.209  1.6333 -0.4612 -0.0484
  113OSM   C16F11834   2.211   1.810   9.153 -0.2477 -0.4843 -0.6452
  113OSM   H16F11835   2.312   1.775   9.187 -0.1645  1.9328  1.9850
  113OSM   H16G11836   2.213   1.918   9.178 -0.2436 -1.1200  2.5471
  113OSM   C17F11837   2.196   1.781   9.007 -0.3757 -1.0568  0.3386
  113OSM   H17F11838   2.098   1.813   8.968  0.7065 -0.1630 -1.7922
  113OSM   H17G11839   2.194   1.670   9.002 -2.4543 -1.0785  0.8985
  113OSM   C18F11840   2.299   1.849   8.917 -1.2797 -0.0805 -0.0750
  113OSM   H18F11841   2.259   1.949   8.890 -1.7245 -0.4317 -0.7555
  113OSM   H18G11842   2.317   1.795   8.821 -0.0157 -0.6514  0.4697
  113OSM   H18H11843   2.397   1.866   8.966 -1.3327  4.7560 -1.1289
  114OSM      N11844   1.675   6.142  11.232 -0.3590 -0.0012  0.2468
  114OSM    C1511845   1.543   6.132  11.298  0.3810 -0.3799  0.8201
  114OSM   H15A11846   1.528   6.031  11.333  3.2971 -1.0302  0.4376
  114OSM   H15B11847   1.460   6.162  11.237  0.6722  0.9551  1.0335
  114OSM   H15C11848   1.543   6.207  11.376  1.6027  1.2842 -0.6774
  114OSM    C1411849   1.676   6.290  11.197 -0.1319 -0.4497  0.0079
  114OSM   H14A11850   1.653   6.356  11.279 -1.3057  0.4341 -1.0009
  114OSM   H14B11851   1.598   6.311  11.125  1.8798  0.1024 -2.1243
  114OSM   H14C11852   1.770   6.314  11.150  0.0827  1.5991  1.3923
  114OSM    C1311853   1.786   6.116  11.327  0.0200  0.2002  0.0393
  114OSM   H13A11854   1.789   6.013  11.358  1.4334 -0.6659 -2.6559
  114OSM   H13B11855   1.776   6.186  11.409 -4.1969 -0.7364  0.5166
  114OSM   H13C11856   1.885   6.136  11.289  0.1014  0.4548  0.3834
  114OSM    C1211857   1.677   6.070  11.098 -0.5459 -0.2356 -0.3703
  114OSM   H12A11858   1.765   6.107  11.048 -2.4703  2.3235 -2.1873
  114OSM   H12B11859   1.594   6.084  11.030 -1.8963 -2.2225  0.7597
  114OSM    C1111860   1.699   5.917  11.109 -0.5918  0.0607 -0.2070
  114OSM   H11A11861   1.763   5.892  11.196 -0.2413  5.0450  1.3121
  114OSM   H11B11862   1.758   5.885  11.020  0.4185  0.8417  0.1556
  114OSM      P11863   1.470   5.871  11.002  0.6438 -0.3104  0.1390
  114OSM    O1311864   1.374   5.757  10.996 -0.6667  0.2617  0.5909
  114OSM    O1411865   1.409   6.005  11.020 -0.4744 -0.3694  0.4425
  114OSM    O1111866   1.555   5.863  10.869  0.7370 -0.0826 -0.4064
  114OSM    O1211867   1.576   5.845  11.113  0.4606 -0.4565  0.1175
  114OSM    C1S11868   1.603   5.747  10.813 -0.7701 -0.2707  0.0736
  114OSM    H1S11869   1.522   5.674  10.796  0.5106 -1.9405  0.8105
  114OSM    H1T11870   1.659   5.688  10.889 -1.3992 -0.5478  0.3282
  114OSM     NF11871   1.731   5.635  10.635 -0.2282  0.4081  0.0753
  114OSM    HNF11872   1.828   5.614  10.647  0.0769  2.2033  1.2468
  114OSM    C2S11873   1.675   5.762  10.679  0.1368 -0.9483 -0.9725
  114OSM    H2S11874   1.603   5.809  10.609  1.4313 -0.7007 -2.1853
  114OSM    C3S11875   1.785   5.874  10.694  0.1816 -0.3734 -0.0727
  114OSM    H3S11876   1.867   5.848  10.764 -0.3555  1.5446  1.3430
  114OSM     O311877   1.737   5.997  10.755  0.1199 -0.6295  0.3008
  114OSM    HO311878   1.655   5.965  10.795 -1.6236 -1.3617 -3.4758
  114OSM    C4S11879   1.839   5.907  10.567  0.2698  0.1566  1.0521
  114OSM    H4S11880   1.766   5.949  10.496 -1.0596 -0.8847  1.7457
  114OSM    C5S11881   1.967   5.900  10.522  0.6368  0.5028  0.2401
  114OSM    H5S11882   2.037   5.835  10.576  1.7596  1.6607  0.2111
  114OSM    C6S11883   2.016   5.935  10.383 -0.2678  0.4806 -0.0353
  114OSM    H6S11884   2.108   5.876  10.363 -0.3428  0.0732  0.7569
  114OSM    H6T11885   2.039   6.044  10.387 -0.1252  0.4530 -0.0987
  114OSM    C7S11886   1.910   5.891  10.277 -0.1111 -0.3254 -0.2527
  114OSM    H7S11887   1.810   5.937  10.297  0.2807  1.1685 -1.4973
  114OSM    H7T11888   1.897   5.784  10.304  0.8307 -0.3958 -0.0378
  114OSM    C8S11889   1.946   5.921  10.130 -0.5703 -0.0087 -0.5757
  114OSM    H8S11890   2.040   5.870  10.104  0.6810  0.6925  2.1314
  114OSM    H8T11891   1.978   6.028  10.124  1.2669 -0.5659 -1.1448
  114OSM    C9S11892   1.837   5.879  10.024  0.3364 -0.0065  0.7501
  114OSM    H9S11893   1.749   5.946  10.034  1.2143  1.0321  1.7303
  114OSM    H9T11894   1.816   5.772  10.044 -0.6360  0.3175  1.5314
  114OSM   C10S11895   1.891   5.901   9.886  0.1522 -0.1527 -0.0660
  114OSM   H10S11896   1.976   5.830   9.874  0.2656 -0.2120  0.9666
  114OSM   H10T11897   1.923   6.007   9.886  1.8074 -0.6190 -0.0019
  114OSM   C11S11898   1.800   5.866   9.767  0.5404  0.6154 -0.7800
  114OSM   H11S11899   1.716   5.938   9.753 -0.5172 -0.8284 -2.1699
  114OSM   H11T11900   1.733   5.778   9.780  0.6950  0.7652  1.2621
  114OSM   C12S11901   1.852   5.853   9.624  0.2901  0.0050  0.2801
  114OSM   H12S11902   1.934   5.928   9.627  1.0076 -0.7822  0.7421
  114OSM   H12T11903   1.777   5.880   9.548  0.8064 -0.2347 -0.3243
  114OSM   C13S11904   1.911   5.715   9.600  0.0775 -0.0834 -0.2368
  114OSM   H13S11905   1.824   5.646   9.611  0.1094 -0.6385 -2.7709
  114OSM   H13T11906   1.984   5.693   9.681 -0.9140  0.4732  0.8279
  114OSM   C14S11907   1.980   5.703   9.465  0.1636  0.0053 -0.0645
  114OSM   H14S11908   2.023   5.602   9.446  2.3064  0.8390  0.0825
  114OSM   H14T11909   2.077   5.756   9.471  1.1422 -1.6627 -0.2840
  114OSM   C15S11910   1.900   5.737   9.343 -0.3509  0.1430  0.9514
  114OSM   H15S11911   1.884   5.847   9.347  2.3617  0.7419 -1.6023
  114OSM   H15T11912   1.808   5.675   9.339  0.0226 -0.3702 -0.6365
  114OSM   C16S11913   1.978   5.706   9.211  0.3346  0.1020  0.1253
  114OSM   H16S11914   2.002   5.597   9.213 -2.3330 -0.5609  0.2670
  114OSM   H16T11915   2.070   5.768   9.215  0.5257 -0.1111 -0.7177
  114OSM   C17S11916   1.898   5.736   9.089  0.1257 -0.3151 -0.3426
  114OSM   H17S11917   1.879   5.844   9.068  1.1861 -0.4655 -2.2578
  114OSM   H17T11918   1.794   5.701   9.104  0.2160  0.1735  1.7578
  114OSM   C18S11919   1.963   5.686   8.964  0.0357 -0.5987 -0.5054
  114OSM   H18S11920   1.903   5.712   8.874 -1.1779 -0.5106  0.3097
  114OSM   H18T11921   1.963   5.575   8.973 -1.5191 -0.7794 -2.1659
  114OSM   H18U11922   2.065   5.728   8.957 -0.1522 -0.1196 -0.4118
  114OSM    C1F11923   1.656   5.535  10.599  0.3049  0.2016 -0.0353
  114OSM     OF11924   1.532   5.541  10.592 -0.2075 -0.6774 -0.1967
  114OSM    C2F11925   1.724   5.419  10.542 -0.1449  0.1307  0.2426
  114OSM    H2F11926   1.664   5.325  10.548  0.7456 -0.3930  1.4526
  114OSM    H2G11927   1.824   5.406  10.588  0.8412  2.3019 -1.1467
  114OSM    C3F11928   1.741   5.436  10.389 -0.2401 -0.4726  0.0792
  114OSM    H3F11929   1.821   5.510  10.371 -0.4615 -0.3544 -0.4358
  114OSM    H3G11930   1.646   5.472  10.344  0.5542  1.0549 -0.4197
  114OSM    C4F11931   1.774   5.307  10.313  0.1340 -0.5489  0.2158
  114OSM    H4F11932   1.703   5.223  10.334  1.5419 -1.8796 -0.1782
  114OSM    H4G11933   1.880   5.292  10.343  0.5325  1.8666  0.2188
  114OSM    C5F11934   1.785   5.321  10.156  1.1173  0.2088 -0.4492
  114OSM    H5F11935   1.682   5.328  10.116  1.7340  0.1472 -2.1234
  114OSM    H5G11936   1.822   5.224  10.118  0.7905 -0.4497  0.8442
  114OSM    C6F11937   1.873   5.434  10.108  0.4555  0.0454 -0.1663
  114OSM    H6F11938   1.966   5.418  10.167  0.4663 -3.6460 -0.9252
  114OSM    H6G11939   1.826   5.532  10.134  1.7698  0.9526 -1.0998
  114OSM    C7F11940   1.909   5.429   9.959  0.3147  0.2648 -0.0232
  114OSM    H7F11941   1.954   5.332   9.930 -2.9840 -1.3185 -0.3282
  114OSM    H7G11942   1.989   5.506   9.961  1.0223 -0.4152 -1.2051
  114OSM    C8F11943   1.801   5.474   9.859 -0.0839 -0.1268 -0.1975
  114OSM    H8F11944   1.851   5.512   9.768 -1.9270  3.1278  0.0010
  114OSM    H8G11945   1.757   5.565   9.905  0.2386 -0.0099 -0.1245
  114OSM    C9F11946   1.694   5.379   9.824 -0.1201  0.3759  0.3668
  114OSM    H9F11947   1.607   5.366   9.889 -0.2024 -2.2758 -0.1521
  114OSM   C10F11948   1.690   5.310   9.710 -0.5601  0.1469 -0.1256
  114OSM   H10F11949   1.611   5.234   9.696 -1.3281  1.0202 -0.6407
  114OSM   C11F11950   1.794   5.315   9.601 -0.0252  0.6426 -0.0520
  114OSM   H11F11951   1.807   5.211   9.565 -2.3175  1.4340 -3.7467
  114OSM   H11G11952   1.896   5.348   9.631  1.1815 -0.8856 -2.2637
  114OSM   C12F11953   1.767   5.388   9.463 -0.6594 -0.0024  0.0303
  114OSM   H12F11954   1.846   5.362   9.389 -1.1384 -1.8162  0.1118
  114OSM   H12G11955   1.786   5.495   9.484  1.9865 -0.0298 -1.7289
  114OSM   C13F11956   1.641   5.360   9.396  0.3483 -0.2674 -0.2208
  114OSM   H13F11957   1.554   5.363   9.465  1.1750 -0.9277  0.8928
  114OSM   H13G11958   1.645   5.252   9.368 -0.1385 -0.5992  0.9317
  114OSM   C14F11959   1.615   5.435   9.265 -0.5520  0.5095 -0.0208
  114OSM   H14F11960   1.699   5.413   9.195 -2.2547 -0.2526 -1.9241
  114OSM   H14G11961   1.600   5.543   9.288  2.8844  1.2684 -0.7332
  114OSM   C15F11962   1.499   5.384   9.183  0.4869 -0.9806  0.5937
  114OSM   H15F11963   1.416   5.434   9.236  1.2756  0.9424  0.1065
  114OSM   H15G11964   1.493   5.273   9.193  0.5041 -0.9570  0.8733
  114OSM   C16F11965   1.504   5.421   9.035 -0.4599 -0.0355  0.6988
  114OSM   H16F11966   1.406   5.383   9.000  0.1427 -1.7002  0.7492
  114OSM   H16G11967   1.587   5.367   8.985  0.6771  1.0476  1.3644
  114OSM   C17F11968   1.523   5.569   8.998 -0.0262  0.4014 -0.7815
  114OSM   H17F11969   1.624   5.594   9.037  0.7638 -1.1414 -1.7262
  114OSM   H17G11970   1.439   5.626   9.042 -2.1055 -1.7511 -1.7420
  114OSM   C18F11971   1.523   5.585   8.847  0.3218 -0.3786 -0.3202
  114OSM   H18F11972   1.525   5.691   8.813 -1.5256 -0.3244 -0.3662
  114OSM   H18G11973   1.429   5.543   8.805  0.6733 -0.0430 -1.4655
  114OSM   H18H11974   1.613   5.529   8.815  0.4702 -0.9793  1.0822
  115OSM      N11975   5.146   5.096  10.861  0.6591  0.2966  0.1955
  115OSM    C1511976   5.038   5.194  10.837 -0.4727  0.8173 -0.7623
  115OSM   H15A11977   4.968   5.190  10.919  0.4114 -0.8541 -0.0365
  115OSM   H15B11978   4.981   5.164  10.750  0.6097  1.9894 -1.9149
  115OSM   H15C11979   5.073   5.293  10.813 -2.0587  0.9510 -2.8016
  115OSM    C1411980   5.074   4.974  10.911  0.3975  0.3165 -0.4807
  115OSM   H14A11981   5.140   4.888  10.905  0.7341  0.2434  2.6764
  115OSM   H14B11982   4.980   4.958  10.859  0.0194 -1.7401  0.6968
  115OSM   H14C11983   5.030   4.979  11.009 -1.3508 -2.7442 -0.9562
  115OSM    C1311984   5.216   5.083  10.729  0.5670 -0.7412  0.3400
  115OSM   H13A11985   5.279   5.170  10.719 -1.5221  0.9118  0.9059
  115OSM   H13B11986   5.148   5.073  10.645  1.1099 -0.9289 -0.0835
  115OSM   H13C11987   5.285   5.001  10.742 -1.2833 -2.3300  0.5390
  115OSM    C1211988   5.237   5.148  10.969  1.0147  0.0946 -0.3891
  115OSM   H12A11989   5.319   5.079  10.983 -1.3733 -2.3999  2.6295
  115OSM   H12B11990   5.185   5.155  11.063  0.8704 -1.2341 -0.3419
  115OSM    C1111991   5.318   5.280  10.950  0.2113 -0.3214  0.0140
  115OSM   H11A11992   5.373   5.307  11.042 -0.6044  1.6190 -0.0228
  115OSM   H11B11993   5.258   5.372  10.930 -0.4196 -0.7257  0.0167
  115OSM      P11994   5.470   5.383  10.768 -0.2772  0.4787  0.4758
  115OSM    O1311995   5.453   5.503  10.842  0.2813 -0.4973 -0.0744
  115OSM    O1411996   5.606   5.356  10.713  0.4148  0.1590  0.1809
  115OSM    O1111997   5.366   5.386  10.654 -0.5043  0.3529  0.1583
  115OSM    O1211998   5.420   5.260  10.854 -0.2151  0.2000 -0.3089
  115OSM    C1S11999   5.370   5.479  10.547 -0.0370  0.0119  0.0090
  115OSM    H1S12000   5.450   5.447  10.477 -0.4841 -2.8510  0.6740
  115OSM    H1T12001   5.374   5.584  10.582 -1.3020  0.3007 -0.6329
  115OSM     NF12002   5.259   5.554  10.354 -0.1498  0.0076 -0.0687
  115OSM    HNF12003   5.226   5.648  10.351  1.7140  0.8837  2.6383
  115OSM    C2S12004   5.235   5.475  10.469 -0.1591  0.2326 -0.1648
  115OSM    H2S12005   5.229   5.366  10.445  2.0943  0.2829 -1.2042
  115OSM    C3S12006   5.120   5.526  10.559 -0.7865 -0.9934  0.4391
  115OSM    H3S12007   5.139   5.632  10.586  1.4291 -1.1213 -0.3706
  115OSM     O312008   5.114   5.457  10.682  0.3964  0.4595  0.7020
  115OSM    HO312009   5.186   5.393  10.670  0.1984  0.0580  1.5619
  115OSM    C4S12010   4.996   5.509  10.485 -0.1877 -0.3263  0.4486
  115OSM    H4S12011   4.966   5.403  10.476 -1.0739 -0.0350 -0.1350
  115OSM    C5S12012   4.922   5.608  10.454  0.4872 -0.0083  0.3945
  115OSM    H5S12013   4.930   5.711  10.490  0.9378  1.2748 -3.0025
  115OSM    C6S12014   4.799   5.604  10.365  0.2670  0.4384  0.0118
  115OSM    H6S12015   4.799   5.683  10.287  0.9899  0.2524 -0.1895
  115OSM    H6T12016   4.708   5.611  10.427  1.4937  0.9911  1.8459
  115OSM    C7S12017   4.804   5.469  10.277 -0.1332  0.4774  0.0764
  115OSM    H7S12018   4.776   5.385  10.345  0.8807  0.1715  0.1275
  115OSM    H7T12019   4.907   5.446  10.240 -0.2305  2.0290 -1.2724
  115OSM    C8S12020   4.714   5.484  10.153  0.2661 -0.5893  0.1763
  115OSM    H8S12021   4.738   5.578  10.099  0.1909 -0.2422  0.7415
  115OSM    H8T12022   4.611   5.484  10.195  0.6223 -2.1086  1.1157
  115OSM    C9S12023   4.717   5.365  10.063 -0.0882  0.2824 -0.2155
  115OSM    H9S12024   4.700   5.276  10.127  1.4726  1.7407  2.4273
  115OSM    H9T12025   4.821   5.353  10.026 -0.0948  0.3506 -0.2573
  115OSM   C10S12026   4.623   5.366   9.939 -0.6104  0.4012 -0.6982
  115OSM   H10S12027   4.531   5.407   9.986 -0.0317  1.4446 -0.4328
  115OSM   H10T12028   4.589   5.264   9.912 -0.9476 -0.1807  1.7131
  115OSM   C11S12029   4.680   5.447   9.822 -0.0012 -0.4728 -0.4945
  115OSM   H11S12030   4.781   5.416   9.787  1.0794  1.4012  0.8073
  115OSM   H11T12031   4.709   5.552   9.841  1.4044 -0.9337  0.0479
  115OSM   C12S12032   4.602   5.443   9.687 -0.2767 -0.3460 -0.1139
  115OSM   H12S12033   4.537   5.533   9.690  1.1027  0.6559  1.4327
  115OSM   H12T12034   4.527   5.361   9.682  1.1214 -1.6172 -0.7782
  115OSM   C13S12035   4.703   5.446   9.564  0.2797  0.1081  0.6575
  115OSM   H13S12036   4.765   5.355   9.579  0.8152  0.4493  0.5849
  115OSM   H13T12037   4.777   5.529   9.570  1.0177 -0.6068  2.1120
  115OSM   C14S12038   4.623   5.434   9.423  0.1776 -0.0604 -0.4203
  115OSM   H14S12039   4.578   5.532   9.396  0.5376  0.6713  1.4498
  115OSM   H14T12040   4.542   5.360   9.440  0.1217 -0.1526 -1.0822
  115OSM   C15S12041   4.706   5.365   9.311  0.6737  0.0846 -0.7778
  115OSM   H15S12042   4.749   5.271   9.353 -0.7971  0.0624  0.8156
  115OSM   H15T12043   4.797   5.426   9.292  0.8033 -0.6855 -2.9308
  115OSM   C16S12044   4.631   5.337   9.178 -0.7444 -0.4090  0.6627
  115OSM   H16S12045   4.605   5.439   9.142  0.6115 -0.3847 -0.2966
  115OSM   H16T12046   4.536   5.282   9.199 -1.4738 -0.0795 -1.5348
  115OSM   C17S12047   4.722   5.265   9.077  0.4669 -0.5015  0.0443
  115OSM   H17S12048   4.696   5.160   9.103 -0.3105  0.1301  2.0057
  115OSM   H17T12049   4.830   5.283   9.099  0.2619 -0.8422  1.4246
  115OSM   C18S12050   4.682   5.274   8.928  0.0873  0.1388  0.4741
  115OSM   H18S12051   4.575   5.247   8.919  0.4748 -1.0974 -0.9272
  115OSM   H18T12052   4.752   5.210   8.870  1.1064  0.6448  1.1239
  115OSM   H18U12053   4.691   5.378   8.889  1.2622 -0.2889 -0.4747
  115OSM    C1F12054   5.341   5.520  10.251  0.9288  0.0173  0.1494
  115OSM     OF12055   5.391   5.407  10.245  0.1502 -0.0445  0.0672
  115OSM    C2F12056   5.346   5.613  10.134  0.1310  0.0195 -0.6070
  115OSM    H2F12057   5.373   5.710  10.180  0.4971  0.1702 -1.1278
  115OSM    H2G12058   5.243   5.617  10.094 -0.8313 -1.0073  1.5959
  115OSM    C3F12059   5.446   5.583  10.022  0.0624  0.3577 -0.9269
  115OSM    H3F12060   5.432   5.476   9.999 -0.5186  0.6140 -1.8530
  115OSM    H3G12061   5.548   5.589  10.065  0.5220 -0.1962 -1.9214
  115OSM    C4F12062   5.406   5.642   9.885 -0.7102 -0.1301 -0.1262
  115OSM    H4F12063   5.426   5.752   9.888 -1.1625  0.0209 -1.7296
  115OSM    H4G12064   5.300   5.627   9.858 -1.4778 -1.8336  3.2170
  115OSM    C5F12065   5.489   5.578   9.770  0.4236  0.4034 -0.0129
  115OSM    H5F12066   5.483   5.468   9.780  0.2005  0.5322  1.4381
  115OSM    H5G12067   5.598   5.601   9.775  0.5147 -0.3180  1.9563
  115OSM    C6F12068   5.446   5.633   9.638 -0.0730  0.5670  0.2010
  115OSM    H6F12069   5.438   5.744   9.636 -3.8549  0.4241 -0.5721
  115OSM    H6G12070   5.340   5.600   9.637  0.3008 -0.7587  1.4443
  115OSM    C7F12071   5.538   5.588   9.518  0.6524 -0.8113 -0.1070
  115OSM    H7F12072   5.547   5.477   9.526  2.8897 -0.6766 -0.1202
  115OSM    H7G12073   5.637   5.626   9.550 -0.3564  1.0545  0.9532
  115OSM    C8F12074   5.493   5.642   9.383  0.4101 -0.1307 -0.2857
  115OSM    H8F12075   5.475   5.750   9.400  0.0458 -0.0683 -1.0516
  115OSM    H8G12076   5.397   5.597   9.351  1.2834 -1.1301 -1.5917
  115OSM    C9F12077   5.605   5.616   9.286  0.4728  0.4499  0.2636
  115OSM    H9F12078   5.679   5.696   9.287  2.3887 -1.2597  0.5692
  115OSM   C10F12079   5.603   5.525   9.186 -0.2720 -0.1916  0.8795
  115OSM   H10F12080   5.693   5.528   9.122  0.4182  0.6415  1.8505
  115OSM   C11F12081   5.488   5.429   9.156  0.6797  0.0831  0.7958
  115OSM   H11F12082   5.410   5.423   9.235 -0.8075 -1.1433 -0.6714
  115OSM   H11G12083   5.537   5.330   9.141  2.4294  0.7969  1.5721
  115OSM   C12F12084   5.413   5.468   9.016 -0.2902 -0.2491 -0.6292
  115OSM   H12F12085   5.488   5.453   8.935  0.7976 -0.9893  0.4685
  115OSM   H12G12086   5.370   5.570   9.016 -1.3806 -0.5982  2.2649
  115OSM   C13F12087   5.298   5.374   8.983 -0.1467  0.2331 -0.7253
  115OSM   H13F12088   5.219   5.383   9.061 -0.4492  0.7459 -1.0897
  115OSM   H13G12089   5.344   5.273   8.993 -3.2786 -1.2079  0.3628
  115OSM   C14F12090   5.240   5.390   8.840  0.1330  0.0146 -0.4383
  115OSM   H14F12091   5.319   5.363   8.767  2.5186 -0.4950  2.1376
  115OSM   H14G12092   5.223   5.499   8.826  1.1622  0.0597 -1.5489
  115OSM   C15F12093   5.110   5.308   8.832  0.3028 -0.4839 -0.5373
  115OSM   H15F12094   5.040   5.369   8.893  1.7474  1.9707 -1.1867
  115OSM   H15G12095   5.119   5.207   8.878  0.8069 -0.5293 -0.7227
  115OSM   C16F12096   5.059   5.297   8.685 -0.1492  0.7949 -0.2603
  115OSM   H16F12097   4.960   5.247   8.691  0.8339 -1.4603 -1.2995
  115OSM   H16G12098   5.118   5.221   8.629  0.4372 -0.1282  1.5036
  115OSM   C17F12099   5.054   5.427   8.609 -0.4338 -0.3797 -0.2939
  115OSM   H17F12100   5.156   5.454   8.574 -0.3526  0.3094  0.4306
  115OSM   H17G12101   5.010   5.500   8.681  0.6120 -1.0896  1.1170
  115OSM   C18F12102   4.976   5.423   8.480 -0.1986  0.3991 -0.1277
  115OSM   H18F12103   4.964   5.528   8.445 -1.2870  0.1117 -0.6834
  115OSM   H18G12104   4.876   5.375   8.487  0.1179 -0.4783 -1.2306
  115OSM   H18H12105   5.034   5.362   8.407  1.4076  0.4177  1.0873
  116OSM      N12106   3.090   0.875  10.979  0.6684  0.3028  0.2363
  116OSM    C1512107   3.081   0.754  10.892 -0.9281 -0.8240  0.2947
  116OSM   H15A12108   3.045   0.783  10.795 -0.7046  2.5787  1.1153
  116OSM   H15B12109   3.007   0.688  10.936 -1.6484 -0.3877 -0.2487
  116OSM   H15C12110   3.176   0.703  10.886  1.5170  3.2887  0.3121
  116OSM    C1412111   3.148   0.830  11.111  0.5073  0.1661  0.8151
  116OSM   H14A12112   3.162   0.920  11.168  1.6498 -0.7180  1.9749
  116OSM   H14B12113   3.238   0.773  11.092 -0.7422 -1.1688 -1.6230
  116OSM   H14C12114   3.081   0.761  11.161 -1.0999 -0.0210 -1.4182
  116OSM    C1312115   3.185   0.973  10.917  0.6292  0.0914 -0.5761
  116OSM   H13A12116   3.287   0.954  10.948  0.6475 -0.1649 -0.7898
  116OSM   H13B12117   3.150   1.068  10.955 -0.0776 -1.5669  3.4439
  116OSM   H13C12118   3.181   0.983  10.810 -0.8393  0.7893 -0.4723
  116OSM    C1212119   2.951   0.936  10.994  0.8486  0.5633  0.3518
  116OSM   H12A12120   2.881   0.857  11.017  2.0826 -1.1262 -1.3966
  116OSM   H12B12121   2.918   0.972  10.898  0.5271  0.1494  0.3080
  116OSM    C1112122   2.933   1.049  11.100 -0.6286  1.1407 -0.4659
  116OSM   H11A12123   2.971   1.019  11.201 -1.2857  1.6552 -0.0587
  116OSM   H11B12124   2.824   1.069  11.110 -0.6974  1.5327 -1.9056
  116OSM      P12125   2.938   1.276  10.974  0.3230 -0.3606  0.2427
  116OSM    O1312126   2.808   1.313  11.036  0.0713  0.3834  0.4274
  116OSM    O1412127   3.035   1.382  10.967  0.0755 -0.2532 -0.2254
  116OSM    O1112128   2.917   1.205  10.831  0.1548 -0.0691 -0.1140
  116OSM    O1212129   3.007   1.169  11.068 -0.1833 -0.3743 -0.3064
  116OSM    C1S12130   2.968   1.271  10.718 -0.4186  0.5298  0.2343
  116OSM    H1S12131   3.059   1.216  10.686 -1.3939 -0.7831 -0.3720
  116OSM    H1T12132   2.985   1.379  10.743  1.6746 -0.1172  2.0141
  116OSM     NF12133   2.939   1.334  10.482 -0.0273 -0.0971  0.1403
  116OSM    HNF12134   2.919   1.431  10.473  1.0145  0.0397 -0.9125
  116OSM    C2S12135   2.879   1.260  10.594 -0.4427  0.4453 -0.3339
  116OSM    H2S12136   2.869   1.152  10.570 -0.2533 -0.4306  2.9496
  116OSM    C3S12137   2.732   1.306  10.637 -0.3270 -0.3485 -0.2362
  116OSM    H3S12138   2.749   1.403  10.688  1.1021 -0.7383  0.0718
  116OSM     O312139   2.664   1.216  10.728  0.3842 -0.2881  0.1803
  116OSM    HO312140   2.733   1.180  10.785  1.2200  0.1376 -0.5324
  116OSM    C4S12141   2.639   1.322  10.516  0.0869  0.1596 -0.3934
  116OSM    H4S12142   2.652   1.421  10.470  0.4639 -0.8958 -2.6649
  116OSM    C5S12143   2.558   1.233  10.460  0.5362  0.2286  0.1738
  116OSM    H5S12144   2.549   1.129  10.494  1.2418  0.1927  0.2525
  116OSM    C6S12145   2.464   1.263  10.340 -0.4470 -0.0520 -0.4859
  116OSM    H6S12146   2.445   1.372  10.329 -0.2687 -0.1610 -2.0648
  116OSM    H6T12147   2.366   1.216  10.362 -0.2034 -0.1657  0.4422
  116OSM    C7S12148   2.513   1.210  10.203  0.7656 -0.4595  0.0416
  116OSM    H7S12149   2.519   1.102  10.227  0.5543 -0.9146 -1.8280
  116OSM    H7T12150   2.615   1.247  10.178  0.0945 -0.5008 -3.0790
  116OSM    C8S12151   2.416   1.248  10.092 -0.3383  0.1409  0.0528
  116OSM    H8S12152   2.417   1.358  10.101 -0.5850  0.0177  1.9279
  116OSM    H8T12153   2.318   1.205  10.123 -0.5545 -0.7985 -1.7833
  116OSM    C9S12154   2.459   1.193   9.955 -0.0636  0.0104 -0.1453
  116OSM    H9S12155   2.458   1.082   9.956 -0.7223  0.0018  1.6205
  116OSM    H9T12156   2.568   1.216   9.951 -0.2076  0.6941 -0.3206
  116OSM   C10S12157   2.403   1.268   9.832  0.2116  0.3451 -0.2028
  116OSM   H10S12158   2.466   1.245   9.743 -1.0457  2.8346 -1.8714
  116OSM   H10T12159   2.404   1.377   9.856 -2.8501  0.1184  1.4904
  116OSM   C11S12160   2.269   1.219   9.784  0.7069 -0.6821 -0.5367
  116OSM   H11S12161   2.192   1.226   9.864 -0.1662  1.4103 -1.4716
  116OSM   H11T12162   2.278   1.112   9.756 -2.3527 -1.0574 -0.4660
  116OSM   C12S12163   2.200   1.287   9.658 -0.1916 -0.0334  0.6078
  116OSM   H12S12164   2.200   1.396   9.682  2.4310  0.5917 -1.7788
  116OSM   H12T12165   2.093   1.258   9.659  0.2261 -1.6630  2.0912
  116OSM   C13S12166   2.258   1.258   9.522  0.2900 -0.4278  0.5033
  116OSM   H13S12167   2.254   1.150   9.498 -0.3063 -0.6537  1.5919
  116OSM   H13T12168   2.367   1.278   9.523  0.6336 -1.8395  3.9000
  116OSM   C14S12169   2.176   1.341   9.410  0.0864 -0.8872 -0.1712
  116OSM   H14S12170   2.208   1.447   9.420 -1.2830 -0.5845  1.3482
  116OSM   H14T12171   2.068   1.343   9.437 -0.3974 -0.2356 -1.9992
  116OSM   C15S12172   2.202   1.295   9.268  0.0704  0.1063  0.4154
  116OSM   H15S12173   2.169   1.189   9.274 -1.9263  0.6866  0.2096
  116OSM   H15T12174   2.312   1.301   9.252  0.0529 -1.2241 -0.3846
  116OSM   C16S12175   2.130   1.362   9.146 -0.2702  0.3118  0.0955
  116OSM   H16S12176   2.166   1.466   9.127  0.3096 -0.2111 -1.9021
  116OSM   H16T12177   2.020   1.360   9.163 -0.2167 -2.8049  0.7022
  116OSM   C17S12178   2.143   1.289   9.014 -0.4482  0.2171 -0.3790
  116OSM   H17S12179   2.082   1.196   9.021 -0.2497  0.1267  0.2653
  116OSM   H17T12180   2.247   1.252   8.999 -1.1373 -2.7270  1.3220
  116OSM   C18S12181   2.106   1.361   8.892 -0.4393 -0.5481  0.5177
  116OSM   H18S12182   2.090   1.289   8.809  2.5604  3.1339 -3.7696
  116OSM   H18T12183   2.191   1.430   8.872 -0.6218 -0.4139  0.1928
  116OSM   H18U12184   2.012   1.418   8.912  1.0559  2.0190  0.7195
  116OSM    C1F12185   3.037   1.286  10.411 -0.4336  0.3441 -0.9917
  116OSM     OF12186   3.070   1.171  10.414  0.2008  0.4429 -0.6371
  116OSM    C2F12187   3.105   1.389  10.322  0.7808  0.7642 -0.4873
  116OSM    H2F12188   3.183   1.428  10.391 -0.3674  0.1440  1.2198
  116OSM    H2G12189   3.036   1.474  10.303  1.7275  2.3723  2.5698
  116OSM    C3F12190   3.142   1.332  10.191 -0.5374  0.2263  0.3911
  116OSM    H3F12191   3.049   1.292  10.144  1.1590 -1.5520 -1.6642
  116OSM    H3G12192   3.217   1.251  10.186  0.0555  0.8423 -1.7175
  116OSM    C4F12193   3.195   1.439  10.089 -0.0772  0.5251 -0.7172
  116OSM    H4F12194   3.286   1.491  10.125  0.5426 -0.1053 -1.3290
  116OSM    H4G12195   3.114   1.514  10.080 -0.5726  0.4465  2.1376
  116OSM    C5F12196   3.229   1.363   9.961  0.0069 -0.2400 -0.9299
  116OSM    H5F12197   3.141   1.308   9.923 -0.1553 -1.9950  1.6806
  116OSM    H5G12198   3.313   1.292   9.981  0.9395  0.8121 -0.9657
  116OSM    C6F12199   3.284   1.452   9.846  0.1262 -0.0299  0.2720
  116OSM    H6F12200   3.343   1.386   9.779  0.5893 -0.1802  0.8264
  116OSM    H6G12201   3.350   1.522   9.902  2.5081 -3.6996  2.4085
  116OSM    C7F12202   3.183   1.523   9.751 -0.1996  0.4473  0.1600
  116OSM    H7F12203   3.123   1.591   9.816 -1.6122 -1.7360  1.2526
  116OSM    H7G12204   3.110   1.449   9.713 -0.7942  0.8437  0.5062
  116OSM    C8F12205   3.250   1.609   9.649  0.1611 -0.1581  0.1626
  116OSM    H8F12206   3.286   1.698   9.704 -1.5207  1.2261 -0.8714
  116OSM    H8G12207   3.181   1.653   9.574 -0.4184  1.7418  1.7270
  116OSM    C9F12208   3.368   1.542   9.588  0.6509 -0.4207  0.3711
  116OSM    H9F12209   3.468   1.551   9.633  1.4176  0.1250 -1.3190
  116OSM   C10F12210   3.350   1.452   9.485 -0.2708  0.1553  0.6225
  116OSM   H10F12211   3.444   1.406   9.451  0.0712  0.7367  0.7691
  116OSM   C11F12212   3.231   1.413   9.407  0.0653 -0.0863 -0.3750
  116OSM   H11F12213   3.135   1.453   9.447  0.4091  0.0383  0.3381
  116OSM   H11G12214   3.236   1.302   9.409  0.1858 -0.0697  0.4258
  116OSM   C12F12215   3.242   1.457   9.263 -0.5853 -0.1921 -0.0664
  116OSM   H12F12216   3.255   1.567   9.261 -3.0494  0.1598 -0.5540
  116OSM   H12G12217   3.148   1.433   9.209 -0.1834 -1.6693 -0.1500
  116OSM   C13F12218   3.356   1.403   9.181 -0.1427 -0.2351 -0.1531
  116OSM   H13F12219   3.335   1.295   9.163  0.6699 -0.4090 -0.0814
  116OSM   H13G12220   3.453   1.410   9.235 -0.8601  2.8524  0.9418
  116OSM   C14F12221   3.375   1.479   9.054  0.0681 -0.4103 -0.8798
  116OSM   H14F12222   3.400   1.584   9.082 -0.7726 -0.6037  0.6971
  116OSM   H14G12223   3.281   1.473   8.996 -0.4511 -1.1017  0.0058
  116OSM   C15F12224   3.481   1.421   8.962 -0.6477 -0.3944 -0.6049
  116OSM   H15F12225   3.464   1.312   8.952 -0.2914 -0.4724 -0.3708
  116OSM   H15G12226   3.585   1.444   8.994 -1.8632  2.5257  1.8210
  116OSM   C16F12227   3.490   1.483   8.818 -0.4981  0.1306  0.4850
  116OSM   H16F12228   3.566   1.426   8.761  0.9285  0.8365  1.6149
  116OSM   H16G12229   3.535   1.584   8.830  0.1502  0.3176 -2.6853
  116OSM   C17F12230   3.356   1.472   8.743 -0.0364  0.0687  0.4400
  116OSM   H17F12231   3.276   1.530   8.794 -0.1967 -1.2726  1.7744
  116OSM   H17G12232   3.327   1.365   8.741 -0.7286  0.2329 -2.2969
  116OSM   C18F12233   3.372   1.511   8.597 -0.4883 -0.4651 -0.2027
  116OSM   H18F12234   3.277   1.501   8.541 -0.9442  0.0400  0.4707
  116OSM   H18G12235   3.444   1.439   8.553  1.7428  0.3014  1.9390
  116OSM   H18H12236   3.418   1.612   8.585 -0.4129 -0.1725  2.0709
  117OSM      N12237   5.109   2.928  11.338  0.6771  0.6776  0.7180
  117OSM    C1512238   5.141   3.052  11.410 -0.0416  0.7374 -0.6514
  117OSM   H15A12239   5.242   3.089  11.395 -0.7134  1.8498 -2.9865
  117OSM   H15B12240   5.115   3.046  11.514 -2.5920  1.5287 -1.1749
  117OSM   H15C12241   5.076   3.132  11.378 -3.4612 -1.3965  0.4618
  117OSM    C1412242   5.202   2.821  11.386  0.3451  0.4690 -0.7931
  117OSM   H14A12243   5.305   2.853  11.384  0.1178  1.2387 -0.4850
  117OSM   H14B12244   5.198   2.723  11.342 -1.9566  0.1801 -0.0587
  117OSM   H14C12245   5.181   2.805  11.491 -0.3015  0.2095 -0.9535
  117OSM    C1312246   4.958   2.898  11.354 -0.1126 -0.5143  0.2811
  117OSM   H13A12247   4.928   2.889  11.457 -0.7624  0.9046  0.2373
  117OSM   H13B12248   4.932   2.808  11.300  0.7826 -0.0453 -1.0037
  117OSM   H13C12249   4.904   2.986  11.323  1.1842  0.5529  0.9701
  117OSM    C1212250   5.143   2.967  11.190  0.1778 -0.2337 -0.0146
  117OSM   H12A12251   5.249   2.982  11.179  0.1091 -0.0071 -0.4101
  117OSM   H12B12252   5.085   3.058  11.177 -0.5005 -0.6012  0.3549
  117OSM    C1112253   5.098   2.867  11.074  0.8403  0.1480 -0.2517
  117OSM   H11A12254   5.140   2.916  10.984  2.1922  2.8299  1.6989
  117OSM   H11B12255   4.987   2.867  11.074  0.8173 -0.2237  1.2078
  117OSM      P12256   5.272   2.673  11.027 -0.3088 -0.0119  0.5186
  117OSM    O1312257   5.351   2.599  11.133  0.4273 -0.6021 -0.0443
  117OSM    O1412258   5.226   2.600  10.904 -0.5844 -0.1421 -0.0606
  117OSM    O1112259   5.354   2.797  10.979  0.0882 -0.1363 -0.2651
  117OSM    O1212260   5.154   2.740  11.099  0.9019  0.1227 -0.1761
  117OSM    C1S12261   5.438   2.799  10.848  0.5642  0.0337 -0.1043
  117OSM    H1S12262   5.416   2.708  10.789 -1.2194  0.2651  0.1505
  117OSM    H1T12263   5.545   2.799  10.878  0.6968 -2.7689 -0.3474
  117OSM     NF12264   5.462   2.921  10.635  0.0101  0.4145  0.5664
  117OSM    HNF12265   5.529   2.993  10.621  0.1998  0.1455  0.0973
  117OSM    C2S12266   5.403   2.919  10.774 -0.0078 -0.6107  0.0622
  117OSM    H2S12267   5.292   2.908  10.766 -0.1289 -1.2267  2.0037
  117OSM    C3S12268   5.437   3.056  10.847  0.3330  0.5469 -0.6240
  117OSM    H3S12269   5.545   3.069  10.867  0.2494  0.9778 -0.4416
  117OSM     O312270   5.388   3.051  10.982  0.7081 -0.0231 -0.2087
  117OSM    HO312271   5.365   2.958  10.992 -0.0287  0.2107  0.3747
  117OSM    C4S12272   5.372   3.169  10.769  0.3901 -0.1694 -0.3138
  117OSM    H4S12273   5.422   3.195  10.675  1.5831 -0.5320  0.2026
  117OSM    C5S12274   5.276   3.252  10.808  0.6867 -0.4049  0.3273
  117OSM    H5S12275   5.225   3.232  10.904  0.9193  0.2644  0.5985
  117OSM    C6S12276   5.237   3.367  10.724  0.4803 -0.1585  0.0711
  117OSM    H6S12277   5.156   3.411  10.786 -0.3890 -0.8533 -0.5531
  117OSM    H6T12278   5.204   3.333  10.624  0.2890 -2.1770  0.7731
  117OSM    C7S12279   5.357   3.464  10.713 -0.1709  0.1326  0.6992
  117OSM    H7S12280   5.451   3.409  10.691 -1.0909 -0.9372 -0.8222
  117OSM    H7T12281   5.365   3.520  10.809 -0.7967  2.7275 -0.6663
  117OSM    C8S12282   5.342   3.571  10.611 -0.3534  0.2998  0.1006
  117OSM    H8S12283   5.436   3.629  10.623  0.5510 -0.9234 -0.7811
  117OSM    H8T12284   5.254   3.636  10.632  0.1980  0.1898  3.0928
  117OSM    C9S12285   5.328   3.512  10.468  0.2739 -0.4233 -0.0647
  117OSM    H9S12286   5.220   3.487  10.453  0.5386 -1.7934  0.1240
  117OSM    H9T12287   5.382   3.415  10.459 -1.1047 -1.4223  1.6896
  117OSM   C10S12288   5.369   3.607  10.360 -0.4540 -0.4366  0.3696
  117OSM   H10S12289   5.479   3.615  10.346 -0.2741 -1.7139  0.9407
  117OSM   H10T12290   5.326   3.709  10.375  0.9313  0.2755 -0.3499
  117OSM   C11S12291   5.307   3.568  10.225 -0.2245  0.3145 -0.0159
  117OSM   H11S12292   5.201   3.536  10.227  0.1773 -1.5313 -2.7382
  117OSM   H11T12293   5.356   3.473  10.194  1.0895  0.5830  1.1338
  117OSM   C12S12294   5.315   3.667  10.104  0.2740  0.5233  0.4970
  117OSM   H12S12295   5.399   3.739  10.111  1.4136 -0.7110 -0.1112
  117OSM   H12T12296   5.219   3.723  10.097 -0.1258 -0.2049  0.0091
  117OSM   C13S12297   5.351   3.586   9.969  0.4082  0.7397 -0.6459
  117OSM   H13S12298   5.256   3.536   9.940  0.8601  0.3960 -1.6059
  117OSM   H13T12299   5.428   3.511   9.996  0.1370  1.2160  1.6099
  117OSM   C14S12300   5.380   3.676   9.857  0.3922 -0.1621 -0.4987
  117OSM   H14S12301   5.416   3.624   9.766 -0.6137 -3.3337  0.7902
  117OSM   H14T12302   5.470   3.734   9.887  1.1648 -0.3541 -2.3311
  117OSM   C15S12303   5.271   3.778   9.815 -0.0941 -0.0991 -0.4800
  117OSM   H15S12304   5.275   3.855   9.895  0.2586  1.2574 -1.7506
  117OSM   H15T12305   5.167   3.739   9.813 -0.7689  1.6132 -0.3652
  117OSM   C16S12306   5.291   3.838   9.677  0.5429 -0.2413  0.1419
  117OSM   H16S12307   5.401   3.855   9.680  0.3079  1.3011  2.5417
  117OSM   H16T12308   5.250   3.941   9.680 -0.2488 -0.4905 -1.3505
  117OSM   C17S12309   5.254   3.758   9.558 -0.1168 -0.0792  0.4618
  117OSM   H17S12310   5.145   3.742   9.542 -0.1800  1.3268 -0.6579
  117OSM   H17T12311   5.295   3.655   9.564  0.8579  0.3020  0.3566
  117OSM   C18S12312   5.309   3.823   9.427  0.9413 -0.4023 -0.3582
  117OSM   H18S12313   5.293   3.933   9.421  0.2919 -0.5049 -0.5939
  117OSM   H18T12314   5.260   3.776   9.339  1.9343  0.1488 -1.2362
  117OSM   H18U12315   5.416   3.799   9.406  0.7438 -0.8666 -0.8564
  117OSM    C1F12316   5.429   2.833  10.539 -0.6066 -0.5112 -0.0276
  117OSM     OF12317   5.331   2.756  10.548 -0.5110  0.5409 -0.0173
  117OSM    C2F12318   5.508   2.857  10.419 -0.3908  0.9302  1.0209
  117OSM    H2F12319   5.613   2.871  10.451  0.5484  0.1719 -1.5044
  117OSM    H2G12320   5.470   2.948  10.369 -0.4053  1.5408  2.1216
  117OSM    C3F12321   5.496   2.749  10.302 -0.6844 -0.2936  0.1186
  117OSM    H3F12322   5.391   2.716  10.281 -0.7742  1.1001 -1.8410
  117OSM    H3G12323   5.541   2.656  10.343  0.0232 -0.2442 -0.5297
  117OSM    C4F12324   5.573   2.791  10.173  0.0908 -0.6337 -0.6436
  117OSM    H4F12325   5.617   2.701  10.126 -0.4975 -0.6648 -1.1501
  117OSM    H4G12326   5.655   2.866  10.188 -0.7276  0.4877 -1.5724
  117OSM    C5F12327   5.482   2.860  10.070 -0.0531  0.3387  0.3084
  117OSM    H5F12328   5.465   2.966  10.095 -1.1668  0.0776  0.7041
  117OSM    H5G12329   5.380   2.818  10.078 -0.4805  0.9016 -1.6691
  117OSM    C6F12330   5.535   2.842   9.932 -0.0049  0.3919  0.4591
  117OSM    H6F12331   5.527   2.732   9.915  1.5429  0.2384  0.5893
  117OSM    H6G12332   5.643   2.867   9.939  0.2373 -0.2638 -0.7288
  117OSM    C7F12333   5.472   2.934   9.827  0.2509  0.1569  0.0815
  117OSM    H7F12334   5.469   3.036   9.871 -2.1192  0.4737 -0.6790
  117OSM    H7G12335   5.366   2.901   9.825  0.6219 -1.1532 -2.1665
  117OSM    C8F12336   5.541   2.912   9.688  0.2591  0.4800 -0.2771
  117OSM    H8F12337   5.520   2.814   9.642 -0.4850  0.7793 -0.5934
  117OSM    H8G12338   5.648   2.930   9.714 -0.2843  0.3240  2.2975
  117OSM    C9F12339   5.489   3.022   9.601 -0.5875 -0.1216 -0.1656
  117OSM    H9F12340   5.454   3.113   9.651 -0.9963 -0.2307 -0.2550
  117OSM   C10F12341   5.479   3.018   9.473  1.0146  0.4880  0.1046
  117OSM   H10F12342   5.438   3.109   9.427  2.7174  1.4275  0.3558
  117OSM   C11F12343   5.522   2.908   9.376  0.0001  0.3758  0.8368
  117OSM   H11F12344   5.436   2.838   9.371 -1.0801  1.6779  0.5892
  117OSM   H11G12345   5.607   2.856   9.426 -1.1575 -3.3438 -0.6663
  117OSM   C12F12346   5.569   2.976   9.242 -0.2242 -0.0790 -0.2775
  117OSM   H12F12347   5.622   2.902   9.179  0.2335 -0.8267  0.9542
  117OSM   H12G12348   5.641   3.052   9.278  1.5650 -1.9871  0.3866
  117OSM   C13F12349   5.463   3.046   9.166  0.4109  0.9044  0.3313
  117OSM   H13F12350   5.507   3.054   9.065  0.1351  0.8176  0.2017
  117OSM   H13G12351   5.446   3.146   9.211  0.8612  0.4471  1.5864
  117OSM   C14F12352   5.332   2.963   9.154 -0.0284 -0.2238 -0.4818
  117OSM   H14F12353   5.278   2.962   9.251  0.9251  1.2508  0.1037
  117OSM   H14G12354   5.359   2.859   9.126 -0.3033 -0.5203  0.3350
  117OSM   C15F12355   5.242   3.028   9.058  0.4628  0.2352  0.1246
  117OSM   H15F12356   5.222   3.134   9.086  0.2579  0.3885 -0.5779
  117OSM   H15G12357   5.139   2.985   9.056  0.5325  0.0505 -2.4591
  117OSM   C16F12358   5.296   3.032   8.915 -0.6390 -0.2192  0.1415
  117OSM   H16F12359   5.343   2.934   8.893  1.7767  0.4112  2.0160
  117OSM   H16G12360   5.371   3.112   8.896  1.3219 -2.2978 -1.3479
  117OSM   C17F12361   5.188   3.058   8.823 -0.4237 -0.7794  0.2896
  117OSM   H17F12362   5.110   3.110   8.882 -0.3249 -0.4092  0.0973
  117OSM   H17G12363   5.135   2.966   8.790  1.8653 -1.4946 -1.7367
  117OSM   C18F12364   5.216   3.154   8.716  0.0836  0.4229  0.2298
  117OSM   H18F12365   5.125   3.176   8.656 -0.2186 -2.0905 -0.3311
  117OSM   H18G12366   5.289   3.109   8.645  0.5857 -0.1262  1.0722
  117OSM   H18H12367   5.264   3.245   8.756  1.2097 -0.0709  0.0327
  118OSM      N12368   6.719   2.180  11.145  0.5697  0.2674  0.2469
  118OSM    C1512369   6.784   2.252  11.259  0.1144  0.5562 -0.0693
  118OSM   H15A12370   6.814   2.353  11.235  0.4734 -0.3507 -4.4434
  118OSM   H15B12371   6.863   2.187  11.295 -1.6596 -0.7313  1.6905
  118OSM   H15C12372   6.711   2.251  11.338  1.0841 -0.9514  0.8444
  118OSM    C1412373   6.824   2.126  11.055  0.7443 -0.8063 -0.6535
  118OSM   H14A12374   6.893   2.058  11.104 -0.1735 -0.7210  0.7979
  118OSM   H14B12375   6.884   2.209  11.020 -0.5610  0.6379  0.4000
  118OSM   H14C12376   6.788   2.067  10.972  2.8317 -1.2159 -1.3526
  118OSM    C1312377   6.626   2.082  11.195  0.2299  0.3269  0.2076
  118OSM   H13A12378   6.604   2.009  11.119 -0.5043 -0.7308  1.4026
  118OSM   H13B12379   6.533   2.130  11.223 -0.5262 -1.1392  0.2962
  118OSM   H13C12380   6.666   2.031  11.282  1.7681 -1.5872 -1.5138
  118OSM    C1212381   6.643   2.287  11.061 -0.3989  0.2673 -0.4172
  118OSM   H12A12382   6.583   2.238  10.986 -1.9818  2.4625 -0.6670
  118OSM   H12B12383   6.711   2.355  11.011  0.4601  0.1932  0.6202
  118OSM    C1112384   6.538   2.373  11.133 -0.1000  0.1257  0.2167
  118OSM   H11A12385   6.472   2.311  11.197 -1.0796 -1.6028 -2.3126
  118OSM   H11B12386   6.473   2.414  11.054  1.0183  0.7444 -0.4082
  118OSM      P12387   6.659   2.602  11.119  0.0225  0.0122 -0.2981
  118OSM    O1312388   6.733   2.694  11.212  0.0792 -0.2754 -0.4280
  118OSM    O1412389   6.736   2.551  11.004 -0.3656  0.0149 -0.4909
  118OSM    O1112390   6.521   2.659  11.072  0.1219  0.1164 -0.3975
  118OSM    O1212391   6.614   2.477  11.198 -0.3308  0.0377 -0.2707
  118OSM    C1S12392   6.511   2.775  10.987 -0.3582 -0.3490  0.5970
  118OSM    H1S12393   6.586   2.779  10.905  0.7929 -1.2217  1.5778
  118OSM    H1T12394   6.527   2.865  11.051  0.8464  1.5586 -2.1944
  118OSM     NF12395   6.351   2.876  10.804  0.8150 -0.2563 -0.5108
  118OSM    HNF12396   6.282   2.947  10.810 -1.2677 -2.0085 -2.0116
  118OSM    C2S12397   6.365   2.780  10.918  0.7146 -1.1820  0.2076
  118OSM    H2S12398   6.366   2.677  10.876  1.1824 -0.9132 -0.4734
  118OSM    C3S12399   6.256   2.806  11.028  0.3207 -0.2119 -0.8564
  118OSM    H3S12400   6.277   2.907  11.068 -1.0964 -0.9530  2.0136
  118OSM     O312401   6.271   2.703  11.125  0.0283 -0.4742 -0.2161
  118OSM    HO312402   6.356   2.667  11.097  1.0939  1.7240 -0.0210
  118OSM    C4S12403   6.115   2.813  10.969  0.6202  0.2327 -0.8320
  118OSM    H4S12404   6.089   2.918  10.950  0.4898  0.1752 -0.9682
  118OSM    C5S12405   6.036   2.711  10.937  0.3887  0.0633  0.5297
  118OSM    H5S12406   6.070   2.606  10.933  1.0915  0.3144 -1.0908
  118OSM    C6S12407   5.896   2.731  10.878  0.2665  0.5319 -0.0296
  118OSM    H6S12408   5.865   2.835  10.853  0.6167  0.4045 -1.0518
  118OSM    H6T12409   5.829   2.703  10.962 -0.7700  2.6735 -0.0789
  118OSM    C7S12410   5.880   2.644  10.758  0.3612 -0.2144  0.5535
  118OSM    H7S12411   5.897   2.538  10.786 -2.1439 -0.8452  0.0148
  118OSM    H7T12412   5.959   2.671  10.685  0.9894  0.9296  1.6208
  118OSM    C8S12413   5.741   2.645  10.685 -0.6401  0.1226 -0.6111
  118OSM    H8S12414   5.701   2.748  10.677  1.5310  0.9329 -1.9714
  118OSM    H8T12415   5.681   2.576  10.748 -0.8372 -0.2248 -1.1724
  118OSM    C9S12416   5.750   2.574  10.550 -0.6040  0.1348  0.7587
  118OSM    H9S12417   5.789   2.641  10.471  0.1532  0.6657  1.5664
  118OSM    H9T12418   5.647   2.546  10.517  0.3548 -2.1554 -0.5802
  118OSM   C10S12419   5.820   2.434  10.545 -0.0099 -0.5707  0.6724
  118OSM   H10S12420   5.791   2.384  10.640  1.2250  1.9687  2.5041
  118OSM   H10T12421   5.931   2.446  10.540 -0.0670 -0.4283 -0.5446
  118OSM   C11S12422   5.763   2.348  10.431  0.3833  0.5271  0.1242
  118OSM   H11S12423   5.654   2.334  10.447  0.7825 -1.1545  1.7826
  118OSM   H11T12424   5.809   2.248  10.442  1.9789  0.8211 -2.7849
  118OSM   C12S12425   5.786   2.391  10.290  0.3018  0.6325 -0.2966
  118OSM   H12S12426   5.885   2.440  10.275  0.8239  0.0669  1.1444
  118OSM   H12T12427   5.708   2.467  10.265 -0.1098  0.4170  0.2954
  118OSM   C13S12428   5.783   2.276  10.194  0.1984 -0.0144 -0.1410
  118OSM   H13S12429   5.683   2.230  10.203  0.3364 -0.3966 -0.5435
  118OSM   H13T12430   5.858   2.198  10.219  0.5388  0.0910 -0.8298
  118OSM   C14S12431   5.808   2.320  10.049 -0.0456 -0.4296  0.1521
  118OSM   H14S12432   5.743   2.403  10.014  1.9372  2.1300  2.1783
  118OSM   H14T12433   5.799   2.235   9.978  0.7003  0.0026 -0.4734
  118OSM   C15S12434   5.949   2.367  10.022 -0.3920  0.7839 -0.3807
  118OSM   H15S12435   6.017   2.297  10.075 -0.7588 -0.0751 -1.0199
  118OSM   H15T12436   5.966   2.470  10.061 -0.0007 -0.4340  3.0043
  118OSM   C16S12437   5.988   2.378   9.875  0.4334 -0.0143 -0.5164
  118OSM   H16S12438   5.939   2.462   9.821 -0.2134  0.1008  0.2444
  118OSM   H16T12439   5.959   2.287   9.818  0.5197 -0.9582  0.9142
  118OSM   C17S12440   6.142   2.395   9.847  0.1491 -0.0816  0.4818
  118OSM   H17S12441   6.192   2.318   9.909  0.0647  0.0504  0.7196
  118OSM   H17T12442   6.174   2.495   9.884 -1.2850  1.0713 -1.2325
  118OSM   C18S12443   6.177   2.394   9.692  0.7164  0.5059  0.0235
  118OSM   H18S12444   6.121   2.478   9.645  0.0377 -0.6736 -1.3592
  118OSM   H18T12445   6.146   2.297   9.647  1.7834  0.6568 -1.0812
  118OSM   H18U12446   6.287   2.407   9.689  1.0169 -0.9492  2.2666
  118OSM    C1F12447   6.430   2.873  10.699  0.4994 -0.3037 -0.1306
  118OSM     OF12448   6.512   2.783  10.689 -0.1043  0.4023 -0.3905
  118OSM    C2F12449   6.401   2.978  10.600  0.1592  0.0638 -0.0436
  118OSM    H2F12450   6.415   3.079  10.644 -0.0526  0.2495 -0.4045
  118OSM    H2G12451   6.296   2.966  10.564 -0.1357  1.0486  0.4458
  118OSM    C3F12452   6.494   2.974  10.481  0.1679 -0.3780 -0.6434
  118OSM    H3F12453   6.484   2.877  10.427  0.3333 -0.8905  0.2380
  118OSM    H3G12454   6.601   2.983  10.510 -0.0085 -0.8242  0.1773
  118OSM    C4F12455   6.464   3.088  10.391  0.3808 -0.3110  0.6199
  118OSM    H4F12456   6.497   3.187  10.430 -0.6776  0.0241  0.6903
  118OSM    H4G12457   6.359   3.097  10.357 -0.2092  1.6691  2.7000
  118OSM    C5F12458   6.554   3.073  10.263 -0.4971 -0.8920 -0.0328
  118OSM    H5F12459   6.554   2.966  10.234  3.1956 -1.5585  1.9406
  118OSM    H5G12460   6.656   3.089  10.302 -0.0466 -1.5600 -0.9294
  118OSM    C6F12461   6.523   3.186  10.156  0.2487  0.3470  0.1669
  118OSM    H6F12462   6.538   3.286  10.201  0.8244  0.7812 -0.9529
  118OSM    H6G12463   6.416   3.170  10.131  0.3146  1.6276 -1.0892
  118OSM    C7F12464   6.609   3.150  10.028  0.3177 -0.5956 -1.7890
  118OSM    H7F12465   6.596   3.042  10.006 -2.8801 -0.6707 -0.1812
  118OSM    H7G12466   6.716   3.172  10.050 -0.6260  0.3557  3.0161
  118OSM    C8F12467   6.579   3.246   9.903  0.1806  0.5378 -0.8499
  118OSM    H8F12468   6.617   3.346   9.930  0.9952  0.6383 -2.2821
  118OSM    H8G12469   6.471   3.252   9.880  0.2772  0.4051 -1.3453
  118OSM    C9F12470   6.659   3.194   9.785 -0.1562 -0.6459  0.3458
  118OSM    H9F12471   6.764   3.175   9.811 -0.1090  1.2022  1.7278
  118OSM   C10F12472   6.613   3.186   9.659  0.3715  0.1326  0.4728
  118OSM   H10F12473   6.662   3.122   9.584 -2.1111 -1.7485  0.3320
  118OSM   C11F12474   6.476   3.232   9.608  0.3447  0.3606 -0.4147
  118OSM   H11F12475   6.455   3.328   9.658 -1.2168 -0.6252  0.9289
  118OSM   H11G12476   6.403   3.157   9.646  0.3864 -1.8313 -4.1888
  118OSM   C12F12477   6.449   3.225   9.455  0.3086 -0.1073  0.6343
  118OSM   H12F12478   6.340   3.215   9.438  0.2660  0.3103  0.6553
  118OSM   H12G12479   6.500   3.129   9.432 -1.7082 -0.6310 -2.1292
  118OSM   C13F12480   6.518   3.334   9.380  0.0134  0.3653  0.2219
  118OSM   H13F12481   6.626   3.335   9.403  0.1522  0.0703 -0.3920
  118OSM   H13G12482   6.473   3.432   9.407  1.2373  1.7340 -2.3333
  118OSM   C14F12483   6.500   3.329   9.230 -0.3019 -0.2187 -0.1841
  118OSM   H14F12484   6.391   3.340   9.214 -0.0417  1.0588 -1.2713
  118OSM   H14G12485   6.530   3.226   9.200 -0.3829 -0.3367  0.1383
  118OSM   C15F12486   6.576   3.433   9.154 -0.8255  0.2412  0.5572
  118OSM   H15F12487   6.680   3.413   9.188 -0.3397 -1.0198 -1.4617
  118OSM   H15G12488   6.542   3.533   9.186 -2.5506  0.1884 -0.9523
  118OSM   C16F12489   6.566   3.424   9.000  0.3558  0.1759 -0.3019
  118OSM   H16F12490   6.573   3.320   8.962 -1.8452 -1.1553  2.5279
  118OSM   H16G12491   6.651   3.487   8.966  0.9669  1.2329  2.8844
  118OSM   C17F12492   6.432   3.488   8.947  0.3455  0.4580  0.1259
  118OSM   H17F12493   6.423   3.584   9.003  0.2011  0.1771  0.5937
  118OSM   H17G12494   6.346   3.423   8.971  1.0032 -0.4779 -0.0143
  118OSM   C18F12495   6.422   3.519   8.797 -0.8212  0.0676 -0.0274
  118OSM   H18F12496   6.420   3.427   8.736  0.3448 -1.1432  1.6663
  118OSM   H18G12497   6.505   3.583   8.758 -1.0721 -1.1356 -2.8013
  118OSM   H18H12498   6.328   3.572   8.773 -1.3216  0.1968  2.0255
  119OSM      N12499   1.151   1.452  11.229 -0.2970 -0.3801  0.1847
  119OSM    C1512500   1.101   1.576  11.293  0.0590 -0.4301 -0.4659
  119OSM   H15A12501   1.144   1.590  11.392 -1.2501 -1.2496  0.2489
  119OSM   H15B12502   0.993   1.579  11.293  0.0754  0.7715 -0.8683
  119OSM   H15C12503   1.125   1.652  11.221  0.1797 -1.1637 -1.2138
  119OSM    C1412504   1.301   1.455  11.255 -0.6613  0.6955  0.1025
  119OSM   H14A12505   1.328   1.463  11.360  1.6962 -0.8189 -0.3193
  119OSM   H14B12506   1.347   1.540  11.207  0.9817 -1.4649 -2.3708
  119OSM   H14C12507   1.355   1.369  11.218  0.2013  0.9637  0.7098
  119OSM    C1312508   1.103   1.326  11.296  0.9638  0.6359  0.3389
  119OSM   H13A12509   1.128   1.328  11.401  1.7900  0.6400  0.1489
  119OSM   H13B12510   1.145   1.242  11.243 -2.7837 -0.8870 -0.5177
  119OSM   H13C12511   0.996   1.319  11.290  0.9807  0.7803 -0.1760
  119OSM    C1212512   1.109   1.456  11.077  0.1542 -0.4321  0.3929
  119OSM   H12A12513   1.001   1.450  11.072  0.2387 -0.8827 -2.6088
  119OSM   H12B12514   1.140   1.369  11.022 -2.1702  0.1592 -2.0796
  119OSM    C1112515   1.165   1.573  10.989  0.2493  0.1236  0.3977
  119OSM   H11A12516   1.156   1.545  10.881  1.9573  1.5265 -0.1426
  119OSM   H11B12517   1.270   1.585  11.023 -0.3910  1.6186  1.9599
  119OSM      P12518   0.950   1.717  10.989 -0.5445 -0.1937 -0.0035
  119OSM    O1312519   0.876   1.636  11.086  0.4762  0.2863  0.4208
  119OSM    O1412520   0.922   1.864  10.981  0.2858  0.0346 -0.7247
  119OSM    O1112521   0.926   1.654  10.843 -0.8736  0.7673 -0.2338
  119OSM    O1212522   1.104   1.698  11.015 -0.1226 -0.1158  0.1968
  119OSM    C1S12523   0.978   1.714  10.724  0.4952  0.0791 -1.0878
  119OSM    H1S12524   1.088   1.699  10.732  0.3819 -0.0575  0.4728
  119OSM    H1T12525   0.949   1.820  10.710  0.6549  0.3268  0.3042
  119OSM     NF12526   0.964   1.705  10.481  0.7471  0.0862  0.0499
  119OSM    HNF12527   0.911   1.760  10.417 -1.6330 -0.2172  1.6328
  119OSM    C2S12528   0.918   1.636  10.596  0.0545  0.1938 -0.4216
  119OSM    H2S12529   0.956   1.533  10.605 -1.3965 -0.2108  1.8754
  119OSM    C3S12530   0.766   1.622  10.603 -0.7437 -0.3278  0.0784
  119OSM    H3S12531   0.717   1.721  10.614 -2.2795 -1.1913  1.5204
  119OSM     O312532   0.721   1.549  10.715 -0.2742  0.2532  0.8019
  119OSM    HO312533   0.790   1.578  10.776  0.5470 -0.9976  0.4947
  119OSM    C4S12534   0.710   1.569  10.471  0.0562 -0.1136  0.6348
  119OSM    H4S12535   0.677   1.642  10.396  0.4381  1.6174  2.0925
  119OSM    C5S12536   0.705   1.443  10.439 -0.2668  0.7077 -0.5993
  119OSM    H5S12537   0.751   1.364  10.499 -1.0780  0.6084 -0.0943
  119OSM    C6S12538   0.659   1.388  10.307  0.0845 -0.3929 -0.2735
  119OSM    H6S12539   0.573   1.320  10.323 -0.3518  0.0897 -0.5226
  119OSM    H6T12540   0.743   1.325  10.272  1.0362  1.3522 -1.2675
  119OSM    C7S12541   0.635   1.494  10.192  0.6216  0.3078  0.7250
  119OSM    H7S12542   0.736   1.539  10.179  1.1153 -1.0474 -0.4715
  119OSM    H7T12543   0.567   1.578  10.217  1.0168  0.7965  0.2134
  119OSM    C8S12544   0.596   1.437  10.056  0.3092 -0.0957  0.7154
  119OSM    H8S12545   0.503   1.378  10.053 -1.0786  2.0289 -2.0365
  119OSM    H8T12546   0.669   1.362  10.020 -1.7255 -1.9451  0.2488
  119OSM    C9S12547   0.590   1.532   9.927  0.5069 -0.0406 -0.3994
  119OSM    H9S12548   0.493   1.583   9.948  0.3050 -0.8917  0.7839
  119OSM    H9T12549   0.579   1.488   9.825 -0.4707  2.1368 -1.2920
  119OSM   C10S12550   0.688   1.648   9.919  0.3595 -0.1057  0.4676
  119OSM   H10S12551   0.788   1.601   9.924  0.1914 -0.3406  1.8258
  119OSM   H10T12552   0.678   1.704  10.014 -1.4947  1.6660 -0.6641
  119OSM   C11S12553   0.674   1.741   9.793  0.4277 -0.0935 -0.0180
  119OSM   H11S12554   0.606   1.826   9.813  1.6946  0.9299  0.1314
  119OSM   H11T12555   0.628   1.690   9.706  1.5831 -1.1215 -0.0628
  119OSM   C12S12556   0.804   1.801   9.738  0.0702 -0.1143  1.1297
  119OSM   H12S12557   0.864   1.711   9.713 -1.3710 -0.9332  0.4808
  119OSM   H12T12558   0.860   1.847   9.822  1.2583  0.4646  0.0565
  119OSM   C13S12559   0.782   1.901   9.621 -0.2944  0.3761  0.3417
  119OSM   H13S12560   0.767   2.001   9.666 -0.8777  0.8245 -0.8124
  119OSM   H13T12561   0.697   1.876   9.553  0.9582 -0.3139 -1.0109
  119OSM   C14S12562   0.906   1.911   9.522  0.5866 -0.5071 -0.9759
  119OSM   H14S12563   0.946   1.810   9.502 -0.1556 -1.7509  2.8997
  119OSM   H14T12564   0.984   1.977   9.567  1.8078 -2.4926 -0.0759
  119OSM   C15S12565   0.865   1.968   9.390 -0.4119  0.2308 -0.4679
  119OSM   H15S12566   0.797   1.891   9.348  0.5283 -1.7322  1.3947
  119OSM   H15T12567   0.957   1.978   9.328  1.5004 -1.1895  1.9306
  119OSM   C16S12568   0.804   2.107   9.397  0.5342 -0.1051  0.0813
  119OSM   H16S12569   0.859   2.169   9.471  0.4329 -0.1434  0.1903
  119OSM   H16T12570   0.696   2.106   9.424  0.6259  0.4374  0.4862
  119OSM   C17S12571   0.795   2.188   9.259 -0.2763 -0.4851 -0.2930
  119OSM   H17S12572   0.733   2.131   9.187  1.3458 -0.4014 -1.8269
  119OSM   H17T12573   0.893   2.184   9.207  0.3609 -0.3921  0.8604
  119OSM   C18S12574   0.759   2.340   9.270 -0.1151  0.4252 -0.7045
  119OSM   H18S12575   0.730   2.386   9.172  0.1747 -0.5589 -1.2628
  119OSM   H18T12576   0.833   2.401   9.326  0.6914 -1.6016  0.5041
  119OSM   H18U12577   0.667   2.331   9.331  2.1621 -2.6648  2.6436
  119OSM    C1F12578   1.092   1.694  10.442  0.3845 -0.7973 -0.4525
  119OSM     OF12579   1.178   1.630  10.497  0.1029  0.1566  0.1933
  119OSM    C2F12580   1.131   1.767  10.316  0.0234  0.2880  0.0653
  119OSM    H2F12581   1.202   1.846  10.348 -1.1626  2.0537 -1.4337
  119OSM    H2G12582   1.054   1.840  10.281 -1.1456 -1.4183 -1.0268
  119OSM    C3F12583   1.194   1.670  10.209  0.9131 -0.4627  0.0209
  119OSM    H3F12584   1.111   1.602  10.183 -0.8139  0.8781  1.7263
  119OSM    H3G12585   1.280   1.625  10.264  0.6442  1.2774  2.0279
  119OSM    C4F12586   1.250   1.737  10.084 -0.3658  1.0859 -0.5514
  119OSM    H4F12587   1.345   1.791  10.104 -0.7635  1.6258 -0.1107
  119OSM    H4G12588   1.176   1.803  10.036 -0.3608  1.3349 -0.2139
  119OSM    C5F12589   1.286   1.631   9.983 -0.9907 -0.1196  0.7865
  119OSM    H5F12590   1.208   1.567   9.936 -0.9413  1.3199 -1.4377
  119OSM    H5G12591   1.347   1.551  10.030  1.1351  0.4095 -0.8870
  119OSM    C6F12592   1.366   1.700   9.871 -0.1905 -0.0409  0.0873
  119OSM    H6F12593   1.400   1.614   9.810 -2.5028 -2.4197  1.9256
  119OSM    H6G12594   1.460   1.742   9.914  0.8216 -0.5578 -1.5485
  119OSM    C7F12595   1.285   1.802   9.787 -0.0157  0.4785 -0.0907
  119OSM    H7F12596   1.261   1.885   9.855  0.5804  0.0760  0.6260
  119OSM    H7G12597   1.194   1.747   9.755  0.8453 -1.3123  0.4011
  119OSM    C8F12598   1.373   1.869   9.679 -0.0658 -0.4275 -0.0573
  119OSM    H8F12599   1.401   1.789   9.607  2.0297 -0.5025  0.7548
  119OSM    H8G12600   1.474   1.899   9.716  0.7313 -0.8296 -1.8010
  119OSM    C9F12601   1.318   1.988   9.628  0.7652  0.1537  0.1913
  119OSM    H9F12602   1.280   2.053   9.708  1.2270  1.2149 -0.4262
  119OSM   C10F12603   1.298   2.013   9.497  0.5700  0.1325  0.0195
  119OSM   H10F12604   1.257   2.112   9.472 -0.1619  0.2175  1.4298
  119OSM   C11F12605   1.336   1.923   9.380 -0.7060 -0.4089 -0.2029
  119OSM   H11F12606   1.316   1.816   9.402  2.0220 -1.1246 -0.7350
  119OSM   H11G12607   1.445   1.943   9.365 -1.1668  2.4894 -0.2285
  119OSM   C12F12608   1.260   1.967   9.252  0.1580  0.4104 -0.5294
  119OSM   H12F12609   1.271   2.076   9.234 -1.4138  0.1882 -3.4525
  119OSM   H12G12610   1.150   1.951   9.258  0.2713 -0.1941  0.0757
  119OSM   C13F12611   1.319   1.896   9.134  0.4829 -0.1177  0.3605
  119OSM   H13F12612   1.322   1.789   9.163  0.4151 -0.8534 -2.1514
  119OSM   H13G12613   1.419   1.942   9.115  0.3040 -0.1351 -0.6569
  119OSM   C14F12614   1.235   1.908   9.007  0.0720 -0.6569 -0.5448
  119OSM   H14F12615   1.157   1.830   9.022 -0.4526  0.0603  0.5695
  119OSM   H14G12616   1.297   1.900   8.915 -1.5592  1.1891 -1.9024
  119OSM   C15F12617   1.157   2.041   8.991  0.2139 -1.2394  0.1317
  119OSM   H15F12618   1.229   2.124   9.009 -0.9796  0.1040 -1.0068
  119OSM   H15G12619   1.077   2.062   9.064  1.3303  1.6667  0.6763
  119OSM   C16F12620   1.114   2.071   8.843  0.3459  0.0049  0.0711
  119OSM   H16F12621   1.196   2.030   8.780  0.4426 -0.1748  0.3154
  119OSM   H16G12622   1.107   2.182   8.833  0.3869  0.0363  0.3842
  119OSM   C17F12623   0.988   1.995   8.814  0.6768  0.4312 -0.1003
  119OSM   H17F12624   0.921   2.016   8.900  0.8280  1.4723 -0.2220
  119OSM   H17G12625   1.014   1.887   8.813 -0.4821  0.1247  0.6717
  119OSM   C18F12626   0.912   2.031   8.681  0.4268 -0.3947  0.3147
  119OSM   H18F12627   0.866   1.938   8.640  0.9735 -0.9765  0.9967
  119OSM   H18G12628   0.982   2.077   8.607 -1.0049  2.0281  0.3614
  119OSM   H18H12629   0.842   2.115   8.697  0.3941 -0.2167 -0.6870
  120OSM      N12630   0.395   6.739  10.952  0.2369  1.1965  0.1452
  120OSM    C1512631   0.460   6.624  11.021  0.2951  0.2244 -0.2774
  120OSM   H15A12632   0.550   6.585  10.975  1.5570  1.8520  0.7163
  120OSM   H15B12633   0.397   6.536  11.028 -2.6749  2.2151 -0.1979
  120OSM   H15C12634   0.497   6.648  11.119 -2.1786 -1.7407  1.2607
  120OSM    C1412635   0.488   6.851  10.957 -1.3125 -0.1925  0.3407
  120OSM   H14A12636   0.583   6.814  10.923 -1.2296 -0.9763  1.3555
  120OSM   H14B12637   0.520   6.877  11.057  0.5610 -1.0269 -0.0031
  120OSM   H14C12638   0.448   6.933  10.900  0.8061 -0.9496 -2.4129
  120OSM    C1312639   0.385   6.699  10.808 -0.1598  0.1927  0.5411
  120OSM   H13A12640   0.319   6.614  10.798  0.6566 -0.5067  0.9228
  120OSM   H13B12641   0.488   6.681  10.781 -0.1461 -0.3738  0.9505
  120OSM   H13C12642   0.324   6.774  10.760  2.1668  0.5937 -2.0747
  120OSM    C1212643   0.260   6.786  11.013  0.5333 -0.0760  0.2366
  120OSM   H12A12644   0.282   6.817  11.114  1.0439  0.1758  0.0514
  120OSM   H12B12645   0.190   6.704  11.015 -1.3924  1.4837 -0.0654
  120OSM    C1112646   0.178   6.903  10.940 -0.1744  0.3427 -0.2692
  120OSM   H11A12647   0.244   6.992  10.943 -0.8080  0.9474  4.6241
  120OSM   H11B12648   0.085   6.914  10.999 -0.5902 -1.4905 -0.5419
  120OSM      P12649   0.041   6.760  10.767 -0.6628  0.0468 -0.5178
  120OSM    O1312650   0.052   6.646  10.860  0.1015  0.4482  0.2778
  120OSM    O1412651  -0.084   6.842  10.759 -0.7685  0.5493  0.2166
  120OSM    O1112652   0.076   6.710  10.621 -0.0050  0.5884 -0.4209
  120OSM    O1212653   0.152   6.866  10.803 -0.6963 -0.0105  0.6548
  120OSM    C1S12654   0.064   6.573  10.589 -0.1738 -0.6191  0.3471
  120OSM    H1S12655  -0.040   6.545  10.614 -0.4166  1.0389  1.3397
  120OSM    H1T12656   0.123   6.503  10.652  0.1576 -1.3799 -0.7695
  120OSM     NF12657   0.030   6.417  10.392 -0.0169 -0.8604  0.3454
  120OSM    HNF12658   0.085   6.334  10.393  1.6139  0.1854  0.2151
  120OSM    C2S12659   0.092   6.543  10.434 -0.3527  0.7405 -0.2969
  120OSM    H2S12660   0.039   6.623  10.379 -0.9813 -0.3767 -1.3569
  120OSM    C3S12661   0.248   6.557  10.418 -0.0916  0.3581  0.0905
  120OSM    H3S12662   0.300   6.484  10.484  0.6750  1.1528  0.3814
  120OSM     O312663   0.299   6.686  10.458 -0.1477 -0.3032  0.6966
  120OSM    HO312664   0.224   6.734  10.493  0.3310  0.6664  0.4052
  120OSM    C4S12665   0.281   6.532  10.270 -0.2218 -0.4884  0.0650
  120OSM    H4S12666   0.305   6.428  10.243  0.9314 -0.9334  2.5738
  120OSM    C5S12667   0.295   6.628  10.176 -0.2230  0.0675  0.1583
  120OSM    H5S12668   0.289   6.732  10.212  0.2574  0.8541 -1.9232
  120OSM    C6S12669   0.334   6.601  10.033 -0.5678 -0.0871 -1.1328
  120OSM    H6S12670   0.431   6.549  10.018 -1.5793 -1.7931 -2.1012
  120OSM    H6T12671   0.356   6.697   9.982 -2.3290  0.6644 -0.5537
  120OSM    C7S12672   0.218   6.538   9.962 -0.1687 -0.6481  0.3888
  120OSM    H7S12673   0.124   6.597   9.967  0.2910  0.5871 -2.8337
  120OSM    H7T12674   0.196   6.440  10.009  0.8579 -1.3472 -0.5555
  120OSM    C8S12675   0.242   6.519   9.812  0.2885 -0.1251 -0.2633
  120OSM    H8S12676   0.278   6.616   9.771 -0.1154  0.5334  0.9057
  120OSM    H8T12677   0.150   6.496   9.755 -0.3908  1.0775  0.3152
  120OSM    C9S12678   0.330   6.401   9.776 -0.6532  0.3932 -0.0475
  120OSM    H9S12679   0.262   6.313   9.773 -2.5600  1.7179  1.6445
  120OSM    H9T12680   0.397   6.378   9.862 -1.3838  1.9276  0.9576
  120OSM   C10S12681   0.407   6.415   9.643  0.2941  0.0592  0.6611
  120OSM   H10S12682   0.491   6.342   9.646  1.7490  1.7012  1.9061
  120OSM   H10T12683   0.426   6.524   9.647 -2.5025  0.6420  0.5102
  120OSM   C11S12684   0.325   6.388   9.513 -0.4475 -0.3323  0.5631
  120OSM   H11S12685   0.227   6.440   9.513 -1.7456 -2.6421  1.1715
  120OSM   H11T12686   0.294   6.281   9.509  1.9855 -1.1238  0.8468
  120OSM   C12S12687   0.405   6.424   9.386  1.0081 -0.0550  0.0342
  120OSM   H12S12688   0.496   6.360   9.384 -0.0054 -1.5470 -1.8923
  120OSM   H12T12689   0.435   6.530   9.396 -0.2047  0.2764  0.2545
  120OSM   C13S12690   0.340   6.391   9.248  0.1747 -0.5106  0.1903
  120OSM   H13S12691   0.286   6.295   9.263  1.2278 -1.0862  0.3526
  120OSM   H13T12692   0.423   6.376   9.176  0.1784  1.3649 -0.2681
  120OSM   C14S12693   0.243   6.502   9.199 -0.7095  0.0834  0.2788
  120OSM   H14S12694   0.184   6.523   9.291 -0.8976 -3.1838  1.0422
  120OSM   H14T12695   0.180   6.457   9.119  0.8318 -0.6968 -0.5237
  120OSM   C15S12696   0.314   6.629   9.154  0.6212 -0.2655  0.2557
  120OSM   H15S12697   0.393   6.617   9.077 -0.0616 -1.2414 -0.3202
  120OSM   H15T12698   0.351   6.668   9.251 -1.3650 -0.1110  0.9942
  120OSM   C16S12699   0.220   6.742   9.103  0.2721 -0.4672  0.6337
  120OSM   H16S12700   0.276   6.837   9.101  0.6204 -0.5955  2.4252
  120OSM   H16T12701   0.130   6.742   9.168  0.6212 -0.5071  1.1192
  120OSM   C17S12702   0.174   6.715   8.960  0.6129 -0.0522  0.0219
  120OSM   H17S12703   0.077   6.764   8.941  0.5395 -1.1114 -2.9556
  120OSM   H17T12704   0.161   6.606   8.946 -0.1870  0.0901 -0.3607
  120OSM   C18S12705   0.271   6.778   8.857 -0.4202 -1.0389 -0.4295
  120OSM   H18S12706   0.229   6.763   8.754 -1.5650  0.8683 -0.2967
  120OSM   H18T12707   0.375   6.740   8.852 -0.3946 -1.1160  0.6116
  120OSM   H18U12708   0.273   6.888   8.876 -2.1627 -1.1561  0.7355
  120OSM    C1F12709  -0.099   6.403  10.387 -0.3272 -0.1223 -0.5385
  120OSM     OF12710  -0.173   6.499  10.406  0.0408  0.2460 -0.0818
  120OSM    C2F12711  -0.145   6.259  10.390  0.1579  0.0405  0.8168
  120OSM    H2F12712  -0.162   6.228  10.495 -0.0279  3.3008  1.8451
  120OSM    H2G12713  -0.060   6.196  10.354  0.1741 -0.7474  2.1968
  120OSM    C3F12714  -0.255   6.236  10.280  0.7069 -0.2756 -0.2555
  120OSM    H3F12715  -0.353   6.284  10.301 -1.2304 -2.6844 -2.8668
  120OSM    H3G12716  -0.282   6.128  10.278 -2.2024  0.3643 -1.4981
  120OSM    C4F12717  -0.204   6.276  10.142 -0.9958 -0.3773  0.5364
  120OSM    H4F12718  -0.093   6.274  10.142 -0.9592  0.8315  1.4374
  120OSM    H4G12719  -0.236   6.380  10.120 -0.2612 -0.2296  0.1481
  120OSM    C5F12720  -0.260   6.189  10.029  0.5749  0.2208  0.8343
  120OSM    H5F12721  -0.370   6.205  10.038  0.1734 -1.4893 -0.7083
  120OSM    H5G12722  -0.233   6.082  10.042 -1.3856 -0.4336 -0.0521
  120OSM    C6F12723  -0.211   6.225   9.891  0.2050  0.7813 -0.4540
  120OSM    H6F12724  -0.215   6.333   9.869  0.2129  0.5712 -1.5374
  120OSM    H6G12725  -0.283   6.185   9.816 -1.1374  1.3498  0.5058
  120OSM    C7F12726  -0.069   6.178   9.857 -0.5915  0.8715  0.6041
  120OSM    H7F12727  -0.060   6.068   9.867  3.3061  0.7667 -1.9680
  120OSM    H7G12728  -0.004   6.238   9.924 -2.1222  1.6905  1.4195
  120OSM    C8F12729  -0.019   6.227   9.723  1.0381 -0.0020  0.3499
  120OSM    H8F12730   0.089   6.205   9.721  0.5612 -2.7093  0.1386
  120OSM    H8G12731  -0.035   6.337   9.717 -0.2817 -0.1331  0.9285
  120OSM    C9F12732  -0.072   6.155   9.600  0.3505 -0.2849 -0.6446
  120OSM    H9F12733  -0.136   6.070   9.626  0.8855 -0.1727  1.1527
  120OSM   C10F12734  -0.058   6.196   9.472  0.1609  0.0064 -0.0512
  120OSM   H10F12735  -0.106   6.133   9.396 -0.1495  1.4852 -1.1273
  120OSM   C11F12736   0.017   6.312   9.415  0.1836 -0.2985  0.5342
  120OSM   H11F12737   0.107   6.275   9.361  0.1363 -0.8516  0.8362
  120OSM   H11G12738   0.045   6.376   9.501  2.1675  0.6338 -0.7364
  120OSM   C12F12739  -0.076   6.395   9.324 -0.0572 -0.1076  0.1406
  120OSM   H12F12740  -0.025   6.492   9.309  0.2438 -0.3091 -0.1399
  120OSM   H12G12741  -0.168   6.413   9.385 -0.2804 -1.0322  0.0964
  120OSM   C13F12742  -0.105   6.334   9.187 -0.4251  0.5567 -0.6768
  120OSM   H13F12743  -0.162   6.239   9.190  3.4645 -1.9695  0.4587
  120OSM   H13G12744  -0.016   6.312   9.124 -0.3045  0.3951 -0.4488
  120OSM   C14F12745  -0.198   6.425   9.103  0.5480 -0.0260  1.5387
  120OSM   H14F12746  -0.145   6.494   9.034 -2.3534  0.7835 -0.0706
  120OSM   H14G12747  -0.275   6.474   9.166 -2.4280  1.6155 -2.9072
  120OSM   C15F12748  -0.297   6.334   9.023 -0.0725  0.2368 -0.4321
  120OSM   H15F12749  -0.371   6.398   8.972  1.8127  4.5770  1.7606
  120OSM   H15G12750  -0.362   6.282   9.097 -2.1114  1.6793 -1.1254
  120OSM   C16F12751  -0.224   6.233   8.925 -0.7249 -0.7545 -0.0629
  120OSM   H16F12752  -0.294   6.157   8.883 -0.1095 -0.9433 -0.7586
  120OSM   H16G12753  -0.138   6.186   8.977  0.0581  0.5840 -0.1312
  120OSM   C17F12754  -0.175   6.294   8.798 -0.4510  0.5359 -0.0496
  120OSM   H17F12755  -0.095   6.369   8.814 -1.8235  1.9116  0.7076
  120OSM   H17G12756  -0.260   6.350   8.753  0.7736  2.4803 -0.0762
  120OSM   C18F12757  -0.132   6.194   8.691 -0.4914 -0.5713  0.3575
  120OSM   H18F12758  -0.042   6.137   8.724  0.6048  0.4832 -0.7279
  120OSM   H18G12759  -0.099   6.254   8.604  1.8692  2.6500  3.2015
  120OSM   H18H12760  -0.219   6.134   8.656  0.0853 -0.2937 -1.6311
  121OSM      N12761   4.232   3.148  11.161 -0.5844  0.6820  0.6121
  121OSM    C1512762   4.214   3.086  11.297 -0.1308  0.7925 -0.0316
  121OSM   H15A12763   4.132   3.016  11.305 -0.0822  0.7631  0.2081
  121OSM   H15B12764   4.212   3.163  11.372 -2.1296  1.1341 -0.3842
  121OSM   H15C12765   4.296   3.019  11.317 -0.0503  0.7083 -0.6086
  121OSM    C1412766   4.252   3.026  11.068 -0.2158 -0.4075  0.0154
  121OSM   H14A12767   4.177   2.952  11.090  0.4446 -1.2213 -0.4509
  121OSM   H14B12768   4.350   2.984  11.084  0.7519  1.7338  0.1609
  121OSM   H14C12769   4.243   3.056  10.965  2.0200 -0.7956 -0.3343
  121OSM    C1312770   4.110   3.229  11.129 -0.3273 -0.6014 -0.1743
  121OSM   H13A12771   4.117   3.268  11.029 -0.3363  2.4684  0.9033
  121OSM   H13B12772   4.112   3.320  11.188  0.3357  0.7218 -2.1497
  121OSM   H13C12773   4.017   3.175  11.140 -1.5897  1.1429 -1.7131
  121OSM    C1212774   4.350   3.244  11.150 -0.8246  0.2953 -0.5680
  121OSM   H12A12775   4.323   3.342  11.187 -0.2250  0.9906 -1.8954
  121OSM   H12B12776   4.369   3.267  11.046 -0.4991  0.3103 -0.5056
  121OSM    C1112777   4.484   3.196  11.220  0.0581  0.0336  0.2062
  121OSM   H11A12778   4.474   3.160  11.325  0.5422 -2.4727 -0.5425
  121OSM   H11B12779   4.553   3.282  11.205  1.4464 -1.1624 -0.4649
  121OSM      P12780   4.653   3.008  11.177 -0.3287  0.1027  0.1090
  121OSM    O1312781   4.723   3.075  11.289  0.5883 -0.5957 -0.1676
  121OSM    O1412782   4.645   2.861  11.188 -0.1240  0.6531 -0.5208
  121OSM    O1112783   4.735   3.033  11.043  0.0933 -0.7554 -0.6654
  121OSM    O1212784   4.521   3.079  11.141 -0.1385 -0.4260 -0.3527
  121OSM    C1S12785   4.726   2.947  10.932  0.6050 -0.0045 -0.1716
  121OSM    H1S12786   4.624   2.906  10.915 -0.4019  2.0398  0.6265
  121OSM    H1T12787   4.802   2.866  10.943 -0.3892 -0.8884  0.4009
  121OSM     NF12788   4.715   2.946  10.681 -0.4002  0.8353 -0.0746
  121OSM    HNF12789   4.793   2.911  10.629  1.5443  5.7481 -0.9633
  121OSM    C2S12790   4.764   3.025  10.799  0.0416 -0.1843  0.5718
  121OSM    H2S12791   4.714   3.124  10.797  3.4212  1.7201  1.8138
  121OSM    C3S12792   4.917   3.057  10.816  0.3238  0.0175  0.6483
  121OSM    H3S12793   4.975   2.963  10.824 -0.0725 -0.1845  1.2086
  121OSM     O312794   4.958   3.136  10.928 -0.1219 -0.4392  0.1098
  121OSM    HO312795   4.875   3.152  10.973  1.4013  0.5128  2.7904
  121OSM    C4S12796   4.957   3.135  10.694 -0.0281  0.0293  0.4001
  121OSM    H4S12797   4.946   3.244  10.685  0.9185  0.0138 -1.5080
  121OSM    C5S12798   5.011   3.074  10.582  0.5517  0.4368 -0.4073
  121OSM    H5S12799   5.019   2.964  10.588  2.2306  0.5841  0.9956
  121OSM    C6S12800   5.047   3.142  10.457  0.2162 -0.3907  0.8664
  121OSM    H6S12801   5.053   3.252  10.468  0.9851 -0.2755 -0.5686
  121OSM    H6T12802   4.974   3.114  10.377 -0.6485  2.5552  0.5254
  121OSM    C7S12803   5.186   3.090  10.416 -0.6708  0.1950  0.3083
  121OSM    H7S12804   5.182   2.979  10.415  2.0588  0.0370  0.8020
  121OSM    H7T12805   5.264   3.116  10.490  0.3474 -1.1724 -0.2469
  121OSM    C8S12806   5.247   3.150  10.283 -0.0744  0.5700  0.5046
  121OSM    H8S12807   5.331   3.085  10.249 -0.9364 -0.1814 -0.2337
  121OSM    H8T12808   5.286   3.251  10.306 -2.0358  1.5834 -0.3357
  121OSM    C9S12809   5.159   3.153  10.156  0.0494  0.0773  0.2634
  121OSM    H9S12810   5.067   3.212  10.176 -1.1846 -2.0803  1.1818
  121OSM    H9T12811   5.120   3.052  10.131 -1.0032  0.8642 -1.4535
  121OSM   C10S12812   5.236   3.211  10.031  0.3220  0.4765  0.2701
  121OSM   H10S12813   5.337   3.165  10.023 -0.4069 -0.8286 -1.9710
  121OSM   H10T12814   5.245   3.322  10.038  1.1477  0.5822 -1.8872
  121OSM   C11S12815   5.156   3.185   9.905  0.1476  0.0732  0.0711
  121OSM   H11S12816   5.054   3.229   9.917 -0.5510 -0.9239 -1.7126
  121OSM   H11T12817   5.162   3.074   9.899  1.0315 -0.0675  2.5739
  121OSM   C12S12818   5.222   3.246   9.775  0.3335 -0.7682  0.4232
  121OSM   H12S12819   5.323   3.201   9.781 -0.2261 -2.2215 -0.5482
  121OSM   H12T12820   5.225   3.356   9.787 -0.2570 -0.8998  2.0925
  121OSM   C13S12821   5.144   3.210   9.648  0.3083  0.2617 -0.2997
  121OSM   H13S12822   5.044   3.253   9.669  0.0937 -1.1277  1.9140
  121OSM   H13T12823   5.105   3.106   9.640 -1.9227  1.1453 -1.9966
  121OSM   C14S12824   5.189   3.260   9.520  0.3191  0.4861  0.5972
  121OSM   H14S12825   5.268   3.185   9.497  2.2219  2.4232  0.5319
  121OSM   H14T12826   5.232   3.362   9.523  3.3360 -0.5296 -2.3212
  121OSM   C15S12827   5.075   3.263   9.415 -0.2439  0.3489  0.1013
  121OSM   H15S12828   4.980   3.309   9.449 -0.2207  0.9217 -0.5663
  121OSM   H15T12829   5.050   3.158   9.389 -2.3991  1.3514 -2.2801
  121OSM   C16S12830   5.117   3.332   9.281 -0.1372 -0.6537 -0.2386
  121OSM   H16S12831   5.194   3.278   9.222  0.3201  2.5617 -2.9126
  121OSM   H16T12832   5.165   3.428   9.313  0.8909 -1.4679  0.7340
  121OSM   C17S12833   5.002   3.378   9.187 -0.1193 -0.6849 -0.7931
  121OSM   H17S12834   4.919   3.419   9.249  1.4660 -0.4625  1.3356
  121OSM   H17T12835   4.958   3.291   9.135  0.4281 -1.4250 -0.0449
  121OSM   C18S12836   5.058   3.477   9.085 -0.0192 -0.5091 -0.1948
  121OSM   H18S12837   5.137   3.434   9.020 -0.0300 -0.4684 -0.2354
  121OSM   H18T12838   5.093   3.567   9.138 -0.1034 -0.1420 -0.7529
  121OSM   H18U12839   4.971   3.499   9.019 -0.7447 -1.1868  0.5147
  121OSM    C1F12840   4.583   2.932  10.659 -0.0662 -0.0352  0.6756
  121OSM     OF12841   4.491   2.981  10.721  0.3157  0.5253  0.1093
  121OSM    C2F12842   4.546   2.844  10.545 -0.6142  0.0409  0.1029
  121OSM    H2F12843   4.530   2.739  10.579  0.8992  0.1293  1.1907
  121OSM    H2G12844   4.627   2.848  10.468 -0.8063  0.4802 -0.0799
  121OSM    C3F12845   4.410   2.880  10.482 -0.0807 -0.4097  0.3452
  121OSM    H3F12846   4.431   2.971  10.420  1.3825 -0.4549  0.7299
  121OSM    H3G12847   4.333   2.909  10.556 -0.3184  2.3209 -0.8432
  121OSM    C4F12848   4.364   2.769  10.382 -0.2795 -0.4688  0.1892
  121OSM    H4F12849   4.277   2.813  10.329  1.6761  1.4237 -1.6427
  121OSM    H4G12850   4.323   2.672  10.416  0.4626 -0.1288  2.2324
  121OSM    C5F12851   4.474   2.735  10.285  0.3833  0.7540 -0.3643
  121OSM    H5F12852   4.532   2.647  10.319  0.5575  1.1912  0.4740
  121OSM    H5G12853   4.543   2.821  10.279  0.2716  1.0888  2.1833
  121OSM    C6F12854   4.421   2.693  10.148  0.5931  0.5668 -0.1809
  121OSM    H6F12855   4.349   2.768  10.109 -0.3520  0.5642  1.4908
  121OSM    H6G12856   4.362   2.601  10.171 -1.8061  1.5321 -2.0100
  121OSM    C7F12857   4.535   2.672  10.049  0.3631  0.4638  0.5946
  121OSM    H7F12858   4.591   2.584  10.086 -0.6996  0.2368  1.6821
  121OSM    H7G12859   4.601   2.762  10.054  2.5639 -1.0959  0.8428
  121OSM    C8F12860   4.478   2.655   9.904  0.1409  0.7028  0.5568
  121OSM    H8F12861   4.423   2.748   9.877 -0.5173 -0.1360 -1.1433
  121OSM    H8G12862   4.394   2.583   9.919 -0.6110  1.6011  0.7594
  121OSM    C9F12863   4.585   2.626   9.802  0.0177  0.4983  0.3917
  121OSM    H9F12864   4.684   2.600   9.842  0.7167  0.5628 -1.1964
  121OSM   C10F12865   4.563   2.623   9.664 -1.3787  0.4337 -0.4331
  121OSM   H10F12866   4.654   2.614   9.604  0.1130 -0.0676  1.7873
  121OSM   C11F12867   4.441   2.658   9.590 -0.8944 -0.8095 -0.1501
  121OSM   H11F12868   4.425   2.768   9.590 -0.8497 -0.7309  2.7148
  121OSM   H11G12869   4.360   2.621   9.656 -0.1502  3.4609  3.7203
  121OSM   C12F12870   4.454   2.600   9.449  0.2753 -0.2601  0.0877
  121OSM   H12F12871   4.363   2.619   9.389  0.9967  0.1229 -0.9154
  121OSM   H12G12872   4.468   2.490   9.455 -1.2079 -0.4167  1.0599
  121OSM   C13F12873   4.559   2.668   9.357 -0.7401 -0.0230  0.4439
  121OSM   H13F12874   4.665   2.642   9.379  0.0099  1.5257 -1.1177
  121OSM   H13G12875   4.546   2.778   9.366  1.4581  0.2745  0.5648
  121OSM   C14F12876   4.541   2.637   9.207 -0.7134 -0.2751 -0.1633
  121OSM   H14F12877   4.449   2.686   9.168 -0.4098 -0.7855 -1.5913
  121OSM   H14G12878   4.528   2.528   9.193 -3.7168  0.2260 -2.1991
  121OSM   C15F12879   4.663   2.682   9.126 -0.8185 -0.4650 -1.0803
  121OSM   H15F12880   4.668   2.627   9.030  1.4401  0.0126 -1.2851
  121OSM   H15G12881   4.754   2.654   9.183 -1.4451 -2.7838 -1.1430
  121OSM   C16F12882   4.673   2.834   9.101 -0.2543  0.5170 -0.4786
  121OSM   H16F12883   4.576   2.874   9.066 -0.1304 -0.3470 -1.8927
  121OSM   H16G12884   4.742   2.857   9.017  0.0147  0.8702 -0.1672
  121OSM   C17F12885   4.715   2.915   9.224 -0.5184 -0.4304  0.0769
  121OSM   H17F12886   4.785   2.883   9.303  1.0611  2.0215 -0.2275
  121OSM   H17G12887   4.622   2.949   9.275  0.0403  0.1430  0.7262
  121OSM   C18F12888   4.802   3.035   9.182 -0.2149 -0.6896 -0.6788
  121OSM   H18F12889   4.827   3.086   9.278 -3.6077 -2.3834  1.3017
  121OSM   H18G12890   4.740   3.093   9.110  1.2202 -1.9200 -3.0164
  121OSM   H18H12891   4.898   3.012   9.131  0.2797  0.4918 -0.3278
  122OSM      N12892   6.627   0.825  10.901 -0.2337  0.1178  0.2983
  122OSM    C1512893   6.632   0.672  10.880 -0.6641 -0.5819  0.2978
  122OSM   H15A12894   6.539   0.642  10.832 -1.2800  0.8635  0.5441
  122OSM   H15B12895   6.632   0.620  10.975 -0.2738 -0.6141  0.2825
  122OSM   H15C12896   6.718   0.647  10.821 -1.5664 -3.6364  0.1030
  122OSM    C1412897   6.750   0.858  10.981 -0.0045  0.0061  0.3798
  122OSM   H14A12898   6.755   0.960  11.017  3.3812 -1.0330  3.4052
  122OSM   H14B12899   6.837   0.842  10.918 -0.9201  1.4876 -1.3840
  122OSM   H14C12900   6.775   0.800  11.068 -0.1970 -1.4505 -0.5059
  122OSM    C1312901   6.633   0.886  10.759  0.3056 -0.0412 -0.7581
  122OSM   H13A12902   6.735   0.883  10.725  1.6242 -1.3853  2.8368
  122OSM   H13B12903   6.590   0.985  10.766 -1.2092 -0.6165 -1.4574
  122OSM   H13C12904   6.572   0.829  10.691 -3.1970  0.9242  1.3137
  122OSM    C1212905   6.498   0.858  10.973 -0.0520  0.5571 -0.1754
  122OSM   H12A12906   6.509   0.837  11.079  1.0028  0.1153 -0.3614
  122OSM   H12B12907   6.421   0.795  10.932  1.2015 -1.2263  0.0829
  122OSM    C1112908   6.446   1.006  10.959 -0.1700  0.0660 -0.4272
  122OSM   H11A12909   6.535   1.066  10.988 -0.2653 -0.3278  0.7426
  122OSM   H11B12910   6.378   1.041  11.039  0.2178  1.4712 -0.6887
  122OSM      P12911   6.262   1.028  10.776 -0.2480 -0.2077  0.0149
  122OSM    O1312912   6.209   0.896  10.824 -0.2074 -0.4585 -0.2109
  122OSM    O1412913   6.182   1.141  10.818 -0.1613  0.0644  0.3931
  122OSM    O1112914   6.281   1.024  10.624 -0.1069 -0.3799  0.4357
  122OSM    O1212915   6.407   1.052  10.833 -0.0291 -0.5857  0.2775
  122OSM    C1S12916   6.398   0.960  10.566 -0.0304  0.1322  0.4166
  122OSM    H1S12917   6.411   0.865  10.622  0.1914  0.7027  1.3569
  122OSM    H1T12918   6.485   1.029  10.572 -2.0581  3.4379 -3.3139
  122OSM     NF12919   6.476   0.839  10.359 -0.0645  0.1057 -0.7095
  122OSM    HNF12920   6.556   0.861  10.305  0.7881 -0.1356  0.4174
  122OSM    C2S12921   6.385   0.944  10.411  0.6517  0.1265 -0.6207
  122OSM    H2S12922   6.280   0.919  10.386 -0.1499  2.4508  0.2191
  122OSM    C3S12923   6.412   1.081  10.341 -0.4225  0.4548 -0.0355
  122OSM    H3S12924   6.506   1.132  10.372 -0.3763  0.0971  0.4269
  122OSM     O312925   6.311   1.173  10.378  0.4817  0.0594 -1.0071
  122OSM    HO312926   6.277   1.139  10.461  0.5703  0.7541 -0.6874
  122OSM    C4S12927   6.409   1.070  10.188 -0.3768  0.1368 -0.0393
  122OSM    H4S12928   6.309   1.068  10.142 -0.2799  0.0436 -0.2459
  122OSM    C5S12929   6.516   1.065  10.111 -0.0163  0.0164 -0.2581
  122OSM    H5S12930   6.614   1.090  10.154  0.0747  0.5475 -0.7662
  122OSM    C6S12931   6.505   1.061   9.958 -0.1653 -0.2648 -0.4376
  122OSM    H6S12932   6.572   0.975   9.936 -0.8905 -0.9547  0.0307
  122OSM    H6T12933   6.553   1.150   9.912 -2.7775  0.8799 -1.1346
  122OSM    C7S12934   6.367   1.033   9.907  0.1229  0.2940  0.2040
  122OSM    H7S12935   6.295   1.116   9.921  0.4880  0.9162 -1.4204
  122OSM    H7T12936   6.313   0.950   9.958 -1.8968  1.7456  0.5469
  122OSM    C8S12937   6.357   0.996   9.752  0.4537  0.4303  0.3238
  122OSM    H8S12938   6.252   0.970   9.726  0.4262  0.7531  0.1065
  122OSM    H8T12939   6.432   0.915   9.736  0.2399  0.4296 -0.7234
  122OSM    C9S12940   6.402   1.099   9.652  0.3640  0.0387 -0.3401
  122OSM    H9S12941   6.511   1.114   9.667  0.8902  0.2812 -3.7089
  122OSM    H9T12942   6.334   1.183   9.681  1.3509  0.1114  2.0287
  122OSM   C10S12943   6.388   1.045   9.513 -0.2065  0.3571  1.3352
  122OSM   H10S12944   6.281   1.035   9.487  0.0153 -1.8885  1.1334
  122OSM   H10T12945   6.426   0.941   9.512 -0.4422  0.2779  0.6751
  122OSM   C11S12946   6.470   1.124   9.409 -0.3233  0.6500 -0.9314
  122OSM   H11S12947   6.575   1.144   9.438  0.6984 -1.3367 -2.9911
  122OSM   H11T12948   6.418   1.222   9.403 -1.0646  0.4871  1.6761
  122OSM   C12S12949   6.477   1.067   9.265 -0.8584 -0.3998 -0.2932
  122OSM   H12S12950   6.504   1.159   9.209 -0.7425  1.4515  2.6041
  122OSM   H12T12951   6.379   1.039   9.222 -1.2752  1.1117 -0.3903
  122OSM   C13S12952   6.584   0.968   9.240 -0.6342  0.2203  0.0672
  122OSM   H13S12953   6.567   0.879   9.306 -2.2230  0.1526 -0.3983
  122OSM   H13T12954   6.683   1.008   9.270 -0.9445  1.0673 -0.0266
  122OSM   C14S12955   6.585   0.906   9.096 -0.4058 -0.3102 -0.1701
  122OSM   H14S12956   6.623   0.983   9.026 -2.0764  0.6768 -0.0447
  122OSM   H14T12957   6.481   0.877   9.071 -0.2911 -0.8533 -0.0392
  122OSM   C15S12958   6.678   0.785   9.092 -0.1065  0.8151 -0.3415
  122OSM   H15S12959   6.629   0.703   9.149 -0.3659  1.9766  1.1758
  122OSM   H15T12960   6.775   0.815   9.139  0.3704 -1.4323  0.2125
  122OSM   C16S12961   6.723   0.755   8.942  0.4487 -0.6348  0.1532
  122OSM   H16S12962   6.779   0.843   8.905  0.9869 -1.1437 -0.2666
  122OSM   H16T12963   6.630   0.739   8.882 -0.9837 -1.1022  2.3662
  122OSM   C17S12964   6.807   0.623   8.942  0.4945  0.1655  0.7164
  122OSM   H17S12965   6.894   0.655   9.003  0.1632 -0.2064  1.3974
  122OSM   H17T12966   6.863   0.604   8.849  0.4227 -0.5102  0.8033
  122OSM   C18S12967   6.754   0.493   9.002  0.6830 -0.0348  0.3034
  122OSM   H18S12968   6.837   0.420   8.988  1.7355  1.2375 -0.2015
  122OSM   H18T12969   6.665   0.457   8.945  0.1911  2.2675 -0.4616
  122OSM   H18U12970   6.716   0.495   9.107  0.8988  0.8327  0.3727
  122OSM    C1F12971   6.452   0.715  10.393 -0.4184  0.5385 -0.2504
  122OSM     OF12972   6.361   0.688  10.465  0.6207  0.3723 -0.7711
  122OSM    C2F12973   6.550   0.612  10.349 -0.0853  0.4521  0.1886
  122OSM    H2F12974   6.564   0.544  10.436 -1.4989 -0.1035  0.0033
  122OSM    H2G12975   6.650   0.659  10.338  0.1129 -0.0351 -0.1129
  122OSM    C3F12976   6.518   0.527  10.224 -0.4136  0.6187 -0.3311
  122OSM    H3F12977   6.420   0.474  10.223  0.7989 -1.7298  0.0288
  122OSM    H3G12978   6.595   0.449  10.208  0.5622  1.4409  0.2470
  122OSM    C4F12979   6.511   0.611  10.092 -0.3870  0.3289  0.6757
  122OSM    H4F12980   6.580   0.698  10.098  0.6894 -0.3665 -0.9668
  122OSM    H4G12981   6.405   0.641  10.082 -0.9320 -1.5700  0.4079
  122OSM    C5F12982   6.551   0.534   9.960  0.4387 -0.8346 -0.1145
  122OSM    H5F12983   6.474   0.456   9.943 -0.1125 -0.0594 -1.2458
  122OSM    H5G12984   6.653   0.490   9.973 -0.2468 -2.1916  0.8944
  122OSM    C6F12985   6.570   0.619   9.830 -0.4184  0.1954  0.1590
  122OSM    H6F12986   6.658   0.683   9.850 -0.2023 -0.4214  1.2442
  122OSM    H6G12987   6.473   0.671   9.818 -0.9375 -0.5136  1.1438
  122OSM    C7F12988   6.590   0.520   9.710  0.5742 -0.3261 -0.2252
  122OSM    H7F12989   6.519   0.544   9.628 -0.0610 -2.1091 -0.2459
  122OSM    H7G12990   6.557   0.417   9.737 -1.8071  0.0859 -1.3095
  122OSM    C8F12991   6.738   0.525   9.673  0.8249 -0.3857 -0.3000
  122OSM    H8F12992   6.807   0.488   9.751  1.2099  0.9980  0.0405
  122OSM    H8G12993   6.785   0.625   9.674  3.4282 -1.5240  1.6497
  122OSM    C9F12994   6.761   0.452   9.538 -0.3351  0.4520 -0.1934
  122OSM    H9F12995   6.699   0.367   9.505 -0.8842  1.0138 -0.6198
  122OSM   C10F12996   6.870   0.477   9.464  0.0795  0.4088 -0.0336
  122OSM   H10F12997   6.896   0.406   9.384  1.8223  1.6172 -0.5930
  122OSM   C11F12998   6.983   0.573   9.491  0.3163 -0.4507 -0.5268
  122OSM   H11F12999   7.073   0.509   9.508  2.3765  1.5819 -2.9251
  122OSM   H11G13000   6.970   0.649   9.571 -0.3576 -1.3425  0.2273
  122OSM   C12F13001   7.027   0.661   9.369 -0.6815 -0.3647 -0.3206
  122OSM   H12F13002   7.115   0.723   9.397 -1.0136  0.6010 -1.3175
  122OSM   H12G13003   6.940   0.729   9.363  0.5446  1.2369 -0.8180
  122OSM   C13F13004   7.042   0.589   9.236  0.2782  0.5223  0.2009
  122OSM   H13F13005   7.074   0.660   9.157  1.8135  1.0331  1.2520
  122OSM   H13G13006   6.944   0.558   9.192  1.0115  3.2212 -3.9511
  122OSM   C14F13007   7.141   0.469   9.233  0.0400 -0.1945 -0.8345
  122OSM   H14F13008   7.097   0.385   9.290 -0.1522  1.4623  1.5700
  122OSM   H14G13009   7.239   0.495   9.278 -0.5699  1.4547 -0.4178
  122OSM   C15F13010   7.163   0.422   9.091  0.6527  0.3329  0.5215
  122OSM   H15F13011   7.216   0.507   9.044  0.7455  0.0957  0.1968
  122OSM   H15G13012   7.065   0.411   9.042  0.9034 -0.4534  0.1727
  122OSM   C16F13013   7.260   0.306   9.071 -0.0845  0.2667  0.6664
  122OSM   H16F13014   7.192   0.220   9.089 -1.8536  1.6101  0.6980
  122OSM   H16G13015   7.337   0.299   9.151  1.0439  0.0281 -0.4022
  122OSM   C17F13016   7.323   0.303   8.938  0.4301  0.8433  1.0540
  122OSM   H17F13017   7.381   0.395   8.919  0.8598  0.2880 -0.4900
  122OSM   H17G13018   7.248   0.300   8.855  1.0283 -2.4786  0.4629
  122OSM   C18F13019   7.408   0.174   8.906 -0.3249 -0.1613 -0.0662
  122OSM   H18F13020   7.457   0.189   8.808 -0.0387 -0.6357 -0.0034
  122OSM   H18G13021   7.331   0.094   8.905 -1.3529  0.7673  1.0067
  122OSM   H18H13022   7.491   0.153   8.977  0.4265  0.0187 -0.8736
  123OSM      N13023   5.007   3.636   5.845  0.1409 -0.4272 -0.1959
  123OSM    C1513024   5.042   3.731   5.734 -0.3495 -0.7187  0.2964
  123OSM   H15A13025   4.966   3.807   5.727  0.5178  0.2753  1.4505
  123OSM   H15B13026   5.050   3.677   5.640  0.1576  1.1361 -0.7648
  123OSM   H15C13027   5.136   3.774   5.765 -0.3270 -0.9150  0.5107
  123OSM    C1413028   4.872   3.572   5.819  0.3223 -0.2473 -0.3229
  123OSM   H14A13029   4.865   3.510   5.907  1.0279  0.9650  0.6244
  123OSM   H14B13030   4.870   3.528   5.721  2.3640  1.4073 -1.1972
  123OSM   H14C13031   4.797   3.650   5.820  1.7234  1.1946  1.9113
  123OSM    C1313032   5.110   3.536   5.859  0.3491  0.3963 -0.0260
  123OSM   H13A13033   5.207   3.578   5.879 -0.4441  1.1501  2.5138
  123OSM   H13B13034   5.120   3.483   5.765 -0.7176 -1.2841  0.7506
  123OSM   H13C13035   5.072   3.466   5.932 -0.1561  1.4936  0.7882
  123OSM    C1213036   5.000   3.721   5.971  0.1665 -0.0304 -0.4227
  123OSM   H12A13037   4.926   3.798   5.954  0.2395  0.5985  1.8310
  123OSM   H12B13038   5.093   3.772   5.989 -0.5762  0.8872  0.9972
  123OSM    C1113039   4.958   3.653   6.109  0.1880 -0.0398  0.3049
  123OSM   H11A13040   4.998   3.710   6.195  1.1235  0.5386 -0.4977
  123OSM   H11B13041   5.010   3.555   6.117 -0.4312 -0.3961  0.0381
  123OSM      P13042   4.723   3.741   6.106  0.1983  0.3739 -0.4601
  123OSM    O1313043   4.720   3.792   5.971  0.5149  0.0221  0.1671
  123OSM    O1413044   4.594   3.702   6.156  0.0310  0.1765  0.4858
  123OSM    O1113045   4.785   3.847   6.212 -0.0874 -0.7032  0.4239
  123OSM    O1213046   4.821   3.625   6.110 -0.8953 -0.5197  0.0107
  123OSM    C1S13047   4.789   3.803   6.351 -0.5397 -0.3773 -0.4862
  123OSM    H1S13048   4.845   3.708   6.362  0.0294  0.0874  0.8790
  123OSM    H1T13049   4.688   3.789   6.395 -0.9981 -0.2624 -1.4895
  123OSM     NF13050   4.853   3.852   6.582 -0.1576  0.3387 -0.4528
  123OSM    HNF13051   4.781   3.895   6.635  1.6308  0.5278  2.0194
  123OSM    C2S13052   4.871   3.901   6.444  0.7794  1.2909  1.2459
  123OSM    H2S13053   4.976   3.888   6.412  0.1866  0.4996 -0.5598
  123OSM    C3S13054   4.835   4.053   6.433 -0.3250 -0.3039  0.6234
  123OSM    H3S13055   4.728   4.072   6.454 -0.4168 -1.0722  0.8615
  123OSM     O313056   4.848   4.110   6.302 -0.0192  0.2442 -0.1620
  123OSM    HO313057   4.821   4.032   6.253 -0.2890  0.3741 -0.2247
  123OSM    C4S13058   4.913   4.128   6.541  0.4417 -0.4023 -0.1814
  123OSM    H4S13059   4.871   4.119   6.642  1.5530  1.7527  0.5215
  123OSM    C5S13060   5.031   4.193   6.528  0.3179 -0.0664 -0.0631
  123OSM    H5S13061   5.082   4.191   6.430  2.6668  2.7520  0.9561
  123OSM    C6S13062   5.114   4.268   6.630  0.1183 -0.2906  0.2755
  123OSM    H6S13063   5.104   4.378   6.617 -0.9390 -0.0479  2.6424
  123OSM    H6T13064   5.223   4.253   6.617  0.3922  0.6567  1.2938
  123OSM    C7S13065   5.087   4.239   6.774  0.4125  0.9490  0.4640
  123OSM    H7S13066   5.095   4.130   6.789 -0.6982  1.1353  2.9043
  123OSM    H7T13067   4.982   4.272   6.788 -0.2888  0.5115 -2.9667
  123OSM    C8S13068   5.185   4.310   6.863 -0.1703 -0.0297 -0.4060
  123OSM    H8S13069   5.156   4.417   6.860 -1.6110 -0.2600  2.2299
  123OSM    H8T13070   5.289   4.296   6.826 -0.0525 -2.7167  0.7227
  123OSM    C9S13071   5.181   4.261   7.008  0.0627  0.2186  0.1736
  123OSM    H9S13072   5.218   4.156   7.011 -1.5665 -0.6073 -3.4290
  123OSM    H9T13073   5.081   4.252   7.055  0.1115 -2.8902 -0.1346
  123OSM   C10S13074   5.270   4.358   7.086 -0.3654  1.1829  0.0021
  123OSM   H10S13075   5.243   4.464   7.063 -0.9581  0.9521 -0.3880
  123OSM   H10T13076   5.376   4.341   7.057  1.0030 -0.4338  4.9503
  123OSM   C11S13077   5.243   4.344   7.236 -0.1007 -0.4237 -0.8006
  123OSM   H11S13078   5.133   4.343   7.249  0.1090 -1.2927  1.3077
  123OSM   H11T13079   5.279   4.437   7.285  0.0719  1.1919 -3.7783
  123OSM   C12S13080   5.298   4.223   7.310  0.1021  0.1212 -0.1852
  123OSM   H12S13081   5.408   4.233   7.298  0.0588  0.9643  0.0744
  123OSM   H12T13082   5.263   4.130   7.261 -0.5949  1.6001 -2.6166
  123OSM   C13S13083   5.248   4.222   7.458  0.0293  0.4922 -0.8188
  123OSM   H13S13084   5.137   4.213   7.460 -0.1439  1.9099 -2.0069
  123OSM   H13T13085   5.288   4.314   7.508  1.1678  0.0928 -0.9731
  123OSM   C14S13086   5.306   4.092   7.524  0.1584  0.3636  0.4170
  123OSM   H14S13087   5.416   4.076   7.526 -0.2799 -3.6208  0.0778
  123OSM   H14T13088   5.285   4.006   7.457  4.1072  0.8448 -1.7380
  123OSM   C15S13089   5.256   4.057   7.660  0.0329  0.4532 -0.1073
  123OSM   H15S13090   5.286   3.952   7.679  0.7253  0.5445 -0.6551
  123OSM   H15T13091   5.147   4.065   7.684 -0.5035 -1.2901 -1.7434
  123OSM   C16S13092   5.330   4.144   7.769 -0.8228 -0.0391 -0.5672
  123OSM   H16S13093   5.277   4.241   7.775  1.0134  0.9227  1.4649
  123OSM   H16T13094   5.435   4.164   7.738 -0.4903 -1.2852 -0.3092
  123OSM   C17S13095   5.322   4.083   7.907  0.2430  0.2028  0.2647
  123OSM   H17S13096   5.408   4.013   7.916  1.1709  1.5402  3.0923
  123OSM   H17T13097   5.226   4.028   7.916 -0.1509  1.2147  3.1987
  123OSM   C18S13098   5.333   4.192   8.014  0.0416  0.8098  0.2771
  123OSM   H18S13099   5.247   4.261   8.026 -0.7767 -0.2754  0.8183
  123OSM   H18T13100   5.424   4.252   7.990 -1.1288  1.8299 -1.9100
  123OSM   H18U13101   5.363   4.149   8.112 -0.8843  0.2131  0.3125
  123OSM    C1F13102   4.907   3.743   6.639  0.4154  0.2979  0.6234
  123OSM     OF13103   4.974   3.668   6.569 -0.5048 -0.1171  0.0151
  123OSM    C2F13104   4.878   3.713   6.777  0.0185  0.0649 -1.0180
  123OSM    H2F13105   4.785   3.651   6.779 -1.4310  2.0852 -1.9190
  123OSM    H2G13106   4.876   3.805   6.841  1.2905 -0.9922  0.6357
  123OSM    C3F13107   4.989   3.638   6.850  0.7294  0.0450  0.6396
  123OSM    H3F13108   5.064   3.717   6.872  4.0837 -2.4464 -0.9149
  123OSM    H3G13109   5.034   3.547   6.806 -0.2746 -0.4497  0.6093
  123OSM    C4F13110   4.942   3.591   6.989  0.1272 -0.2171  0.2226
  123OSM    H4F13111   4.868   3.509   6.978  0.8787 -0.7626 -1.0922
  123OSM    H4G13112   4.898   3.673   7.049 -0.9716 -0.1785 -0.5994
  123OSM    C5F13113   5.060   3.525   7.064 -0.0775  0.5322 -0.2675
  123OSM    H5F13114   5.144   3.596   7.075 -0.0334  0.8423 -2.2375
  123OSM    H5G13115   5.098   3.449   6.992 -0.1017 -0.0323  0.3036
  123OSM    C6F13116   5.022   3.460   7.198 -0.4050 -0.6497 -0.3452
  123OSM    H6F13117   4.934   3.392   7.192  0.7241 -2.0464 -1.7841
  123OSM    H6G13118   4.966   3.538   7.255  1.2295  1.4929 -1.5258
  123OSM    C7F13119   5.143   3.406   7.270  0.0522  0.4561  0.1440
  123OSM    H7F13120   5.216   3.489   7.266 -0.1782  0.6329 -0.6318
  123OSM    H7G13121   5.182   3.317   7.217  1.0508 -1.2749  3.5031
  123OSM    C8F13122   5.107   3.372   7.417  0.1300  0.8009  0.1148
  123OSM    H8F13123   5.062   3.462   7.465 -3.9462 -0.5969 -0.7177
  123OSM    H8G13124   5.194   3.339   7.476 -0.7968  0.4597  1.3245
  123OSM    C9F13125   5.008   3.259   7.422 -0.1787 -0.6210  0.1877
  123OSM    H9F13126   5.026   3.182   7.346  1.4095 -1.5634  1.4426
  123OSM   C10F13127   4.900   3.242   7.504  0.3508 -0.0650  0.0399
  123OSM   H10F13128   4.840   3.150   7.502  1.2201 -0.7070  1.5537
  123OSM   C11F13129   4.868   3.331   7.625 -1.5164  0.0400 -0.5391
  123OSM   H11F13130   4.758   3.329   7.642 -1.6995  0.5435 -1.5476
  123OSM   H11G13131   4.900   3.436   7.603 -1.1812 -0.5990 -3.5660
  123OSM   C12F13132   4.950   3.277   7.741  0.6122  0.3948 -0.0621
  123OSM   H12F13133   5.057   3.281   7.710  0.7486  0.7417  0.4407
  123OSM   H12G13134   4.925   3.175   7.776  2.0599 -0.2283 -0.7355
  123OSM   C13F13135   4.933   3.369   7.869  0.0153 -0.3650  0.3413
  123OSM   H13F13136   4.823   3.374   7.876 -0.3017 -1.6111 -2.3016
  123OSM   H13G13137   4.984   3.466   7.851  0.0061 -0.6472 -1.3733
  123OSM   C14F13138   4.995   3.306   7.993 -0.0670  0.2960 -0.5781
  123OSM   H14F13139   5.103   3.284   7.979 -0.0161  1.1040 -1.6110
  123OSM   H14G13140   4.944   3.209   8.008  0.3947  0.0050 -0.8793
  123OSM   C15F13141   4.976   3.394   8.119 -0.3484  0.4977 -0.0877
  123OSM   H15F13142   4.868   3.416   8.133 -0.6101  0.3929 -1.7376
  123OSM   H15G13143   5.031   3.489   8.101  3.0309 -1.8881 -4.3463
  123OSM   C16F13144   5.034   3.332   8.246  0.2575 -0.1501 -0.3291
  123OSM   H16F13145   5.005   3.227   8.266  0.0158 -0.0881 -0.3532
  123OSM   H16G13146   5.010   3.397   8.333 -0.2138  0.2169 -0.7284
  123OSM   C17F13147   5.193   3.348   8.247  0.0592  0.2038 -0.1380
  123OSM   H17F13148   5.220   3.453   8.223  1.4423  0.5613  2.5672
  123OSM   H17G13149   5.235   3.290   8.161  1.4650 -2.1253  1.9574
  123OSM   C18F13150   5.260   3.296   8.373 -0.0963 -0.0474  0.7279
  123OSM   H18F13151   5.204   3.317   8.467  0.6062 -0.6831  1.3001
  123OSM   H18G13152   5.367   3.326   8.375  0.8060 -2.9074 -0.0486
  123OSM   H18H13153   5.253   3.185   8.374 -2.9763  0.0612  1.2904
  124OSM      N13154   2.262   6.771   6.224 -0.3585  0.8299 -0.0168
  124OSM    C1513155   2.204   6.736   6.095  0.3852 -0.5896  0.3252
  124OSM   H15A13156   2.126   6.805   6.066  2.2800  2.0109  1.0781
  124OSM   H15B13157   2.156   6.640   6.087  0.0320 -0.4092  0.2317
  124OSM   H15C13158   2.278   6.727   6.017 -2.2457 -2.3231 -2.1853
  124OSM    C1413159   2.269   6.925   6.233 -0.2781 -0.1356 -0.0410
  124OSM   H14A13160   2.169   6.964   6.225  0.2993  1.4898  0.3447
  124OSM   H14B13161   2.319   6.974   6.151 -1.0046 -2.2664 -1.8594
  124OSM   H14C13162   2.320   6.956   6.323  0.3841 -1.5621  0.0995
  124OSM    C1313163   2.158   6.730   6.330  0.1873  0.9728 -0.4942
  124OSM   H13A13164   2.170   6.782   6.424  3.1964  0.8500 -0.7065
  124OSM   H13B13165   2.177   6.626   6.354 -1.1623  1.0633  1.1188
  124OSM   H13C13166   2.060   6.750   6.289 -0.2766  3.1931  1.4963
  124OSM    C1213167   2.392   6.706   6.236 -0.4600 -0.1967  0.1373
  124OSM   H12A13168   2.445   6.742   6.323  0.7790 -1.3029 -0.1283
  124OSM   H12B13169   2.452   6.732   6.151 -0.4925 -2.4074 -0.6087
  124OSM    C1113170   2.381   6.555   6.253  0.0021 -0.6887  0.3739
  124OSM   H11A13171   2.479   6.510   6.225  1.2955  0.9852  1.9587
  124OSM   H11B13172   2.299   6.511   6.194 -1.8678  1.4231  1.2645
  124OSM      P13173   2.301   6.378   6.412 -0.0168  0.0464 -0.2964
  124OSM    O1313174   2.152   6.383   6.399  0.2656 -0.3936 -1.1407
  124OSM    O1413175   2.373   6.278   6.331  0.0786  0.5673 -0.4199
  124OSM    O1113176   2.338   6.347   6.565 -0.7456  0.6203  0.1305
  124OSM    O1213177   2.357   6.522   6.392  0.4360  0.1533 -0.2790
  124OSM    C1S13178   2.285   6.438   6.662 -0.2955 -0.2068  0.4975
  124OSM    H1S13179   2.177   6.455   6.646 -0.1942 -0.6820 -0.8720
  124OSM    H1T13180   2.330   6.539   6.655 -1.5017  0.2814 -0.9671
  124OSM     NF13181   2.240   6.447   6.899  0.5022 -1.2487  0.1324
  124OSM    HNF13182   2.276   6.531   6.937  0.9869 -1.5218  0.2768
  124OSM    C2S13183   2.316   6.376   6.798 -0.2037 -0.5527 -0.4954
  124OSM    H2S13184   2.287   6.269   6.793  0.8309 -0.8681 -0.0357
  124OSM    C3S13185   2.471   6.390   6.814 -0.8406 -0.4569  0.6803
  124OSM    H3S13186   2.499   6.497   6.803  0.1752 -0.6439  1.3670
  124OSM     O313187   2.553   6.324   6.713  0.4135 -0.0619  0.0783
  124OSM    HO313188   2.496   6.306   6.637 -0.5346  2.0065  0.2378
  124OSM    C4S13189   2.513   6.346   6.948  0.3474  0.0129 -0.1741
  124OSM    H4S13190   2.489   6.240   6.967  0.1903  0.4361  2.3570
  124OSM    C5S13191   2.573   6.419   7.046 -0.1316  0.2140  0.2026
  124OSM    H5S13192   2.573   6.525   7.017  1.1028  0.1590 -0.0350
  124OSM    C6S13193   2.624   6.367   7.174 -0.3258  0.1324 -0.3165
  124OSM    H6S13194   2.732   6.390   7.185 -0.6351  2.4456 -1.3173
  124OSM    H6T13195   2.611   6.257   7.172 -0.7651  0.1008  2.1077
  124OSM    C7S13196   2.537   6.411   7.292 -0.1999  0.2381  0.0259
  124OSM    H7S13197   2.554   6.521   7.292 -0.0451  0.2151  0.0034
  124OSM    H7T13198   2.583   6.367   7.383 -1.2316  0.2458  0.5598
  124OSM    C8S13199   2.393   6.384   7.290 -0.1659 -0.5881 -0.5398
  124OSM    H8S13200   2.387   6.273   7.292  0.1077 -0.6224 -1.2927
  124OSM    H8T13201   2.348   6.425   7.197  1.1395  0.5677 -0.7016
  124OSM    C9S13202   2.313   6.451   7.406 -0.9218  0.2044 -0.3266
  124OSM    H9S13203   2.211   6.406   7.399 -1.1595  0.9073 -1.6565
  124OSM    H9T13204   2.306   6.560   7.391  1.3784  0.3111 -1.0138
  124OSM   C10S13205   2.354   6.425   7.551 -0.3207 -0.3978 -0.1321
  124OSM   H10S13206   2.446   6.478   7.583  0.4356 -1.3019 -0.7347
  124OSM   H10T13207   2.385   6.319   7.564 -0.5069 -0.3726  0.5410
  124OSM   C11S13208   2.244   6.455   7.653  0.2248  0.3164  0.0444
  124OSM   H11S13209   2.159   6.383   7.657  0.4275  0.1197  1.5318
  124OSM   H11T13210   2.199   6.556   7.643 -0.6602  0.0429  1.0267
  124OSM   C12S13211   2.309   6.444   7.792  0.2601 -0.4502  0.6901
  124OSM   H12S13212   2.399   6.508   7.807  0.7895 -1.0679  0.1881
  124OSM   H12T13213   2.352   6.342   7.785 -1.1617 -1.0668  0.4707
  124OSM   C13S13214   2.217   6.460   7.915  0.0584  0.0524  0.6933
  124OSM   H13S13215   2.160   6.367   7.936 -0.5651  0.2607 -0.0617
  124OSM   H13T13216   2.133   6.528   7.891 -0.4459 -0.7679  0.0893
  124OSM   C14S13217   2.295   6.516   8.033 -0.6088 -0.0278  0.3548
  124OSM   H14S13218   2.355   6.602   7.996 -0.4026 -0.7966 -1.1935
  124OSM   H14T13219   2.380   6.451   8.066 -0.5100  0.8496  1.9380
  124OSM   C15S13220   2.208   6.533   8.155  0.5854 -0.6920 -0.0460
  124OSM   H15S13221   2.176   6.428   8.176 -0.5489 -0.2639  0.4441
  124OSM   H15T13222   2.121   6.593   8.121  1.8964  0.0663 -2.3393
  124OSM   C16S13223   2.270   6.616   8.261 -0.2436  0.2868 -0.3033
  124OSM   H16S13224   2.303   6.718   8.232  1.2030 -0.0288  0.1096
  124OSM   H16T13225   2.361   6.561   8.296 -0.1563  0.7838  0.2526
  124OSM   C17S13226   2.178   6.635   8.375  0.3435  0.8116  0.6389
  124OSM   H17S13227   2.173   6.540   8.433 -1.4345 -0.4281 -1.3735
  124OSM   H17T13228   2.080   6.654   8.326 -0.1492  1.6352  1.9018
  124OSM   C18S13229   2.216   6.746   8.465 -0.4424 -0.5206  0.3173
  124OSM   H18S13230   2.312   6.731   8.519 -0.0565 -0.2230 -0.2846
  124OSM   H18T13231   2.146   6.764   8.550 -1.8323 -4.3340  0.1917
  124OSM   H18U13232   2.229   6.834   8.398  1.4593 -1.2878 -0.3856
  124OSM    C1F13233   2.108   6.410   6.919 -0.0351  0.0512  0.6936
  124OSM     OF13234   2.071   6.308   6.865  0.1522 -0.1427  0.8717
  124OSM    C2F13235   2.015   6.488   7.004 -1.3670 -0.7379 -0.2551
  124OSM    H2F13236   1.921   6.505   6.948 -1.0635  1.4294 -0.1932
  124OSM    H2G13237   2.064   6.583   7.034 -0.2632 -1.7192  1.2541
  124OSM    C3F13238   1.992   6.416   7.137 -0.8577  0.6101  0.1984
  124OSM    H3F13239   2.087   6.394   7.188 -1.1754  0.4540  0.7316
  124OSM    H3G13240   1.949   6.315   7.120 -3.3064  1.4087  1.0633
  124OSM    C4F13241   1.894   6.491   7.230 -0.2484 -0.1854 -0.8934
  124OSM    H4F13242   1.789   6.488   7.193 -0.2610  2.0951 -1.1898
  124OSM    H4G13243   1.923   6.598   7.239 -2.5495  0.3474  1.2127
  124OSM    C5F13244   1.911   6.433   7.371  0.0870  0.6818  0.2087
  124OSM    H5F13245   2.014   6.462   7.398  1.3245 -4.3470  2.0529
  124OSM    H5G13246   1.906   6.322   7.365 -0.1126  0.7490 -1.0463
  124OSM    C6F13247   1.816   6.478   7.481  0.0613  0.2187 -0.3640
  124OSM    H6F13248   1.713   6.443   7.456  0.0878 -0.0190 -0.1457
  124OSM    H6G13249   1.823   6.588   7.469  0.7236  0.4415  1.6810
  124OSM    C7F13250   1.858   6.429   7.621  0.2430  0.1101  0.2856
  124OSM    H7F13251   1.947   6.494   7.635 -0.5810  1.5727 -0.9363
  124OSM    H7G13252   1.893   6.324   7.626 -2.6117 -0.9036  0.6405
  124OSM    C8F13253   1.749   6.468   7.730  0.7632 -0.5003 -0.8255
  124OSM    H8F13254   1.654   6.488   7.675  0.6073 -0.9181 -0.7124
  124OSM    H8G13255   1.775   6.555   7.793 -0.7289 -1.2809  0.9803
  124OSM    C9F13256   1.735   6.347   7.826 -0.5031  0.3183  0.5890
  124OSM    H9F13257   1.701   6.253   7.780 -0.0012  1.2165 -1.7729
  124OSM   C10F13258   1.751   6.355   7.960  0.1766  0.2776  0.3967
  124OSM   H10F13259   1.750   6.266   8.025  0.3453  0.6650  0.9395
  124OSM   C11F13260   1.774   6.481   8.039  0.3068 -0.0291  0.2854
  124OSM   H11F13261   1.732   6.572   7.990 -0.9804  0.0968  1.5360
  124OSM   H11G13262   1.883   6.493   8.058  0.7030 -1.9980 -0.5179
  124OSM   C12F13263   1.703   6.477   8.173 -0.5067  0.4168 -0.6644
  124OSM   H12F13264   1.676   6.374   8.206  0.0049 -0.0810 -1.7555
  124OSM   H12G13265   1.606   6.524   8.150  0.1894  1.5182 -1.4352
  124OSM   C13F13266   1.775   6.561   8.278  0.1743 -0.0613  0.4213
  124OSM   H13F13267   1.812   6.646   8.217  1.2661 -0.5381  0.3832
  124OSM   H13G13268   1.860   6.503   8.321  0.0350 -1.9005 -1.6341
  124OSM   C14F13269   1.675   6.629   8.376 -0.2623  0.8883 -0.3371
  124OSM   H14F13270   1.606   6.692   8.315 -0.7700 -0.4530 -1.2070
  124OSM   H14G13271   1.739   6.689   8.443  1.7471 -0.1574 -1.2473
  124OSM   C15F13272   1.594   6.531   8.462 -0.7090  0.1845  0.0697
  124OSM   H15F13273   1.649   6.462   8.530 -0.5499 -1.4776 -1.6813
  124OSM   H15G13274   1.529   6.466   8.400 -0.5655 -1.6881  1.7728
  124OSM   C16F13275   1.501   6.605   8.559  0.0853  0.3336 -0.0436
  124OSM   H16F13276   1.429   6.673   8.507 -0.8913 -0.5754  0.0982
  124OSM   H16G13277   1.561   6.658   8.635  0.6861 -0.7409  0.2401
  124OSM   C17F13278   1.404   6.514   8.638 -0.4424  0.1059  0.1933
  124OSM   H17F13279   1.350   6.450   8.565  0.2233  0.3582 -0.5369
  124OSM   H17G13280   1.328   6.587   8.673 -1.3956  0.4528 -2.3659
  124OSM   C18F13281   1.454   6.435   8.759 -0.2204 -0.6931 -0.2648
  124OSM   H18F13282   1.534   6.367   8.722 -0.3848 -0.4841 -1.0246
  124OSM   H18G13283   1.372   6.374   8.802 -1.3308  1.3839  0.6996
  124OSM   H18H13284   1.495   6.496   8.841 -0.2509  0.8875 -1.3814
  125OSM      N13285   1.133   2.664   5.840 -0.1212 -0.0858  0.6659
  125OSM    C1513286   1.247   2.762   5.830  0.1977  0.1135  0.0132
  125OSM   H15A13287   1.344   2.720   5.851  1.2035  1.1526 -2.2669
  125OSM   H15B13288   1.238   2.842   5.902  1.3594 -0.7451  1.1714
  125OSM   H15C13289   1.256   2.817   5.738  0.1798  0.1591  0.0385
  125OSM    C1413290   1.006   2.736   5.790  0.0146 -0.3496  0.6451
  125OSM   H14A13291   1.001   2.834   5.833  1.7800  1.3973 -2.6880
  125OSM   H14B13292   0.911   2.686   5.801  0.3128 -1.2522 -0.5598
  125OSM   H14C13293   1.022   2.753   5.684  0.5795 -0.3903  0.7185
  125OSM    C1313294   1.153   2.563   5.733  0.2987 -0.2315 -0.2856
  125OSM   H13A13295   1.244   2.506   5.749  0.6595  0.5805  0.6548
  125OSM   H13B13296   1.152   2.607   5.635  1.0161  1.6213  0.4961
  125OSM   H13C13297   1.079   2.486   5.717  1.4794 -1.3510 -0.6227
  125OSM    C1213298   1.115   2.604   5.973  0.6689 -0.2199  0.4504
  125OSM   H12A13299   1.204   2.550   6.001  0.2660 -0.6208  0.9885
  125OSM   H12B13300   1.032   2.534   5.972  0.9116 -0.5118 -0.8452
  125OSM    C1113301   1.087   2.701   6.097  0.8279  1.2374  0.4071
  125OSM   H11A13302   1.086   2.635   6.186  1.6197  0.3287 -0.2462
  125OSM   H11B13303   0.984   2.740   6.090 -0.3388 -1.8613 -1.5914
  125OSM      P13304   1.311   2.785   6.202  0.3690  0.1046  0.8592
  125OSM    O1313305   1.423   2.724   6.122  0.5908  0.2140  0.0111
  125OSM    O1413306   1.347   2.909   6.273  0.1829 -0.2062  0.0245
  125OSM    O1113307   1.257   2.680   6.308  0.4472  0.5800  0.1762
  125OSM    O1213308   1.179   2.810   6.110 -0.5669 -0.0036 -0.2916
  125OSM    C1S13309   1.198   2.717   6.439 -0.4206  0.2418  0.7000
  125OSM    H1S13310   1.094   2.678   6.436  0.1870 -1.5373  1.6053
  125OSM    H1T13311   1.190   2.827   6.455  0.4850  0.4290 -0.0506
  125OSM     NF13312   1.207   2.726   6.674  0.8293 -0.1197 -0.4933
  125OSM    HNF13313   1.253   2.809   6.704 -1.5308  0.7550  0.8682
  125OSM    C2S13314   1.265   2.657   6.565 -0.1239 -0.5597  0.3020
  125OSM    H2S13315   1.238   2.549   6.566  3.4794 -1.6239 -1.2244
  125OSM    C3S13316   1.417   2.668   6.548  0.0116 -0.8988  0.6518
  125OSM    H3S13317   1.448   2.773   6.534 -1.4030 -0.1572  2.6912
  125OSM     O313318   1.465   2.587   6.443 -0.1624 -0.4475 -0.0285
  125OSM    HO313319   1.386   2.560   6.397 -0.6859  1.4945 -0.3753
  125OSM    C4S13320   1.478   2.620   6.676 -0.2253  0.6592 -0.4411
  125OSM    H4S13321   1.469   2.514   6.703  2.7054  0.1725 -1.1045
  125OSM    C5S13322   1.538   2.690   6.776 -0.4568  0.1297 -0.3821
  125OSM    H5S13323   1.551   2.799   6.761 -1.0909  0.0247 -1.8816
  125OSM    C6S13324   1.596   2.642   6.906 -0.8927  0.1810  0.6694
  125OSM    H6S13325   1.680   2.706   6.940 -1.5703  0.1738  2.4404
  125OSM    H6T13326   1.634   2.541   6.881  0.2939  0.8725 -0.4385
  125OSM    C7S13327   1.495   2.643   7.021  0.5156  0.5851  0.2258
  125OSM    H7S13328   1.422   2.561   7.003  0.5957  0.3754  0.8394
  125OSM    H7T13329   1.445   2.741   7.014  0.9520  0.8081  0.2145
  125OSM    C8S13330   1.567   2.626   7.155  0.9084  0.2336 -0.1863
  125OSM    H8S13331   1.646   2.703   7.169  1.5478 -0.1375 -1.5603
  125OSM    H8T13332   1.626   2.532   7.155 -1.0085 -1.0247  0.0644
  125OSM    C9S13333   1.468   2.629   7.272 -0.1661 -0.9125 -0.1408
  125OSM    H9S13334   1.404   2.546   7.238 -0.7187  0.8063 -3.8083
  125OSM    H9T13335   1.401   2.718   7.264 -1.3278 -1.5391  1.8876
  125OSM   C10S13336   1.530   2.617   7.409  0.5945 -0.3704  0.6218
  125OSM   H10S13337   1.575   2.710   7.450  0.9352 -0.6068  0.7884
  125OSM   H10T13338   1.616   2.547   7.404  0.5904 -0.4207  1.2253
  125OSM   C11S13339   1.431   2.563   7.520 -0.5912 -0.2633 -0.3416
  125OSM   H11S13340   1.428   2.452   7.512  1.3398 -0.3284 -0.5580
  125OSM   H11T13341   1.328   2.600   7.502 -0.5908 -0.8350 -1.6951
  125OSM   C12S13342   1.487   2.592   7.663 -0.2930  0.8576 -0.2473
  125OSM   H12S13343   1.598   2.585   7.660 -0.3148  0.4650 -0.1941
  125OSM   H12T13344   1.449   2.506   7.722 -2.3318 -0.0089 -2.6572
  125OSM   C13S13345   1.464   2.739   7.723  0.5120  0.0771  0.2547
  125OSM   H13S13346   1.353   2.743   7.735  0.3293 -2.2848 -0.1865
  125OSM   H13T13347   1.491   2.819   7.650 -1.5060  0.5071 -0.0842
  125OSM   C14S13348   1.526   2.763   7.865  0.2547 -0.3974  0.2077
  125OSM   H14S13349   1.630   2.732   7.844 -0.1898 -1.9607  0.1558
  125OSM   H14T13350   1.491   2.680   7.929  3.6065 -2.1320 -0.0286
  125OSM   C15S13351   1.522   2.911   7.910  0.0899 -0.0948 -0.3262
  125OSM   H15S13352   1.417   2.945   7.902 -1.2030 -3.7706 -0.9453
  125OSM   H15T13353   1.585   2.973   7.843 -0.7119  1.4619  0.3086
  125OSM   C16S13354   1.576   2.936   8.052  0.7455  0.3956 -0.0702
  125OSM   H16S13355   1.654   2.863   8.080  1.5042  0.8840 -0.8615
  125OSM   H16T13356   1.504   2.898   8.127  3.3669 -0.5283  2.1314
  125OSM   C17S13357   1.608   3.084   8.078  0.0716  0.2497 -0.4233
  125OSM   H17S13358   1.516   3.145   8.078  1.6382  2.7855 -0.7291
  125OSM   H17T13359   1.663   3.116   7.987  0.0110 -0.2070 -0.6201
  125OSM   C18S13360   1.691   3.117   8.196  0.3021 -0.3221  0.4069
  125OSM   H18S13361   1.726   3.223   8.194 -2.5908  0.7466  1.0943
  125OSM   H18T13362   1.778   3.049   8.189 -1.6913 -2.8186 -2.3936
  125OSM   H18U13363   1.644   3.101   8.296 -0.2245  1.9151  0.5819
  125OSM    C1F13364   1.081   2.694   6.706 -0.0188  0.0420  0.3672
  125OSM     OF13365   1.023   2.603   6.648 -0.1980  0.0888 -0.2853
  125OSM    C2F13366   1.005   2.793   6.789  0.6024  0.0704 -0.6267
  125OSM    H2F13367   0.897   2.767   6.779  0.5304  0.9830 -2.7786
  125OSM    H2G13368   1.018   2.898   6.752  1.8398  0.2778  0.3447
  125OSM    C3F13369   1.066   2.791   6.931  0.2535 -0.7243 -0.1768
  125OSM    H3F13370   1.163   2.843   6.944 -1.1286  1.2714  3.3520
  125OSM    H3G13371   1.064   2.686   6.968  2.2494 -0.7153  0.0466
  125OSM    C4F13372   0.983   2.882   7.025 -0.5317 -0.4876  0.7627
  125OSM    H4F13373   0.880   2.840   7.033 -0.3329 -0.8021  1.9367
  125OSM    H4G13374   0.981   2.982   6.977  1.2658  0.0152  1.6556
  125OSM    C5F13375   1.040   2.878   7.173 -0.2782 -0.3822  0.5562
  125OSM    H5F13376   1.131   2.940   7.183 -0.1793 -0.5751  0.8613
  125OSM    H5G13377   1.069   2.771   7.181  0.8992 -0.1027  0.2105
  125OSM    C6F13378   0.945   2.913   7.286  1.2653  0.2771 -1.0537
  125OSM    H6F13379   1.007   2.907   7.377  0.1925  0.9019 -0.2540
  125OSM    H6G13380   0.865   2.837   7.298  1.6002 -0.3102 -2.3416
  125OSM    C7F13381   0.887   3.057   7.273  0.4011  0.4228  0.7077
  125OSM    H7F13382   0.818   3.047   7.186  1.5912  0.1123 -0.2277
  125OSM    H7G13383   0.958   3.132   7.231 -0.4700  0.9429  0.1161
  125OSM    C8F13384   0.830   3.120   7.397 -0.3302 -0.4425 -0.2608
  125OSM    H8F13385   0.807   3.225   7.369 -2.4284 -0.9351 -0.5854
  125OSM    H8G13386   0.914   3.122   7.469  0.4375  2.0850 -1.1239
  125OSM    C9F13387   0.701   3.055   7.444 -0.1820 -0.6544 -0.7897
  125OSM    H9F13388   0.658   2.982   7.374  0.4455  0.6050 -2.5745
  125OSM   C10F13389   0.636   3.082   7.566 -0.1941  0.3664  0.1728
  125OSM   H10F13390   0.536   3.036   7.574 -0.7998  1.4870 -0.7369
  125OSM   C11F13391   0.678   3.177   7.675  0.1534 -0.6021  0.2331
  125OSM   H11F13392   0.596   3.252   7.682  0.7876  0.3268 -1.6619
  125OSM   H11G13393   0.767   3.233   7.637 -0.5269  0.8270  0.6583
  125OSM   C12F13394   0.710   3.114   7.814  0.1275 -0.3487  0.2531
  125OSM   H12F13395   0.784   3.032   7.800  0.7062  0.0556  0.9124
  125OSM   H12G13396   0.611   3.074   7.846 -0.3892 -1.0712 -2.0345
  125OSM   C13F13397   0.773   3.224   7.902 -0.2698  0.4027 -0.6172
  125OSM   H13F13398   0.871   3.259   7.866 -0.2643  3.3882  1.8348
  125OSM   H13G13399   0.804   3.174   7.997  1.4955 -2.0900 -2.4036
  125OSM   C14F13400   0.688   3.344   7.938  0.4256 -0.6151  0.2060
  125OSM   H14F13401   0.669   3.420   7.859  0.4420  1.3690  1.9962
  125OSM   H14G13402   0.741   3.398   8.020  0.1148 -0.8910  0.5894
  125OSM   C15F13403   0.554   3.303   7.999  0.1565 -0.5200 -0.0960
  125OSM   H15F13404   0.496   3.235   7.934  0.3981 -1.3420  0.5266
  125OSM   H15G13405   0.490   3.394   8.001 -0.5859 -1.0317  1.8045
  125OSM   C16F13406   0.564   3.240   8.141  0.1675  0.3854  0.7197
  125OSM   H16F13407   0.637   3.301   8.199  1.1770 -1.5126  1.5459
  125OSM   H16G13408   0.612   3.140   8.150  1.0054  0.8582  1.6102
  125OSM   C17F13409   0.427   3.245   8.215  0.4115  0.1564  0.0179
  125OSM   H17F13410   0.389   3.349   8.219 -1.0817 -0.3984  1.2351
  125OSM   H17G13411   0.443   3.215   8.321  0.3223  0.5899  0.1544
  125OSM   C18F13412   0.323   3.158   8.135  0.2064 -0.2936  0.2271
  125OSM   H18F13413   0.358   3.054   8.119 -0.1319 -0.3938  0.1373
  125OSM   H18G13414   0.294   3.216   8.045 -0.4481 -1.4206 -0.2958
  125OSM   H18H13415   0.235   3.143   8.201 -0.3171 -1.2054 -0.6588
  126OSM      N13416   5.752   2.581   6.200  1.2623  0.3159  0.1014
  126OSM    C1513417   5.649   2.699   6.216 -0.2239  0.9402  1.4819
  126OSM   H15A13418   5.649   2.752   6.122 -0.9885 -1.6359 -0.0498
  126OSM   H15B13419   5.679   2.771   6.291  3.3956  1.5320 -0.2795
  126OSM   H15C13420   5.550   2.660   6.235  0.3114 -0.5639  1.2926
  126OSM    C1413421   5.700   2.509   6.070  0.0835 -0.2517  0.2806
  126OSM   H14A13422   5.613   2.447   6.088 -0.1090 -0.8940 -2.3612
  126OSM   H14B13423   5.773   2.442   6.027 -1.5478 -1.7613 -0.2811
  126OSM   H14C13424   5.673   2.583   5.996  0.1964 -0.6570 -0.1731
  126OSM    C1313425   5.891   2.635   6.173 -0.4900  0.8024  0.4617
  126OSM   H13A13426   5.913   2.706   6.252 -0.8068  2.3940 -0.8365
  126OSM   H13B13427   5.908   2.679   6.076 -0.2551 -0.2757 -0.0014
  126OSM   H13C13428   5.961   2.553   6.173 -0.7380  0.5890  0.6723
  126OSM    C1213429   5.749   2.498   6.318 -0.5583  0.8198  0.3391
  126OSM   H12A13430   5.650   2.480   6.358  0.5208 -2.3055  1.9458
  126OSM   H12B13431   5.805   2.553   6.393  2.8452 -1.9119  0.0657
  126OSM    C1113432   5.811   2.357   6.291  0.2825  0.4215  0.2794
  126OSM   H11A13433   5.905   2.357   6.232  1.3102  1.2454  1.8608
  126OSM   H11B13434   5.746   2.299   6.222  0.9011  0.2952 -0.2007
  126OSM      P13435   5.959   2.344   6.510  0.0489  0.1125  0.1164
  126OSM    O1313436   6.026   2.222   6.562 -0.5281 -0.8348  0.0215
  126OSM    O1413437   6.039   2.452   6.450  0.4549  0.3325  0.9489
  126OSM    O1113438   5.883   2.408   6.626 -0.4051 -0.0029  0.2573
  126OSM    O1213439   5.832   2.299   6.421  0.3906 -0.1641 -0.2376
  126OSM    C1S13440   5.951   2.443   6.747 -0.3248  0.4413 -0.1284
  126OSM    H1S13441   5.981   2.550   6.735  2.3126  0.0626  2.0755
  126OSM    H1T13442   6.041   2.380   6.767 -0.8119  0.3767  2.0400
  126OSM     NF13443   5.909   2.496   6.993  0.6332  0.0193 -0.1164
  126OSM    HNF13444   5.944   2.443   7.069 -0.7408 -0.1191  0.4548
  126OSM    C2S13445   5.864   2.417   6.875  0.5030 -0.8474  0.1081
  126OSM    H2S13446   5.764   2.465   6.865  1.6043  1.9954  1.5178
  126OSM    C3S13447   5.854   2.263   6.892  0.3412 -0.3299 -0.2400
  126OSM    H3S13448   5.958   2.222   6.892  0.0884 -1.0851  1.6782
  126OSM     O313449   5.793   2.195   6.781  0.1308  0.4010 -0.2425
  126OSM    HO313450   5.795   2.264   6.715 -1.6687  0.2845 -0.4830
  126OSM    C4S13451   5.784   2.222   7.023 -0.1459  0.1252  0.3714
  126OSM    H4S13452   5.849   2.221   7.112 -0.9240 -0.4883  0.9444
  126OSM    C5S13453   5.659   2.192   7.048  0.3859  0.3132  0.1144
  126OSM    H5S13454   5.585   2.178   6.968 -0.5467 -0.3662  1.0703
  126OSM    C6S13455   5.601   2.145   7.176  0.1556 -0.3131  0.2288
  126OSM    H6S13456   5.584   2.037   7.154  3.2143 -0.7005 -0.7149
  126OSM    H6T13457   5.497   2.181   7.185 -0.2992 -0.9301 -1.8976
  126OSM    C7S13458   5.682   2.185   7.302 -0.1758  0.1471 -0.7346
  126OSM    H7S13459   5.728   2.286   7.290 -1.4982  0.8385 -0.1858
  126OSM    H7T13460   5.763   2.112   7.320  0.9123  1.7575  1.2841
  126OSM    C8S13461   5.596   2.178   7.430 -0.2597  0.1461 -0.6302
  126OSM    H8S13462   5.544   2.080   7.442  2.7956 -1.6175 -0.6025
  126OSM    H8T13463   5.515   2.252   7.445  0.5579  0.5312  2.9316
  126OSM    C9S13464   5.686   2.181   7.558 -0.7701 -0.0071  0.3851
  126OSM    H9S13465   5.719   2.287   7.560 -1.0345  0.0657  0.9777
  126OSM    H9T13466   5.781   2.125   7.545 -0.7025 -0.8320  3.5884
  126OSM   C10S13467   5.630   2.131   7.693  0.5367  0.6645 -0.0472
  126OSM   H10S13468   5.592   2.028   7.681  1.4926  0.0489  1.8329
  126OSM   H10T13469   5.536   2.183   7.721 -0.3600 -0.8379 -0.1696
  126OSM   C11S13470   5.737   2.138   7.806 -0.3811  0.2868  0.1887
  126OSM   H11S13471   5.792   2.234   7.803  1.5949 -0.7878  0.1461
  126OSM   H11T13472   5.807   2.053   7.793  0.9772  1.6831 -2.3539
  126OSM   C12S13473   5.667   2.121   7.942  0.6035 -0.1452  0.2415
  126OSM   H12S13474   5.614   2.024   7.930  0.4553  0.1791 -2.3279
  126OSM   H12T13475   5.595   2.204   7.959  2.1321  1.3449 -0.2839
  126OSM   C13S13476   5.769   2.119   8.055 -0.0756 -0.3983 -0.0118
  126OSM   H13S13477   5.857   2.181   8.027  2.4457 -2.9617  1.6671
  126OSM   H13T13478   5.796   2.013   8.075 -0.5515 -0.3244  1.0686
  126OSM   C14S13479   5.712   2.175   8.184  0.3637  0.2051 -0.0799
  126OSM   H14S13480   5.605   2.152   8.202 -0.2302  2.6294 -0.1361
  126OSM   H14T13481   5.712   2.286   8.181 -2.6002  0.2782  0.0143
  126OSM   C15S13482   5.800   2.140   8.306  0.1852  0.4115  0.3239
  126OSM   H15S13483   5.885   2.209   8.288  0.3447 -0.1568 -1.2458
  126OSM   H15T13484   5.842   2.038   8.293  0.8620  0.6750  0.4042
  126OSM   C16S13485   5.734   2.151   8.446 -0.5464  0.3969 -0.1921
  126OSM   H16S13486   5.642   2.090   8.460 -0.0841  0.1258  1.9825
  126OSM   H16T13487   5.711   2.259   8.461  0.1046  0.5098  0.0607
  126OSM   C17S13488   5.837   2.108   8.554 -0.4529 -0.4030  0.0236
  126OSM   H17S13489   5.932   2.152   8.517 -1.0772  1.4659  0.5446
  126OSM   H17T13490   5.843   1.998   8.568  0.7233 -0.3673 -0.1672
  126OSM   C18S13491   5.800   2.165   8.691  0.7594  0.2165 -0.0801
  126OSM   H18S13492   5.774   2.271   8.669 -3.6695 -0.5783  0.5531
  126OSM   H18T13493   5.882   2.140   8.762  1.1661 -1.6752 -1.1295
  126OSM   H18U13494   5.705   2.116   8.720 -0.2510  1.1475 -1.6468
  126OSM    C1F13495   5.901   2.628   6.990 -0.4383  0.3546 -0.3411
  126OSM     OF13496   5.872   2.691   6.891 -0.0765 -0.2380 -0.0361
  126OSM    C2F13497   5.962   2.707   7.110  0.4188 -0.0133 -0.2656
  126OSM    H2F13498   6.060   2.746   7.076  0.2869 -1.2722 -2.3014
  126OSM    H2G13499   5.979   2.633   7.192  0.0506  1.2613  0.9987
  126OSM    C3F13500   5.877   2.817   7.171 -0.1230  0.2692  0.1795
  126OSM    H3F13501   5.785   2.771   7.213 -0.9030  0.2216 -1.5308
  126OSM    H3G13502   5.851   2.890   7.091 -1.0296 -0.7144 -0.4513
  126OSM    C4F13503   5.952   2.897   7.287 -0.4148  0.3066 -0.0951
  126OSM    H4F13504   6.058   2.907   7.257 -0.6759 -0.1071 -1.2174
  126OSM    H4G13505   5.946   2.828   7.375 -0.4229  0.0617 -0.2852
  126OSM    C5F13506   5.893   3.035   7.318 -0.9190 -0.2462 -0.7328
  126OSM    H5F13507   5.785   3.015   7.334 -1.0206  0.9625  0.2405
  126OSM    H5G13508   5.906   3.100   7.229  0.6424 -0.2083 -0.5121
  126OSM    C6F13509   5.950   3.105   7.440  0.1361  0.4558 -0.3945
  126OSM    H6F13510   5.884   3.194   7.451 -1.8325 -1.0138  0.2577
  126OSM    H6G13511   6.057   3.125   7.419  0.2529 -0.6099 -0.8678
  126OSM    C7F13512   5.926   3.020   7.567 -0.1895 -0.1836 -0.8818
  126OSM    H7F13513   6.000   2.937   7.556 -1.4465 -1.4501 -0.1939
  126OSM    H7G13514   5.827   2.970   7.566 -0.2887  0.0218 -1.6518
  126OSM    C8F13515   5.936   3.104   7.695 -0.1562 -0.1470 -0.3415
  126OSM    H8F13516   5.874   3.196   7.691 -0.1928 -0.1667 -0.2117
  126OSM    H8G13517   6.041   3.142   7.700  0.1931 -1.0343 -0.7180
  126OSM    C9F13518   5.914   3.025   7.821  0.4594  1.0427  0.0138
  126OSM    H9F13519   6.002   2.962   7.836 -0.3886 -1.1676 -3.3907
  126OSM   C10F13520   5.805   3.031   7.903  0.4093 -0.1996  0.9007
  126OSM   H10F13521   5.795   2.944   7.969 -0.3308  1.1489  2.6405
  126OSM   C11F13522   5.681   3.115   7.889 -0.6069 -0.3800 -0.2607
  126OSM   H11F13523   5.584   3.066   7.909 -2.0097  1.7522 -1.4346
  126OSM   H11G13524   5.662   3.143   7.783 -0.2222  0.6229 -0.0728
  126OSM   C12F13525   5.700   3.245   7.966  0.0690 -0.3304 -0.0416
  126OSM   H12F13526   5.621   3.308   7.921  0.7001  0.0183 -0.6864
  126OSM   H12G13527   5.800   3.286   7.939  0.5627 -2.0615 -0.9382
  126OSM   C13F13528   5.670   3.231   8.115 -0.5528  0.0040  0.6064
  126OSM   H13F13529   5.698   3.131   8.156  0.6518 -1.2213 -2.8774
  126OSM   H13G13530   5.559   3.219   8.117 -0.3905 -1.7289  0.6102
  126OSM   C14F13531   5.700   3.355   8.200  0.5490  0.2107 -0.0404
  126OSM   H14F13532   5.810   3.361   8.216  0.1875  2.5180  2.1173
  126OSM   H14G13533   5.641   3.353   8.294 -1.8836  1.3154 -1.4554
  126OSM   C15F13534   5.681   3.498   8.140 -0.1795  0.7167  0.9941
  126OSM   H15F13535   5.584   3.497   8.087  0.6742 -3.8389 -1.0001
  126OSM   H15G13536   5.745   3.510   8.050  0.3561 -2.2449  0.8723
  126OSM   C16F13537   5.699   3.612   8.242 -0.4301 -0.3898  0.4008
  126OSM   H16F13538   5.638   3.601   8.334 -1.3993  2.3960  0.2157
  126OSM   H16G13539   5.665   3.700   8.182 -2.7631  0.2800  2.5415
  126OSM   C17F13540   5.827   3.640   8.306  0.1262 -1.1392 -0.1686
  126OSM   H17F13541   5.909   3.652   8.232  0.6778  0.7868  0.6753
  126OSM   H17G13542   5.861   3.548   8.359  1.6991 -0.2570  0.4359
  126OSM   C18F13543   5.821   3.758   8.409  0.1056  0.4618  0.0662
  126OSM   H18F13544   5.919   3.762   8.461  0.3244  0.2014 -0.3231
  126OSM   H18G13545   5.737   3.743   8.480  0.1359 -0.0361  0.0020
  126OSM   H18H13546   5.797   3.854   8.359 -0.4090  0.4944  0.3694
  127OSM      N13547   6.720   1.008   6.597 -0.3287 -0.0003 -0.0897
  127OSM    C1513548   6.676   1.139   6.661  0.3211  1.2106 -0.0653
  127OSM   H15A13549   6.749   1.217   6.644  1.0899  0.1284 -2.0755
  127OSM   H15B13550   6.656   1.114   6.764  0.9295 -3.0395 -0.8007
  127OSM   H15C13551   6.582   1.164   6.614  0.3537 -0.0839 -0.8593
  127OSM    C1413552   6.863   0.972   6.646  0.2491  0.2783 -0.0821
  127OSM   H14A13553   6.877   0.958   6.753  0.2238  1.0816  0.0340
  127OSM   H14B13554   6.939   1.040   6.611  0.0714  1.6366  1.9830
  127OSM   H14C13555   6.887   0.876   6.602 -1.8726 -0.6134  0.5411
  127OSM    C1313556   6.620   0.908   6.634  0.6710 -0.1857 -0.8421
  127OSM   H13A13557   6.625   0.896   6.741  0.3467 -0.9594 -0.9099
  127OSM   H13B13558   6.629   0.813   6.584 -3.3936 -0.7297 -0.8924
  127OSM   H13C13559   6.522   0.952   6.616  0.8281  0.5500  0.0326
  127OSM    C1213560   6.735   1.015   6.449  0.1547 -0.9163  0.5395
  127OSM   H12A13561   6.764   0.925   6.398  0.7258 -0.1680 -0.5199
  127OSM   H12B13562   6.826   1.070   6.426  0.2726 -1.4576 -0.3316
  127OSM    C1113563   6.622   1.087   6.373 -0.0895 -0.7457  0.0048
  127OSM   H11A13564   6.652   1.096   6.266 -2.2836  2.0313 -0.5070
  127OSM   H11B13565   6.608   1.185   6.422  0.2346 -1.2895  1.2418
  127OSM      P13566   6.373   1.100   6.322 -0.2939 -0.0540  0.4547
  127OSM    O1313567   6.408   1.240   6.301 -0.2724 -0.5970  0.6168
  127OSM    O1413568   6.334   1.025   6.198 -0.4883  0.0284  0.3029
  127OSM    O1113569   6.253   1.090   6.429 -0.3248  0.1761 -0.1008
  127OSM    O1213570   6.497   1.020   6.384  0.8092 -0.4741  0.1596
  127OSM    C1S13571   6.233   0.976   6.514  0.0796 -0.2149  0.1901
  127OSM    H1S13572   6.329   0.922   6.532  2.1869  2.6790 -1.4261
  127OSM    H1T13573   6.167   0.898   6.472  1.6204 -0.5620 -1.7459
  127OSM     NF13574   6.197   0.952   6.758  0.1247  0.5301  0.0444
  127OSM    HNF13575   6.136   0.875   6.775 -3.3210  3.2054  0.9970
  127OSM    C2S13576   6.168   1.032   6.640 -0.8527  0.0108  0.2682
  127OSM    H2S13577   6.204   1.135   6.660  0.8565 -0.6448  0.7005
  127OSM    C3S13578   6.015   1.045   6.615  0.2696  0.1981 -0.5974
  127OSM    H3S13579   5.973   0.945   6.590 -3.1345  0.7337  2.2663
  127OSM     O313580   5.990   1.121   6.500  0.3378  0.3040 -0.2315
  127OSM    HO313581   6.077   1.153   6.475  0.3272  1.9643  1.6270
  127OSM    C4S13582   5.941   1.096   6.738 -0.3248 -0.0827 -0.0054
  127OSM    H4S13583   5.942   1.205   6.747  2.0920  0.2365 -2.5563
  127OSM    C5S13584   5.860   1.020   6.814  0.0152 -0.7958 -0.9270
  127OSM    H5S13585   5.852   0.913   6.790  2.7257 -1.5370  0.9585
  127OSM    C6S13586   5.799   1.071   6.945  0.4766  0.2076 -0.0907
  127OSM    H6S13587   5.692   1.046   6.956  0.6029 -0.7824 -1.0252
  127OSM    H6T13588   5.798   1.181   6.964 -1.3517 -0.2347  3.1256
  127OSM    C7S13589   5.873   1.012   7.067  0.3666 -1.1217  0.7229
  127OSM    H7S13590   5.820   1.051   7.157  0.2592 -1.8722  0.9908
  127OSM    H7T13591   5.977   1.053   7.061  0.7610 -2.2424 -0.3757
  127OSM    C8S13592   5.859   0.860   7.074  0.1754  0.3731 -0.1723
  127OSM    H8S13593   5.948   0.808   7.031  1.9302  0.9535  2.5021
  127OSM    H8T13594   5.764   0.842   7.020 -0.7886  1.3115  1.1530
  127OSM    C9S13595   5.837   0.808   7.211 -0.5098 -0.4133  0.2180
  127OSM    H9S13596   5.818   0.700   7.227  0.1694 -0.6153 -0.2893
  127OSM    H9T13597   5.748   0.866   7.242 -0.7110 -0.5442 -0.1095
  127OSM   C10S13598   5.945   0.850   7.304 -0.6054 -0.5218  0.0321
  127OSM   H10S13599   5.990   0.950   7.291 -0.2852 -0.6311  0.2828
  127OSM   H10T13600   6.032   0.784   7.284  0.8069  1.3509 -0.2289
  127OSM   C11S13601   5.896   0.850   7.448  0.5902 -0.5782  0.0431
  127OSM   H11S13602   5.843   0.755   7.472  2.9365 -2.3438 -1.3104
  127OSM   H11T13603   5.815   0.925   7.454 -0.2341 -1.5384  3.2938
  127OSM   C12S13604   5.996   0.885   7.554 -0.3013 -0.2679 -0.2791
  127OSM   H12S13605   6.069   0.962   7.521 -0.6357 -0.7214 -2.2559
  127OSM   H12T13606   6.057   0.793   7.566  0.8155  0.4441 -0.3742
  127OSM   C13S13607   5.939   0.905   7.695  0.1347  0.1697 -0.4528
  127OSM   H13S13608   5.873   0.819   7.717  1.3167 -0.7191 -0.2394
  127OSM   H13T13609   5.875   0.996   7.697  0.8047  0.6632 -0.9322
  127OSM   C14S13610   6.046   0.916   7.805 -0.0264  0.2362 -0.3913
  127OSM   H14S13611   6.112   1.003   7.785  1.7438 -1.0070 -0.1830
  127OSM   H14T13612   6.117   0.832   7.795 -0.9696 -0.5509 -0.7100
  127OSM   C15S13613   5.993   0.920   7.949  0.0788 -0.2938  0.4798
  127OSM   H15S13614   5.916   0.840   7.952  0.5023 -0.6941  0.8673
  127OSM   H15T13615   5.943   1.013   7.980  1.4259  0.4167  0.6088
  127OSM   C16S13616   6.097   0.894   8.058  0.3035 -1.6095 -0.0772
  127OSM   H16S13617   6.181   0.966   8.048 -1.4455  0.7654  1.1117
  127OSM   H16T13618   6.153   0.800   8.043  0.0399 -1.7442 -0.2356
  127OSM   C17S13619   6.042   0.893   8.199  0.7495 -0.1687  0.0626
  127OSM   H17S13620   5.958   0.822   8.217  2.3187 -1.7856  1.4168
  127OSM   H17T13621   5.993   0.991   8.218  1.0373 -0.1179  0.5734
  127OSM   C18S13622   6.160   0.881   8.300 -0.4368  1.0809 -0.2165
  127OSM   H18S13623   6.107   0.859   8.396 -0.1647  1.0956 -0.0627
  127OSM   H18T13624   6.210   0.980   8.303  1.6957  0.0558  2.9911
  127OSM   H18U13625   6.225   0.793   8.281 -1.8540 -0.1709  0.4206
  127OSM    C1F13626   6.315   0.952   6.827  0.3709 -1.0998  0.0636
  127OSM     OF13627   6.399   1.035   6.799  0.4873 -0.1343 -0.3031
  127OSM    C2F13628   6.338   0.852   6.930  0.3226  0.0223  0.1220
  127OSM    H2F13629   6.404   0.774   6.886  0.4978 -0.2311  0.8203
  127OSM    H2G13630   6.235   0.813   6.947 -0.4366  1.9204  0.1484
  127OSM    C3F13631   6.392   0.915   7.063 -0.0159  0.2297  0.2267
  127OSM    H3F13632   6.332   1.004   7.092  1.0637  0.3493  2.3249
  127OSM    H3G13633   6.499   0.934   7.039 -0.7225  0.5352 -3.0485
  127OSM    C4F13634   6.378   0.812   7.187 -0.0541 -1.0639  0.5206
  127OSM    H4F13635   6.448   0.727   7.172  0.3723 -0.5420 -0.5671
  127OSM    H4G13636   6.277   0.766   7.197 -0.8224  0.1217 -1.3149
  127OSM    C5F13637   6.409   0.872   7.323  0.9297 -0.0262 -0.8060
  127OSM    H5F13638   6.336   0.954   7.343  0.4454 -0.5123 -0.5359
  127OSM    H5G13639   6.509   0.919   7.331  0.8285  0.0881 -0.0618
  127OSM    C6F13640   6.400   0.779   7.439 -0.0186  0.4302  0.2178
  127OSM    H6F13641   6.476   0.699   7.432 -0.3075  0.2654 -1.2867
  127OSM    H6G13642   6.300   0.731   7.440  0.6790 -1.1271  1.8005
  127OSM    C7F13643   6.409   0.854   7.577 -0.5234  0.7422 -0.0915
  127OSM    H7F13644   6.337   0.938   7.582 -1.7397 -0.2905  0.4352
  127OSM    H7G13645   6.512   0.893   7.564  0.7310 -2.4857 -0.9524
  127OSM    C8F13646   6.400   0.755   7.695  0.0551 -0.2914  0.0554
  127OSM    H8F13647   6.321   0.680   7.670 -0.2237 -0.2781  0.8789
  127OSM    H8G13648   6.363   0.805   7.787  0.7022 -1.2106  0.8378
  127OSM    C9F13649   6.539   0.695   7.733  0.2603  0.0175  0.3086
  127OSM    H9F13650   6.584   0.637   7.652 -1.2551  0.0595 -0.5930
  127OSM   C10F13651   6.609   0.725   7.845 -0.0503  0.8917 -0.3198
  127OSM   H10F13652   6.714   0.691   7.849 -0.1797  0.4649 -0.4510
  127OSM   C11F13653   6.583   0.815   7.956  0.0808 -0.8799 -0.3315
  127OSM   H11F13654   6.592   0.769   8.056  1.2140  0.4415  0.2091
  127OSM   H11G13655   6.477   0.848   7.952 -0.4364 -2.0784  1.8360
  127OSM   C12F13656   6.672   0.952   7.970  0.2308  0.2487  0.2316
  127OSM   H12F13657   6.633   1.021   8.048  0.6359  1.0639 -0.2853
  127OSM   H12G13658   6.670   0.996   7.868  0.4566  2.1050  0.9881
  127OSM   C13F13659   6.818   0.918   7.998 -0.3569  0.3330  0.2980
  127OSM   H13F13660   6.885   1.006   7.992  2.4224 -1.5447  1.6088
  127OSM   H13G13661   6.856   0.844   7.923 -1.2577  1.3962 -1.2635
  127OSM   C14F13662   6.840   0.874   8.145  0.5107  0.6714 -0.5349
  127OSM   H14F13663   6.807   0.768   8.147  1.8822  0.2321  0.8529
  127OSM   H14G13664   6.765   0.935   8.200  0.1490 -0.6834  0.5074
  127OSM   C15F13665   6.982   0.904   8.196 -0.3799 -0.2763 -0.2419
  127OSM   H15F13666   6.997   1.014   8.193 -1.1315  0.1013  3.8891
  127OSM   H15G13667   7.058   0.854   8.133 -1.3801  0.1169 -1.8431
  127OSM   C16F13668   6.995   0.864   8.349 -0.2422 -0.6193 -0.0166
  127OSM   H16F13669   6.947   0.766   8.369 -0.5208 -0.3577  0.6604
  127OSM   H16G13670   6.945   0.939   8.414 -1.2604 -2.3071  1.2294
  127OSM   C17F13671   7.140   0.866   8.398  0.0150 -0.2414  0.0363
  127OSM   H17F13672   7.187   0.771   8.364 -2.3890 -1.5029 -0.0075
  127OSM   H17G13673   7.151   0.853   8.508  2.4952  0.1259 -0.1316
  127OSM   C18F13674   7.220   0.984   8.355 -0.3817  0.0737 -0.3252
  127OSM   H18F13675   7.181   1.084   8.381 -0.1399  0.0704  0.0551
  127OSM   H18G13676   7.209   1.002   8.246 -0.3259  0.4619 -0.2690
  127OSM   H18H13677   7.328   0.980   8.382 -1.3317 -1.4496  4.0232
  128OSM      N13678   2.071   1.782   6.501 -0.0171 -0.3348  0.4503
  128OSM    C1513679   2.114   1.887   6.398 -0.4129 -0.2783 -0.1552
  128OSM   H15A13680   2.184   1.958   6.439 -0.7529  0.2478 -0.4602
  128OSM   H15B13681   2.026   1.940   6.365 -0.2111  0.2736  0.1811
  128OSM   H15C13682   2.143   1.839   6.305  1.2582 -0.4351  0.4200
  128OSM    C1413683   2.070   1.843   6.638  0.3908  0.0580 -0.5150
  128OSM   H14A13684   2.159   1.894   6.670 -0.8354  0.9055  1.8585
  128OSM   H14B13685   2.043   1.773   6.717  1.1439  2.2842  1.8547
  128OSM   H14C13686   1.996   1.921   6.646  1.2941  0.9365 -0.5489
  128OSM    C1313687   1.922   1.743   6.475 -0.2135  0.4905  0.0419
  128OSM   H13A13688   1.857   1.829   6.479 -1.4780 -0.3617 -1.2341
  128OSM   H13B13689   1.891   1.667   6.545 -0.0564  1.8687  1.6775
  128OSM   H13C13690   1.907   1.709   6.373  0.2082 -0.8802  0.4141
  128OSM    C1213691   2.152   1.657   6.482  0.5669  0.1819 -0.6406
  128OSM   H12A13692   2.138   1.599   6.573 -1.1422  0.3875 -0.7313
  128OSM   H12B13693   2.258   1.678   6.485  0.7977 -0.9931  0.4914
  128OSM    C1113694   2.136   1.559   6.358 -0.0254 -0.0778  0.3166
  128OSM   H11A13695   2.029   1.529   6.368 -0.7915  2.0219 -0.9719
  128OSM   H11B13696   2.199   1.467   6.364  0.7471  0.2712 -1.7310
  128OSM      P13697   2.311   1.641   6.189 -0.1214  0.2049  0.0055
  128OSM    O1313698   2.343   1.518   6.116 -0.9892 -0.4625 -0.1145
  128OSM    O1413699   2.319   1.768   6.111 -0.2516 -0.7141 -0.0992
  128OSM    O1113700   2.392   1.649   6.322 -0.3899 -0.1369 -0.0047
  128OSM    O1213701   2.158   1.627   6.234 -0.3393  0.4863  0.1638
  128OSM    C1S13702   2.535   1.630   6.344 -0.2123 -0.0941  0.4020
  128OSM    H1S13703   2.599   1.695   6.280  0.4184 -0.3242  0.7794
  128OSM    H1T13704   2.578   1.532   6.313 -0.8572 -0.0187 -0.8097
  128OSM     NF13705   2.711   1.701   6.498 -0.0557 -0.2801 -0.5163
  128OSM    HNF13706   2.770   1.623   6.519 -0.8976 -0.8440 -0.1451
  128OSM    C2S13707   2.567   1.666   6.491  0.2019  0.9652  0.3510
  128OSM    H2S13708   2.514   1.755   6.532 -0.3958  0.3810  0.8486
  128OSM    C3S13709   2.530   1.543   6.581  0.0959 -0.7218 -0.0549
  128OSM    H3S13710   2.596   1.460   6.551 -0.8020 -1.3865 -0.2473
  128OSM     O313711   2.391   1.499   6.558  0.0932 -0.0481  0.0549
  128OSM    HO313712   2.374   1.545   6.475  1.7748 -0.8322 -0.7875
  128OSM    C4S13713   2.533   1.576   6.729  0.5096  0.8577 -0.2611
  128OSM    H4S13714   2.453   1.631   6.780 -1.2868 -2.0777  0.3090
  128OSM    C5S13715   2.620   1.509   6.810 -0.1385  0.0547 -0.6829
  128OSM    H5S13716   2.691   1.439   6.764  0.3637  0.8656 -1.1540
  128OSM    C6S13717   2.641   1.515   6.961  0.1773  0.5471 -0.1523
  128OSM    H6S13718   2.735   1.565   6.993  0.4092  1.3029 -1.9183
  128OSM    H6T13719   2.640   1.413   7.004 -0.4867 -0.3236 -2.1621
  128OSM    C7S13720   2.522   1.593   7.027  0.7565  0.4366 -0.5642
  128OSM    H7S13721   2.424   1.556   6.991  1.2376 -0.1073 -1.3523
  128OSM    H7T13722   2.528   1.701   7.004 -1.1336  0.9442  1.0948
  128OSM    C8S13723   2.534   1.582   7.186 -1.1854 -0.6415 -0.1326
  128OSM    H8S13724   2.618   1.643   7.226 -0.6259 -0.7859 -1.0651
  128OSM    H8T13725   2.555   1.480   7.226  0.7204 -0.5207 -0.7167
  128OSM    C9S13726   2.404   1.637   7.239 -0.3333 -0.1541 -0.7276
  128OSM    H9S13727   2.330   1.599   7.165 -0.1145  0.0480 -1.0538
  128OSM    H9T13728   2.381   1.744   7.221 -1.4308  0.1837  2.1831
  128OSM   C10S13729   2.372   1.618   7.389 -0.3276 -0.2963  0.2142
  128OSM   H10S13730   2.317   1.522   7.401 -0.5657 -0.2872 -0.6960
  128OSM   H10T13731   2.309   1.701   7.427 -0.2326 -0.5181  0.8571
  128OSM   C11S13732   2.495   1.610   7.491  0.1683  0.0172  0.2538
  128OSM   H11S13733   2.549   1.707   7.484  0.0458 -0.0056 -1.2062
  128OSM   H11T13734   2.571   1.535   7.459 -0.3358 -0.5909  0.4526
  128OSM   C12S13735   2.448   1.589   7.633 -0.0422  0.2279 -0.2204
  128OSM   H12S13736   2.393   1.494   7.649  1.0627 -0.1809  1.4692
  128OSM   H12T13737   2.379   1.673   7.657 -0.5707 -0.0377 -0.7794
  128OSM   C13S13738   2.564   1.593   7.736  0.3253 -0.0014  0.4984
  128OSM   H13S13739   2.653   1.631   7.681  0.0242  1.4577  0.9753
  128OSM   H13T13740   2.592   1.492   7.772 -0.1099 -0.0101  0.8309
  128OSM   C14S13741   2.538   1.681   7.864 -0.0178 -0.3242  0.3632
  128OSM   H14S13742   2.508   1.782   7.829  0.0336 -0.1347  0.8562
  128OSM   H14T13743   2.631   1.695   7.923 -1.3849  1.9477  2.1711
  128OSM   C15S13744   2.443   1.619   7.963 -0.4069  0.2871  0.1072
  128OSM   H15S13745   2.466   1.513   7.987  0.7954 -0.6043 -4.1103
  128OSM   H15T13746   2.342   1.613   7.917 -0.2192  0.9996 -0.4119
  128OSM   C16S13747   2.434   1.707   8.090  0.0684  0.0721 -0.0486
  128OSM   H16S13748   2.361   1.655   8.156 -0.6559  1.1589  0.0339
  128OSM   H16T13749   2.376   1.794   8.056 -1.7755 -0.3329  1.8309
  128OSM   C17S13750   2.561   1.744   8.174 -0.0759 -0.4933 -0.4722
  128OSM   H17S13751   2.637   1.798   8.113 -1.8358  2.7827  0.0534
  128OSM   H17T13752   2.601   1.642   8.197  0.4001 -0.1277  0.3762
  128OSM   C18S13753   2.538   1.812   8.307  0.4258  0.3340  0.0924
  128OSM   H18S13754   2.507   1.915   8.279 -1.5119  0.0511  1.0656
  128OSM   H18T13755   2.637   1.816   8.358  0.4630 -0.7526  0.1315
  128OSM   H18U13756   2.455   1.774   8.370  2.2128  0.5100  2.7268
  128OSM    C1F13757   2.761   1.817   6.460 -0.2320  1.2103 -0.4628
  128OSM     OF13758   2.690   1.903   6.421  0.2080 -0.1601  0.3693
  128OSM    C2F13759   2.910   1.830   6.450 -0.0712 -0.3861 -0.7383
  128OSM    H2F13760   2.928   1.865   6.346 -2.3225 -0.3338 -1.1544
  128OSM    H2G13761   2.962   1.738   6.482 -1.6076 -0.9301  0.2850
  128OSM    C3F13762   2.955   1.937   6.553  0.0638  0.5454  0.0702
  128OSM    H3F13763   2.883   2.019   6.576 -0.6247 -0.2734  0.9111
  128OSM    H3G13764   3.054   1.971   6.515 -0.3915  0.7536 -0.9696
  128OSM    C4F13765   2.995   1.870   6.691 -0.1942 -0.3238 -0.3693
  128OSM    H4F13766   3.070   1.787   6.694 -2.7828 -2.8036  0.3999
  128OSM    H4G13767   2.897   1.835   6.730 -0.3469 -0.0440 -0.5031
  128OSM    C5F13768   3.047   1.980   6.783 -0.2228 -0.4830  0.0917
  128OSM    H5F13769   2.969   2.055   6.807 -0.2196 -0.7496  0.9827
  128OSM    H5G13770   3.132   2.020   6.725 -0.0991  1.1192  1.3162
  128OSM    C6F13771   3.096   1.939   6.921 -0.1947 -0.0820 -0.1205
  128OSM    H6F13772   3.165   1.853   6.931  1.6836  1.5885  2.8749
  128OSM    H6G13773   3.005   1.907   6.976  0.2449  0.7210  1.1206
  128OSM    C7F13774   3.163   2.056   6.997  0.4119  0.2933 -0.8598
  128OSM    H7F13775   3.101   2.148   6.987  0.5587  0.8567  2.3335
  128OSM    H7G13776   3.265   2.084   6.964  0.3827 -0.3169 -1.4828
  128OSM    C8F13777   3.158   2.047   7.154 -0.2207  0.0616  0.1551
  128OSM    H8F13778   3.055   2.063   7.193  0.0031  0.4571  0.5925
  128OSM    H8G13779   3.205   2.141   7.191 -1.4703  0.0821  1.8179
  128OSM    C9F13780   3.240   1.937   7.216  0.0743 -0.1193  0.1097
  128OSM    H9F13781   3.260   1.852   7.149 -1.0124  0.5972 -1.1660
  128OSM   C10F13782   3.296   1.947   7.336 -0.4227 -0.2162 -0.1155
  128OSM   H10F13783   3.344   1.857   7.376 -1.3275 -0.4035  0.5922
  128OSM   C11F13784   3.276   2.061   7.434 -0.5522  0.5942 -0.1725
  128OSM   H11F13785   3.177   2.109   7.420 -2.4688 -3.0698 -0.6048
  128OSM   H11G13786   3.345   2.147   7.422 -1.3662  1.2261 -0.3497
  128OSM   C12F13787   3.297   2.012   7.583  0.0212 -1.1600 -0.0478
  128OSM   H12F13788   3.401   1.974   7.593  0.4609 -0.2351 -0.8517
  128OSM   H12G13789   3.227   1.931   7.611 -0.8067 -0.4836 -0.1383
  128OSM   C13F13790   3.263   2.123   7.684  0.3394  1.0752 -0.1487
  128OSM   H13F13791   3.158   2.157   7.672  0.7927  1.7776 -2.7401
  128OSM   H13G13792   3.326   2.210   7.656 -0.3997  1.1551 -1.6268
  128OSM   C14F13793   3.308   2.098   7.828  0.3776 -0.4206  0.0646
  128OSM   H14F13794   3.417   2.081   7.840  0.4772 -1.1517 -1.6194
  128OSM   H14G13795   3.251   2.015   7.875 -1.7505  0.4067 -0.9489
  128OSM   C15F13796   3.272   2.219   7.913  0.1782  0.1268  0.1967
  128OSM   H15F13797   3.163   2.240   7.916  0.0434 -0.5749  0.1948
  128OSM   H15G13798   3.314   2.311   7.866 -2.0672 -0.7150 -3.9889
  128OSM   C16F13799   3.317   2.210   8.050 -0.5215 -0.1197 -0.8991
  128OSM   H16F13800   3.375   2.295   8.091  0.2651 -0.2607 -1.6886
  128OSM   H16G13801   3.377   2.119   8.073  0.9368  1.1993  0.9046
  128OSM   C17F13802   3.198   2.185   8.146  0.0745 -0.0823  0.6711
  128OSM   H17F13803   3.144   2.101   8.097 -2.2618  1.2135  0.9088
  128OSM   H17G13804   3.140   2.280   8.147 -0.2203 -0.2442  2.3051
  128OSM   C18F13805   3.234   2.156   8.286 -0.2424  0.1217 -0.6084
  128OSM   H18F13806   3.311   2.076   8.284  0.4009  0.7454 -1.1444
  128OSM   H18G13807   3.145   2.140   8.351 -0.4960  0.4235 -0.8810
  128OSM   H18H13808   3.279   2.252   8.319 -0.3253  0.2111 -0.7523
  129OSM      N13809   0.680   5.611   6.155 -0.2040  0.1254  0.3676
  129OSM    C1513810   0.793   5.520   6.189  0.3125  0.0677 -0.3787
  129OSM   H15A13811   0.868   5.580   6.237 -0.3156  1.3764 -0.9802
  129OSM   H15B13812   0.824   5.486   6.091  0.2610  1.7428 -0.9930
  129OSM   H15C13813   0.762   5.433   6.245 -1.4143  0.3032 -0.9008
  129OSM    C1413814   0.730   5.737   6.108 -0.0127 -0.1030  0.0935
  129OSM   H14A13815   0.775   5.793   6.189  0.0405  0.7174 -0.4930
  129OSM   H14B13816   0.655   5.797   6.059  0.8702  0.1965 -0.9344
  129OSM   H14C13817   0.801   5.737   6.027 -2.1872  3.1886 -2.0645
  129OSM    C1313818   0.599   5.552   6.044 -0.2653  0.2723 -0.2480
  129OSM   H13A13819   0.514   5.608   6.010 -1.1255 -0.7223  0.2056
  129OSM   H13B13820   0.558   5.455   6.070  0.2794  0.2281  0.4633
  129OSM   H13C13821   0.664   5.544   5.958  0.3195 -0.0086  0.2063
  129OSM    C1213822   0.584   5.636   6.272  0.0644  0.2211  0.9748
  129OSM   H12A13823   0.534   5.544   6.300 -1.1321  0.4591 -0.2502
  129OSM   H12B13824   0.509   5.699   6.226  1.1529  0.0200 -1.1936
  129OSM    C1113825   0.653   5.707   6.394 -0.2299  0.7097  0.4092
  129OSM   H11A13826   0.755   5.665   6.403 -0.9203 -0.8763  1.1408
  129OSM   H11B13827   0.593   5.677   6.482  0.2312  0.1122  0.5281
  129OSM      P13828   0.783   5.937   6.437  0.2346  0.1066 -0.3549
  129OSM    O1313829   0.858   5.986   6.318  0.3587  0.1210  0.5612
  129OSM    O1413830   0.746   6.046   6.526  0.4337 -0.0213 -0.0725
  129OSM    O1113831   0.869   5.833   6.525  0.1033  0.1158  0.6908
  129OSM    O1213832   0.650   5.852   6.395 -0.0540  0.4962  0.0219
  129OSM    C1S13833   0.957   5.887   6.624 -0.7956 -0.1779 -0.3903
  129OSM    H1S13834   0.992   5.990   6.601 -2.2486  0.3307 -0.4602
  129OSM    H1T13835   1.042   5.816   6.627 -0.4022  0.3104  2.3143
  129OSM     NF13836   1.006   5.934   6.867  0.0041  0.6888 -0.3385
  129OSM    HNF13837   1.058   5.861   6.910 -0.7116  0.7812  0.7107
  129OSM    C2S13838   0.904   5.886   6.776 -0.8227  0.4368  0.2103
  129OSM    H2S13839   0.820   5.958   6.768 -1.2269  0.0158  0.6268
  129OSM    C3S13840   0.857   5.742   6.817  0.7234 -0.8597  0.1324
  129OSM    H3S13841   0.947   5.677   6.812  0.6457 -0.9213 -0.5271
  129OSM     O313842   0.762   5.670   6.733  0.2888  0.3157 -0.0369
  129OSM    HO313843   0.772   5.714   6.648 -1.2209  0.5771 -0.1042
  129OSM    C4S13844   0.816   5.748   6.964 -0.2501 -0.4194 -0.4279
  129OSM    H4S13845   0.714   5.784   6.987 -0.0057 -0.4935  0.8227
  129OSM    C5S13846   0.888   5.693   7.066  0.0278  0.0917 -0.1416
  129OSM    H5S13847   0.980   5.636   7.052  1.0248  1.7063 -0.4412
  129OSM    C6S13848   0.839   5.684   7.212  0.2632 -0.6717 -0.0080
  129OSM    H6S13849   0.915   5.627   7.270 -2.0776 -1.2265  2.7046
  129OSM    H6T13850   0.740   5.635   7.218 -0.1705  0.0944 -0.7395
  129OSM    C7S13851   0.831   5.832   7.268 -0.1467 -0.3231  0.7770
  129OSM    H7S13852   0.752   5.875   7.202  0.0939 -0.3418  0.4775
  129OSM    H7T13853   0.926   5.887   7.276 -1.0100  1.7399 -1.7355
  129OSM    C8S13854   0.770   5.835   7.410 -0.2507  0.0200  0.5760
  129OSM    H8S13855   0.665   5.801   7.417 -0.1696 -0.0124  1.7695
  129OSM    H8T13856   0.767   5.944   7.434 -3.1474 -0.0506  0.7943
  129OSM    C9S13857   0.848   5.762   7.522  0.0135 -0.0517  0.1419
  129OSM    H9S13858   0.953   5.795   7.535 -0.1618  0.9923 -0.9431
  129OSM    H9T13859   0.847   5.653   7.500  1.5404  0.3014 -2.0208
  129OSM   C10S13860   0.785   5.771   7.659 -0.7677 -0.0587  0.1995
  129OSM   H10S13861   0.699   5.701   7.664 -1.3825  0.3132 -3.0430
  129OSM   H10T13862   0.749   5.876   7.673 -2.5667  0.0840 -4.0161
  129OSM   C11S13863   0.882   5.728   7.778 -0.0798  1.2584 -0.3929
  129OSM   H11S13864   0.859   5.788   7.869 -2.3350  2.3594 -1.6076
  129OSM   H11T13865   0.988   5.750   7.752  0.4363 -1.9152 -1.3429
  129OSM   C12S13866   0.873   5.577   7.805  0.1218  0.2470 -0.4646
  129OSM   H12S13867   0.965   5.547   7.861 -0.5224 -0.3187  0.2995
  129OSM   H12T13868   0.870   5.519   7.710  2.3242 -3.2112  1.3919
  129OSM   C13S13869   0.751   5.525   7.883 -1.0703 -0.5088 -1.2473
  129OSM   H13S13870   0.663   5.583   7.848 -2.6466 -1.0261  1.5147
  129OSM   H13T13871   0.748   5.551   7.992 -2.1510 -0.5816 -1.2544
  129OSM   C14S13872   0.723   5.379   7.870  0.0723 -0.7164 -0.4357
  129OSM   H14S13873   0.816   5.334   7.912  1.8394  1.4147 -1.8073
  129OSM   H14T13874   0.720   5.357   7.762  1.2063  0.0490 -0.6535
  129OSM   C15S13875   0.588   5.338   7.941 -0.0997 -0.1923  0.0456
  129OSM   H15S13876   0.502   5.383   7.887  1.7632  0.8411 -2.2148
  129OSM   H15T13877   0.595   5.374   8.046 -2.6018  0.7053 -0.0454
  129OSM   C16S13878   0.562   5.188   7.938  0.1105  0.1453  0.4864
  129OSM   H16S13879   0.649   5.133   7.979  1.6503  2.5131  0.5676
  129OSM   H16T13880   0.558   5.141   7.837  1.0906 -0.6090  0.7776
  129OSM   C17S13881   0.430   5.155   8.013  0.5857 -0.2393 -0.1762
  129OSM   H17S13882   0.417   5.228   8.096 -2.9667 -1.0708  0.1730
  129OSM   H17T13883   0.441   5.052   8.052 -0.6914 -0.2782  0.1290
  129OSM   C18S13884   0.308   5.159   7.921 -0.1422 -0.1017  0.1241
  129OSM   H18S13885   0.299   5.058   7.876 -3.4399 -2.0515  4.3830
  129OSM   H18T13886   0.306   5.242   7.847 -1.4873 -0.3593 -0.1530
  129OSM   H18U13887   0.215   5.171   7.980  0.6481  3.0691  0.9136
  129OSM    C1F13888   1.054   6.058   6.871  0.6408 -0.5343  0.2906
  129OSM     OF13889   0.994   6.138   6.802  0.4797 -0.5635  0.0128
  129OSM    C2F13890   1.168   6.088   6.963  0.4102  0.0552 -0.9482
  129OSM    H2F13891   1.218   6.181   6.928  1.5540  0.4208  1.4466
  129OSM    H2G13892   1.244   6.008   6.972  2.4766  2.0018  0.0272
  129OSM    C3F13893   1.110   6.106   7.106  0.3190 -0.2635  0.9286
  129OSM    H3F13894   1.034   6.027   7.122 -0.0848 -0.5068 -1.7455
  129OSM    H3G13895   1.064   6.207   7.112  1.5065  0.2964  1.0673
  129OSM    C4F13896   1.208   6.103   7.228  0.5251 -0.2334  0.4146
  129OSM    H4F13897   1.277   6.190   7.217  3.3011 -1.7789  3.5054
  129OSM    H4G13898   1.267   6.009   7.236  0.2167 -0.5888 -1.2176
  129OSM    C5F13899   1.137   6.118   7.356 -0.8499 -0.1565 -0.6503
  129OSM    H5F13900   1.030   6.099   7.334 -0.5594  0.2306 -2.5214
  129OSM    H5G13901   1.142   6.225   7.386  0.5677 -1.0171  2.6932
  129OSM    C6F13902   1.191   6.035   7.478 -0.3996  0.2376  0.1773
  129OSM    H6F13903   1.298   6.063   7.487 -0.4200  0.4427 -0.1975
  129OSM    H6G13904   1.190   5.926   7.459 -0.5381 -0.0654  1.8021
  129OSM    C7F13905   1.127   6.067   7.609  0.4177  0.3006 -0.3311
  129OSM    H7F13906   1.020   6.036   7.611  0.8963 -1.4367  1.0412
  129OSM    H7G13907   1.113   6.176   7.630 -1.3226  0.0340  0.0671
  129OSM    C8F13908   1.188   5.987   7.719 -0.4554  0.3056  0.2403
  129OSM    H8F13909   1.291   6.020   7.744  0.2371 -1.9099  0.5125
  129OSM    H8G13910   1.183   5.879   7.694 -1.1194  1.0441 -3.3478
  129OSM    C9F13911   1.107   6.017   7.851 -0.3316 -0.0733 -0.2782
  129OSM    H9F13912   1.035   6.100   7.845  0.4113  0.5920 -0.0652
  129OSM   C10F13913   1.109   5.946   7.971  0.1456  0.4519  0.6393
  129OSM   H10F13914   1.049   5.972   8.059  1.8777 -0.2102  2.0842
  129OSM   C11F13915   1.193   5.816   7.999 -0.8635 -0.2856  0.2173
  129OSM   H11F13916   1.286   5.839   8.055  0.1118 -0.1258 -1.4075
  129OSM   H11G13917   1.228   5.771   7.904 -1.9065 -0.3533 -0.1545
  129OSM   C12F13918   1.131   5.712   8.087  0.4969 -0.1390  0.1171
  129OSM   H12F13919   1.203   5.627   8.092  0.8071 -0.0528 -1.9334
  129OSM   H12G13920   1.042   5.668   8.036  1.4556  0.4464 -2.1597
  129OSM   C13F13921   1.092   5.761   8.230 -0.0274 -0.5487 -0.2442
  129OSM   H13F13922   1.016   5.842   8.223  0.7776  0.3468  0.9181
  129OSM   H13G13923   1.185   5.800   8.277  0.3433  1.5499 -2.5185
  129OSM   C14F13924   1.054   5.648   8.329 -0.1554  0.2769 -0.2852
  129OSM   H14F13925   1.055   5.690   8.432  2.8511  0.9292 -0.4864
  129OSM   H14G13926   1.127   5.565   8.323  3.2931  2.6815  3.4047
  129OSM   C15F13927   0.915   5.604   8.314 -0.6129  0.2119  0.2242
  129OSM   H15F13928   0.891   5.578   8.208  1.0056 -0.0834 -0.0942
  129OSM   H15G13929   0.853   5.693   8.338 -1.3154 -0.0223 -0.6629
  129OSM   C16F13930   0.879   5.484   8.401  0.3376 -0.2662  0.0483
  129OSM   H16F13931   0.856   5.520   8.504 -0.4115 -0.1208 -0.1598
  129OSM   H16G13932   0.966   5.416   8.416  0.3109 -0.5966 -1.1923
  129OSM   C17F13933   0.746   5.418   8.334 -0.4643 -0.0405  0.1664
  129OSM   H17F13934   0.740   5.334   8.406 -1.1286  0.8627  1.1919
  129OSM   H17G13935   0.772   5.381   8.232 -2.5097  0.3993 -0.5519
  129OSM   C18F13936   0.615   5.499   8.331  0.1123 -0.0756  0.6669
  129OSM   H18F13937   0.579   5.521   8.434 -0.1645  2.3524  0.1141
  129OSM   H18G13938   0.534   5.443   8.278  0.5606 -0.0482 -0.0617
  129OSM   H18H13939   0.631   5.595   8.278 -2.1541 -0.4131 -0.7795
  130OSM      N13940   3.211   1.660   5.979 -0.8879  0.8768 -0.1425
  130OSM    C1513941   3.100   1.753   5.980  0.1251 -0.2799 -0.4286
  130OSM   H15A13942   3.013   1.713   6.029  0.9413 -0.5151  0.8631
  130OSM   H15B13943   3.068   1.783   5.881 -2.0165  0.2180  0.3622
  130OSM   H15C13944   3.118   1.848   6.028 -1.9201  0.1828 -0.4934
  130OSM    C1413945   3.223   1.598   6.114  0.6137  0.0103 -0.4784
  130OSM   H14A13946   3.315   1.542   6.119  0.4386 -0.2261  0.1932
  130OSM   H14B13947   3.142   1.533   6.144  2.4539 -1.8193  0.7580
  130OSM   H14C13948   3.218   1.678   6.186 -4.1198 -0.1313 -0.3285
  130OSM    C1313949   3.185   1.538   5.894 -0.0091 -0.4096  0.3867
  130OSM   H13A13950   3.124   1.574   5.812 -0.3885 -2.3183 -0.2151
  130OSM   H13B13951   3.126   1.474   5.958 -0.5714 -0.7556 -0.4654
  130OSM   H13C13952   3.275   1.491   5.857  0.1056 -0.6054  0.9023
  130OSM    C1213953   3.338   1.729   5.936 -1.1307 -0.1479  0.4137
  130OSM   H12A13954   3.327   1.770   5.837  1.3811 -0.4922 -0.0694
  130OSM   H12B13955   3.423   1.662   5.940  0.2506  1.5171  4.0476
  130OSM    C1113956   3.382   1.852   6.025 -0.1617 -0.1263  0.8648
  130OSM   H11A13957   3.295   1.913   6.055 -2.6713 -2.3816 -1.2531
  130OSM   H11B13958   3.434   1.920   5.954 -0.3210 -1.6405 -0.7941
  130OSM      P13959   3.607   1.803   6.131  0.1276  0.0663 -0.4876
  130OSM    O1313960   3.648   1.681   6.051  0.6764  0.1758 -0.5095
  130OSM    O1413961   3.651   1.932   6.072  0.5892  0.6416 -0.0391
  130OSM    O1113962   3.662   1.790   6.281 -0.0727 -0.1431 -0.3442
  130OSM    O1213963   3.448   1.820   6.145  0.1797  0.1524 -0.0251
  130OSM    C1S13964   3.602   1.837   6.403  0.0854  0.3851 -0.7361
  130OSM    H1S13965   3.512   1.778   6.429  2.7027 -2.8327  2.0636
  130OSM    H1T13966   3.574   1.944   6.391  1.5645  0.8982  0.0588
  130OSM     NF13967   3.627   1.899   6.641  0.2162 -0.4432  0.2260
  130OSM    HNF13968   3.649   1.994   6.662 -2.5861  0.0416  1.3831
  130OSM    C2S13969   3.697   1.829   6.533  0.0111  0.1005 -0.3771
  130OSM    H2S13970   3.721   1.723   6.558  0.6816 -0.2160 -2.2693
  130OSM    C3S13971   3.827   1.899   6.498 -0.2740 -0.2633 -0.6473
  130OSM    H3S13972   3.805   1.995   6.447 -0.8316 -1.2631 -2.3363
  130OSM     O313973   3.904   1.834   6.398  0.7679 -0.0042  0.6264
  130OSM    HO313974   3.838   1.768   6.375 -0.5328  0.8894  1.6869
  130OSM    C4S13975   3.909   1.926   6.631 -0.4074 -0.1271 -0.6123
  130OSM    H4S13976   3.861   1.989   6.707 -0.0744 -0.7662  0.1480
  130OSM    C5S13977   4.024   1.859   6.662 -0.1174  0.4515 -0.4238
  130OSM    H5S13978   4.065   1.783   6.595 -1.1017 -0.3436 -0.1512
  130OSM    C6S13979   4.104   1.891   6.787  0.2510  0.0241  0.3558
  130OSM    H6S13980   4.196   1.944   6.755  0.4246 -1.3548 -1.6432
  130OSM    H6T13981   4.139   1.795   6.831 -0.3311 -0.1789  0.3845
  130OSM    C7S13982   4.028   1.978   6.893  0.2945  0.0176  0.4862
  130OSM    H7S13983   3.929   1.932   6.915 -0.6168  2.0722  0.9751
  130OSM    H7T13984   3.998   2.077   6.854 -4.2469 -1.1743  0.3601
  130OSM    C8S13985   4.109   1.977   7.018 -0.1609  0.1527  0.2925
  130OSM    H8S13986   4.208   2.023   6.995 -1.0030  1.5884 -0.6076
  130OSM    H8T13987   4.115   1.878   7.069 -0.8753 -0.5073 -0.8694
  130OSM    C9S13988   4.044   2.064   7.134 -0.5656  0.1494  0.4104
  130OSM    H9S13989   3.959   2.000   7.164 -3.7931  2.9331 -2.0604
  130OSM    H9T13990   4.019   2.162   7.088  1.7141 -0.3453 -2.2129
  130OSM   C10S13991   4.144   2.099   7.244 -0.0771  0.7116 -0.8352
  130OSM   H10S13992   4.092   2.173   7.309 -0.9688 -1.3741  0.9193
  130OSM   H10T13993   4.235   2.146   7.199 -0.4381  2.6513  0.3235
  130OSM   C11S13994   4.171   1.982   7.339 -0.1759 -0.0733  0.1111
  130OSM   H11S13995   4.220   1.901   7.281  3.5408  3.2688 -1.9085
  130OSM   H11T13996   4.077   1.948   7.387 -0.7447 -0.4457 -1.2244
  130OSM   C12S13997   4.277   2.012   7.448  0.3598 -0.7273  0.3741
  130OSM   H12S13998   4.377   2.013   7.401  0.2818 -0.1806  0.2176
  130OSM   H12T13999   4.281   1.922   7.514  0.5900 -0.7016  0.3953
  130OSM   C13S14000   4.261   2.146   7.523 -0.2774 -0.2540 -0.0831
  130OSM   H13S14001   4.228   2.232   7.462 -1.4138 -0.8312 -0.3081
  130OSM   H13T14002   4.364   2.167   7.559  0.4844 -0.3312 -2.0761
  130OSM   C14S14003   4.157   2.144   7.641 -0.3464 -0.1646  0.4403
  130OSM   H14S14004   4.171   2.043   7.684 -1.3645 -1.5489 -2.2013
  130OSM   H14T14005   4.063   2.141   7.582  1.0041  1.0365 -1.9163
  130OSM   C15S14006   4.164   2.262   7.733  0.2984 -0.4288  0.0828
  130OSM   H15S14007   4.265   2.282   7.776 -0.3828  1.4372  0.9440
  130OSM   H15T14008   4.089   2.238   7.811  0.8120 -1.3094  0.3209
  130OSM   C16S14009   4.116   2.391   7.657 -0.2972  0.1490 -0.7962
  130OSM   H16S14010   4.015   2.372   7.616  0.1949 -3.1447 -0.8257
  130OSM   H16T14011   4.179   2.408   7.568  0.9226  0.1583  0.0359
  130OSM   C17S14012   4.115   2.510   7.758 -0.1367  0.8863  0.7970
  130OSM   H17S14013   4.221   2.513   7.791  0.0722  0.5805  0.1727
  130OSM   H17T14014   4.055   2.484   7.847  0.7428 -1.5410  0.7618
  130OSM   C18S14015   4.063   2.645   7.708 -0.0072  0.0621  0.2320
  130OSM   H18S14016   3.959   2.634   7.669  0.3741  0.7681 -1.0769
  130OSM   H18T14017   4.125   2.685   7.625  1.1944 -1.4463  0.3792
  130OSM   H18U14018   4.066   2.720   7.790 -4.2181  0.9830 -0.1806
  130OSM    C1F14019   3.522   1.840   6.702  0.4557 -0.6330  0.7680
  130OSM     OF14020   3.494   1.725   6.663 -0.2745 -0.1816  0.1086
  130OSM    C2F14021   3.433   1.914   6.806  0.7190  0.6281 -0.2175
  130OSM    H2F14022   3.342   1.851   6.819  1.2322  0.0158  0.5043
  130OSM    H2G14023   3.410   2.017   6.771  0.2271  0.8086  0.6255
  130OSM    C3F14024   3.509   1.933   6.939 -0.6937  0.1717 -0.9290
  130OSM    H3F14025   3.449   1.981   7.020 -0.4111 -1.3501  0.2269
  130OSM    H3G14026   3.598   1.998   6.925 -1.1339  0.9060 -0.4247
  130OSM    C4F14027   3.559   1.801   7.006  0.7701 -0.4337  0.0442
  130OSM    H4F14028   3.579   1.721   6.932  0.5643  0.9875 -1.6153
  130OSM    H4G14029   3.473   1.774   7.070 -0.4172  0.9166 -0.9203
  130OSM    C5F14030   3.688   1.818   7.095 -0.6536 -0.1320 -0.2607
  130OSM    H5F14031   3.666   1.893   7.174 -0.8739 -1.9524  1.4862
  130OSM    H5G14032   3.765   1.855   7.024 -1.6526  1.3101 -0.6279
  130OSM    C6F14033   3.732   1.693   7.159  0.5432  0.4820 -0.0710
  130OSM    H6F14034   3.771   1.622   7.083  1.1607  2.4786 -1.7179
  130OSM    H6G14035   3.640   1.657   7.210 -0.2807  1.2741 -0.9575
  130OSM    C7F14036   3.846   1.721   7.256 -0.0991 -0.3242 -0.5234
  130OSM    H7F14037   3.888   1.824   7.260 -0.9936  0.0416 -0.1978
  130OSM    H7G14038   3.927   1.647   7.241 -0.8695 -1.0472 -1.2385
  130OSM    C8F14039   3.800   1.700   7.405 -0.3854  0.5225 -0.8749
  130OSM    H8F14040   3.894   1.705   7.464  0.8626  2.3022 -2.8765
  130OSM    H8G14041   3.749   1.604   7.426  0.2132  0.9987  3.8224
  130OSM    C9F14042   3.703   1.797   7.468  0.0319 -0.2574  0.1515
  130OSM    H9F14043   3.607   1.809   7.416  0.6711 -1.2855 -1.3240
  130OSM   C10F14044   3.732   1.882   7.567 -1.1531 -0.3099  0.2058
  130OSM   H10F14045   3.661   1.962   7.591  0.7670  1.2475  0.9227
  130OSM   C11F14046   3.860   1.897   7.648 -0.2884  0.0077  0.1130
  130OSM   H11F14047   3.929   1.970   7.600 -0.7710  0.8934  0.7370
  130OSM   H11G14048   3.907   1.798   7.668 -1.5427 -0.3562  1.3761
  130OSM   C12F14049   3.812   1.937   7.789  0.4686  0.3615 -0.3172
  130OSM   H12F14050   3.724   2.005   7.789  2.7855  3.5955 -1.5536
  130OSM   H12G14051   3.892   1.991   7.844  0.1319  2.0116 -1.3721
  130OSM   C13F14052   3.769   1.814   7.877  0.0216  0.0074  0.1080
  130OSM   H13F14053   3.850   1.744   7.907 -0.7666 -0.7988  0.3904
  130OSM   H13G14054   3.697   1.755   7.818  0.3779 -1.5799  1.1895
  130OSM   C14F14055   3.704   1.858   8.004 -0.5596 -0.4909  0.2111
  130OSM   H14F14056   3.639   1.946   7.987 -0.1315 -0.2398 -0.1696
  130OSM   H14G14057   3.775   1.912   8.071 -3.2085  1.2436  1.8032
  130OSM   C15F14058   3.640   1.748   8.082 -0.0070 -0.4939  0.4237
  130OSM   H15F14059   3.713   1.670   8.114  0.5684 -0.5583 -0.9796
  130OSM   H15G14060   3.567   1.704   8.011  2.3019 -1.5280 -1.4735
  130OSM   C16F14061   3.563   1.777   8.203  0.6762 -0.7961  0.5858
  130OSM   H16F14062   3.517   1.682   8.239  1.8272 -0.7539  2.3131
  130OSM   H16G14063   3.477   1.847   8.202  2.7636  1.9607  1.3355
  130OSM   C17F14064   3.643   1.821   8.321 -0.8555  0.2237 -0.2959
  130OSM   H17F14065   3.694   1.917   8.296  0.9720 -0.7834 -0.5862
  130OSM   H17G14066   3.728   1.752   8.341 -2.1452 -0.9946  1.2757
  130OSM   C18F14067   3.556   1.846   8.443  0.3327  0.4499 -0.0420
  130OSM   H18F14068   3.621   1.896   8.518  2.5362 -0.4606 -1.2502
  130OSM   H18G14069   3.538   1.751   8.499  1.2702  2.5808  4.3681
  130OSM   H18H14070   3.459   1.898   8.427 -0.6354 -1.4440 -0.5790
  131OSM      N14071   6.620   5.875   6.208  0.5436 -0.5805  0.1615
  131OSM    C1514072   6.628   5.751   6.121  0.0033  0.4195  0.2720
  131OSM   H15A14073   6.699   5.767   6.041 -0.3771  1.7187  0.1570
  131OSM   H15B14074   6.533   5.724   6.077  1.0720 -2.7596 -0.3224
  131OSM   H15C14075   6.655   5.677   6.194 -1.0344 -0.5794 -0.3327
  131OSM    C1414076   6.565   5.988   6.129  0.0977  0.1535 -0.3281
  131OSM   H14A14077   6.627   6.030   6.052 -0.4311 -0.4498 -1.0948
  131OSM   H14B14078   6.541   6.072   6.193 -1.5109 -1.7264  1.6959
  131OSM   H14C14079   6.474   5.950   6.085 -1.2112 -1.9790  3.7092
  131OSM    C1314080   6.520   5.855   6.317  0.4603 -0.2964 -0.1801
  131OSM   H13A14081   6.423   5.821   6.283  0.4424  0.5369 -1.0037
  131OSM   H13B14082   6.514   5.941   6.381  2.5687 -2.2287  2.8954
  131OSM   H13C14083   6.551   5.774   6.381  0.7109 -1.9128 -2.2160
  131OSM    C1214084   6.761   5.909   6.268  0.3998  0.3986  0.2488
  131OSM   H12A14085   6.795   5.830   6.334  0.3561  1.3310  1.4146
  131OSM   H12B14086   6.752   5.997   6.330  0.6471  0.0533  0.7836
  131OSM    C1114087   6.874   5.945   6.162 -0.3020  0.3899  0.6171
  131OSM   H11A14088   6.968   5.979   6.212  1.5643 -2.3841 -0.7122
  131OSM   H11B14089   6.835   6.033   6.107  2.0950  1.0475 -0.1942
  131OSM      P14090   6.995   5.709   6.117  0.0406  0.3402  0.3496
  131OSM    O1314091   6.955   5.591   6.038  0.9437 -0.4736 -0.4056
  131OSM    O1414092   7.134   5.753   6.105  0.0829 -0.2712  0.0273
  131OSM    O1114093   6.972   5.668   6.267 -0.1466  0.3297 -0.1462
  131OSM    O1214094   6.905   5.832   6.079 -0.1830 -0.6736  0.2425
  131OSM    C1S14095   7.024   5.742   6.377  0.3608 -0.6993 -0.0910
  131OSM    H1S14096   7.005   5.851   6.364 -2.1023 -0.7981  1.8414
  131OSM    H1T14097   7.135   5.738   6.376  0.5748  2.3177 -0.2019
  131OSM     NF14098   7.018   5.784   6.631 -0.2387 -0.3751  1.1035
  131OSM    HNF14099   7.101   5.758   6.680  0.9878 -0.0938 -0.6928
  131OSM    C2S14100   6.980   5.692   6.519 -0.1446 -0.3578 -0.3405
  131OSM    H2S14101   6.870   5.698   6.504 -0.1228 -0.9014 -0.7451
  131OSM    C3S14102   7.038   5.554   6.546 -0.4027  0.3281  0.7519
  131OSM    H3S14103   7.145   5.563   6.575 -0.0742  2.7161 -0.9003
  131OSM     O314104   7.042   5.476   6.430  0.1331  0.0387  0.2564
  131OSM    HO314105   7.012   5.533   6.359 -1.2402  1.2117  1.7102
  131OSM    C4S14106   6.962   5.475   6.655  0.0812 -0.6257  0.1722
  131OSM    H4S14107   6.992   5.497   6.758 -0.6419  2.8202 -0.2222
  131OSM    C5S14108   6.851   5.406   6.632 -0.8810  0.3998 -0.1814
  131OSM    H5S14109   6.807   5.407   6.532  1.8930 -0.4758 -1.4949
  131OSM    C6S14110   6.778   5.319   6.733 -0.1143  0.2181  0.2600
  131OSM    H6S14111   6.793   5.216   6.694 -0.4930 -0.1863  1.1578
  131OSM    H6T14112   6.671   5.347   6.727 -0.3434 -0.5685  0.5712
  131OSM    C7S14113   6.829   5.321   6.889  0.2949  0.5558 -0.0564
  131OSM    H7S14114   6.938   5.301   6.901  0.3043 -0.0735 -1.0026
  131OSM    H7T14115   6.779   5.230   6.929 -1.4881  0.5110 -2.1869
  131OSM    C8S14116   6.799   5.450   6.969 -0.0875  0.1408 -0.5169
  131OSM    H8S14117   6.688   5.452   6.981 -0.1607 -0.6493 -0.9435
  131OSM    H8T14118   6.819   5.542   6.910  0.6870  0.2684 -0.0704
  131OSM    C9S14119   6.851   5.449   7.114 -0.5281  0.2687  0.5687
  131OSM    H9S14120   6.794   5.533   7.159 -0.4819  0.3087  0.5526
  131OSM    H9T14121   6.961   5.461   7.107 -0.7141  1.6611 -0.3993
  131OSM   C10S14122   6.808   5.322   7.186 -0.2751  0.3101  0.7620
  131OSM   H10S14123   6.859   5.236   7.140  0.7067 -0.0554  2.4454
  131OSM   H10T14124   6.699   5.300   7.175  0.4020 -2.6484 -0.9902
  131OSM   C11S14125   6.842   5.318   7.333 -0.5831 -0.1574 -1.1122
  131OSM   H11S14126   6.944   5.358   7.352  0.1201 -2.0509 -0.7621
  131OSM   H11T14127   6.839   5.214   7.372 -1.3099  1.1183  2.6542
  131OSM   C12S14128   6.752   5.384   7.439  0.1512  0.0585  1.4185
  131OSM   H12S14129   6.644   5.363   7.425 -0.1861  1.1762  2.2340
  131OSM   H12T14130   6.761   5.492   7.417 -1.6340 -0.3681 -2.2862
  131OSM   C13S14131   6.780   5.336   7.580  0.3259 -0.5734 -0.1433
  131OSM   H13S14132   6.888   5.352   7.598 -0.0403  1.5341  0.4480
  131OSM   H13T14133   6.768   5.228   7.603  1.6700 -0.1693  2.8370
  131OSM   C14S14134   6.702   5.422   7.684  0.9265  0.7366  0.2678
  131OSM   H14S14135   6.595   5.441   7.658  1.0553  1.0295 -0.0476
  131OSM   H14T14136   6.758   5.517   7.676  2.0825 -0.0978 -3.0306
  131OSM   C15S14137   6.725   5.361   7.825  0.2674  0.0019 -0.0536
  131OSM   H15S14138   6.832   5.371   7.855  1.2142  0.1682 -3.0936
  131OSM   H15T14139   6.683   5.258   7.826 -1.2152  0.5468 -1.6857
  131OSM   C16S14140   6.624   5.434   7.926 -0.1618  0.1552 -0.2854
  131OSM   H16S14141   6.533   5.454   7.865  0.7335 -2.3211 -2.6357
  131OSM   H16T14142   6.681   5.528   7.941 -2.4241  1.6727 -0.7171
  131OSM   C17S14143   6.608   5.365   8.059 -0.2669  0.1101  1.2027
  131OSM   H17S14144   6.710   5.348   8.100  0.1695 -0.3240 -0.0293
  131OSM   H17T14145   6.567   5.264   8.043  1.7437 -0.4995 -0.5937
  131OSM   C18S14146   6.513   5.426   8.163 -0.2803  0.8163  1.3642
  131OSM   H18S14147   6.424   5.461   8.106  0.3606  1.9978  1.0524
  131OSM   H18T14148   6.573   5.502   8.217  0.9340  1.4000 -0.7028
  131OSM   H18U14149   6.476   5.338   8.220  2.8809 -1.4933  0.1682
  131OSM    C1F14150   6.957   5.906   6.646 -0.2930  0.2938  0.0121
  131OSM     OF14151   6.887   5.953   6.558  0.5360  0.1820  0.0322
  131OSM    C2F14152   6.981   5.978   6.775  0.2907  0.9284  0.1866
  131OSM    H2F14153   6.927   6.074   6.788 -0.7271  0.5892 -1.2651
  131OSM    H2G14154   7.089   6.004   6.776  0.8353 -1.1028  0.1598
  131OSM    C3F14155   6.955   5.883   6.892  0.0692  0.3409 -0.9917
  131OSM    H3F14156   6.999   5.783   6.872  0.5660  0.6832 -1.6630
  131OSM    H3G14157   6.845   5.886   6.909  0.3821  0.8575  1.4264
  131OSM    C4F14158   7.015   5.918   7.032  0.1223 -0.2719  0.2237
  131OSM    H4F14159   7.013   6.026   7.055  0.8441 -0.3674  0.7566
  131OSM    H4G14160   7.123   5.893   7.038 -0.0129 -1.2788 -0.9914
  131OSM    C5F14161   6.946   5.840   7.149  0.1592 -0.5795  0.6602
  131OSM    H5F14162   6.904   5.742   7.116 -2.6856  0.6053  0.4730
  131OSM    H5G14163   6.853   5.893   7.178  0.6558 -0.6966  2.5878
  131OSM    C6F14164   7.041   5.820   7.266 -0.4411  0.2865 -0.2912
  131OSM    H6F14165   7.091   5.918   7.281  0.0467  0.2587 -1.6458
  131OSM    H6G14166   7.109   5.733   7.256  1.7604  1.7845  0.8432
  131OSM    C7F14167   6.956   5.796   7.391  0.5015  0.5025 -0.0158
  131OSM    H7F14168   6.892   5.707   7.374  1.4755 -0.1411 -0.3810
  131OSM    H7G14169   6.887   5.882   7.402 -0.1288  0.3389 -2.1447
  131OSM    C8F14170   7.056   5.770   7.504  0.1895  0.4604  0.1306
  131OSM    H8F14171   6.996   5.794   7.594 -0.0530 -0.9381  0.3713
  131OSM    H8G14172   7.139   5.843   7.503  1.4426 -0.8236 -2.9769
  131OSM    C9F14173   7.102   5.633   7.535  0.4548  0.0255  0.5432
  131OSM    H9F14174   7.105   5.561   7.452  1.0859  2.4164 -1.6281
  131OSM   C10F14175   7.154   5.591   7.656  0.1561  0.0372  0.3451
  131OSM   H10F14176   7.190   5.487   7.659 -0.8654 -0.5494 -3.2610
  131OSM   C11F14177   7.157   5.673   7.787 -0.0300  0.4656 -0.2586
  131OSM   H11F14178   7.165   5.780   7.762  1.3637  0.7247  1.1043
  131OSM   H11G14179   7.242   5.643   7.853  0.3669 -1.7781 -1.6566
  131OSM   C12F14180   7.034   5.640   7.868  0.1960 -0.0295 -0.3982
  131OSM   H12F14181   7.035   5.533   7.897 -0.1631 -0.3351 -1.4837
  131OSM   H12G14182   6.936   5.647   7.816 -0.2933 -0.2300  0.4814
  131OSM   C13F14183   7.021   5.733   7.991  0.2924  0.4810 -0.4315
  131OSM   H13F14184   7.000   5.838   7.962  1.2307  0.4241 -1.3390
  131OSM   H13G14185   7.119   5.737   8.043 -0.2758 -3.1806  1.2514
  131OSM   C14F14186   6.917   5.688   8.093 -0.4040  0.3524 -0.1153
  131OSM   H14F14187   6.835   5.636   8.038 -0.5279 -0.9341  1.2265
  131OSM   H14G14188   6.892   5.763   8.171 -0.9708 -1.6895  1.7493
  131OSM   C15F14189   6.989   5.576   8.177 -0.6461 -0.5610  0.0850
  131OSM   H15F14190   7.079   5.610   8.233  0.1283 -2.5505  0.1425
  131OSM   H15G14191   7.013   5.490   8.110 -0.7845  0.1111 -0.8447
  131OSM   C16F14192   6.889   5.525   8.279 -0.7967  0.4836 -0.2982
  131OSM   H16F14193   6.800   5.488   8.224 -1.4971  0.7992  0.5981
  131OSM   H16G14194   6.849   5.597   8.353  1.9977  0.7252  1.0997
  131OSM   C17F14195   6.951   5.405   8.344 -0.9074  0.6440 -0.2655
  131OSM   H17F14196   7.032   5.436   8.415 -1.0981 -1.7070  1.0738
  131OSM   H17G14197   6.996   5.338   8.268 -1.5763 -1.2622  0.9537
  131OSM   C18F14198   6.847   5.329   8.431 -0.2836  0.1076  0.4865
  131OSM   H18F14199   6.786   5.401   8.489  0.2076 -0.5568  1.8712
  131OSM   H18G14200   6.891   5.252   8.498  0.0545 -1.4083 -1.3962
  131OSM   H18H14201   6.780   5.273   8.363  3.1507 -2.2718 -1.2550
  132OSM      N14202   1.520   6.191   6.347  0.0495 -0.5103 -0.6532
  132OSM    C1514203   1.621   6.228   6.253 -0.3419  0.3680 -0.5931
  132OSM   H15A14204   1.713   6.250   6.306 -1.2020 -0.7848  1.5376
  132OSM   H15B14205   1.596   6.312   6.191 -0.5748  1.6539  1.1743
  132OSM   H15C14206   1.654   6.144   6.193  0.2249  1.5746 -2.0072
  132OSM    C1414207   1.475   6.319   6.421  0.0457  0.5221  0.2280
  132OSM   H14A14208   1.451   6.399   6.353  0.8972  0.1895 -0.4930
  132OSM   H14B14209   1.559   6.357   6.476 -0.8248  1.0758  1.2018
  132OSM   H14C14210   1.387   6.304   6.482  0.2946  0.5004  0.5839
  132OSM    C1314211   1.399   6.157   6.273  0.1688  0.3008 -0.3017
  132OSM   H13A14212   1.425   6.085   6.196  2.1402  1.3070 -0.6385
  132OSM   H13B14213   1.363   6.245   6.221 -0.4628 -0.1425 -0.6219
  132OSM   H13C14214   1.320   6.118   6.334  0.5993 -0.3298 -0.1351
  132OSM    C1214215   1.566   6.085   6.435  0.9358  0.1432 -0.8150
  132OSM   H12A14216   1.657   6.118   6.483  0.5538 -1.9427  1.5018
  132OSM   H12B14217   1.586   5.998   6.374  1.5486 -1.9151  2.1365
  132OSM    C1114218   1.465   6.043   6.545  0.3121  0.8963 -0.4055
  132OSM   H11A14219   1.442   6.134   6.605 -0.6913  1.5302 -1.7024
  132OSM   H11B14220   1.518   5.968   6.607  0.2749 -0.4464 -1.9292
  132OSM      P14221   1.352   5.840   6.425  0.0682  0.0410 -0.1041
  132OSM    O1314222   1.247   5.840   6.317 -0.0600  0.1457  0.1774
  132OSM    O1414223   1.487   5.803   6.386 -0.3367 -0.3019 -0.5674
  132OSM    O1114224   1.304   5.738   6.534  0.3473 -0.5857  0.2638
  132OSM    O1214225   1.345   5.982   6.491 -0.4153  0.1084 -0.0578
  132OSM    C1S14226   1.339   5.748   6.667 -0.5501  0.1876 -0.4864
  132OSM    H1S14227   1.261   5.807   6.719 -0.2526 -1.9566  2.6758
  132OSM    H1T14228   1.441   5.792   6.675 -0.1577  0.1396 -3.7348
  132OSM     NF14229   1.376   5.622   6.882  0.0076 -0.1781  0.7155
  132OSM    HNF14230   1.474   5.613   6.899 -0.1912  1.0059  2.8817
  132OSM    C2S14231   1.344   5.602   6.737  0.7183 -0.5507  0.1197
  132OSM    H2S14232   1.240   5.568   6.719  0.8175  0.5160 -3.1842
  132OSM    C3S14233   1.442   5.509   6.664 -0.5184 -1.4460  0.1226
  132OSM    H3S14234   1.530   5.577   6.652 -1.0946 -0.3985  1.5100
  132OSM     O314235   1.394   5.466   6.536  0.1262 -0.0656 -0.2498
  132OSM    HO314236   1.337   5.541   6.518 -1.7185 -1.3549 -0.0123
  132OSM    C4S14237   1.496   5.390   6.743  0.0904 -0.1392 -0.1136
  132OSM    H4S14238   1.591   5.407   6.797  1.2074  1.5252 -2.3947
  132OSM    C5S14239   1.439   5.271   6.758  0.0363 -0.4444 -0.5177
  132OSM    H5S14240   1.339   5.258   6.714 -0.2208  3.5340 -1.5500
  132OSM    C6S14241   1.502   5.154   6.839 -0.3287 -0.2216 -0.2749
  132OSM    H6S14242   1.602   5.180   6.879 -1.0803  2.0707  0.2209
  132OSM    H6T14243   1.514   5.064   6.775  2.4483 -0.1065 -0.0274
  132OSM    C7S14244   1.412   5.122   6.963  0.2414 -0.7194 -0.0815
  132OSM    H7S14245   1.311   5.091   6.929  0.6753 -2.1032 -0.1743
  132OSM    H7T14246   1.401   5.217   7.018  0.5273 -0.1962 -0.9034
  132OSM    C8S14247   1.457   5.008   7.060 -0.6875 -0.0175 -0.2312
  132OSM    H8S14248   1.553   5.032   7.110 -1.2227  1.6432  0.0788
  132OSM    H8T14249   1.479   4.919   6.997 -0.3514  0.5304 -0.9127
  132OSM    C9S14250   1.354   4.981   7.171  0.3005 -0.0117  0.1275
  132OSM    H9S14251   1.288   4.896   7.145 -0.4643  0.0488  1.7638
  132OSM    H9T14252   1.287   5.057   7.217  1.5933  0.7295  0.8492
  132OSM   C10S14253   1.437   4.932   7.298 -0.3730  0.1536 -0.0115
  132OSM   H10S14254   1.526   4.999   7.305 -0.4460  0.3597 -0.9074
  132OSM   H10T14255   1.461   4.824   7.293 -0.0188  0.2081  0.4242
  132OSM   C11S14256   1.365   4.948   7.437 -0.0847 -0.8225  0.2632
  132OSM   H11S14257   1.262   4.906   7.432 -0.7212  0.6968  0.0992
  132OSM   H11T14258   1.359   5.058   7.451  0.4376 -0.3201 -2.8628
  132OSM   C12S14259   1.451   4.886   7.550 -0.6540 -0.2290 -0.0967
  132OSM   H12S14260   1.557   4.899   7.518 -1.4240 -0.2956 -2.9186
  132OSM   H12T14261   1.431   4.777   7.559 -3.4456 -0.0572 -2.5781
  132OSM   C13S14262   1.431   4.956   7.683  0.0423 -0.0419  0.1007
  132OSM   H13S14263   1.326   4.951   7.720  0.3998  0.2121  1.1828
  132OSM   H13T14264   1.459   5.061   7.659 -2.1019  0.1160 -2.1521
  132OSM   C14S14265   1.515   4.891   7.800  0.0118 -0.4789  0.6427
  132OSM   H14S14266   1.614   4.873   7.755 -0.2055 -0.5436  0.1797
  132OSM   H14T14267   1.481   4.789   7.831 -0.0751 -0.4615  0.6078
  132OSM   C15S14268   1.522   4.977   7.923 -0.4481 -0.0179  0.0817
  132OSM   H15S14269   1.426   4.957   7.975 -0.4219  0.3043  0.2577
  132OSM   H15T14270   1.513   5.085   7.898 -2.5593 -0.0762  0.4498
  132OSM   C16S14271   1.650   4.966   8.005 -0.2908 -1.0585  0.4252
  132OSM   H16S14272   1.638   5.036   8.090  1.7676 -0.2926  0.1575
  132OSM   H16T14273   1.735   4.997   7.939 -2.4822  1.8044 -1.3012
  132OSM   C17S14274   1.663   4.828   8.055  0.2542  0.3576 -0.0199
  132OSM   H17S14275   1.754   4.819   8.118 -0.7681 -0.5701  1.3750
  132OSM   H17T14276   1.687   4.757   7.973  1.4597 -0.2985  0.8747
  132OSM   C18S14277   1.545   4.765   8.144  0.0753  0.0175 -0.0947
  132OSM   H18S14278   1.531   4.656   8.129 -1.5061  0.2747 -0.6559
  132OSM   H18T14279   1.450   4.819   8.125 -0.8318 -1.1371  0.9616
  132OSM   H18U14280   1.574   4.777   8.251 -0.0548  0.6306 -0.1254
  132OSM    C1F14281   1.292   5.677   6.964 -0.4418 -0.0934 -0.8960
  132OSM     OF14282   1.176   5.702   6.937  0.2116 -0.0734  0.6698
  132OSM    C2F14283   1.346   5.718   7.098 -0.2821  0.0291 -0.0350
  132OSM    H2F14284   1.338   5.828   7.115  0.1385  0.2472 -1.1398
  132OSM    H2G14285   1.453   5.691   7.113 -0.2867 -0.8077 -1.3470
  132OSM    C3F14286   1.262   5.645   7.202  0.0091 -0.8030  0.3110
  132OSM    H3F14287   1.263   5.538   7.173 -1.3514 -1.5356  2.6919
  132OSM    H3G14288   1.158   5.684   7.208  0.5262  0.8163 -0.6336
  132OSM    C4F14289   1.302   5.668   7.349  1.2778  0.3824  0.9308
  132OSM    H4F14290   1.259   5.767   7.375 -2.3427 -0.4204 -1.1879
  132OSM    H4G14291   1.412   5.669   7.358  1.5015 -1.3404 -0.9483
  132OSM    C5F14292   1.234   5.562   7.443  0.6349 -0.0516  0.3056
  132OSM    H5F14293   1.249   5.462   7.397 -0.2877 -0.9103  1.7737
  132OSM    H5G14294   1.125   5.583   7.453  0.7700  1.5810 -1.2302
  132OSM    C6F14295   1.300   5.551   7.588  0.3499 -0.0714  0.3149
  132OSM    H6F14296   1.314   5.659   7.612  1.8716 -0.1867  0.0578
  132OSM    H6G14297   1.397   5.498   7.597  1.1454  1.4062  0.8986
  132OSM    C7F14298   1.200   5.473   7.687  0.0233 -0.4062  0.7532
  132OSM    H7F14299   1.204   5.370   7.646 -1.8242 -0.5247  0.7898
  132OSM    H7G14300   1.094   5.501   7.665 -0.9880 -1.6438  3.6215
  132OSM    C8F14301   1.244   5.483   7.835 -0.0110 -0.0658  0.6253
  132OSM    H8F14302   1.170   5.451   7.912 -0.3940  1.5456  0.9621
  132OSM    H8G14303   1.265   5.588   7.865 -0.9950  0.0920  0.7820
  132OSM    C9F14304   1.370   5.408   7.851 -0.1144  0.3054 -0.7040
  132OSM    H9F14305   1.423   5.385   7.757 -0.9166 -0.7808 -0.9030
  132OSM   C10F14306   1.418   5.360   7.975 -0.3201 -0.3395  0.4327
  132OSM   H10F14307   1.517   5.312   7.981  1.9274  3.5107 -1.7839
  132OSM   C11F14308   1.348   5.386   8.100  0.7634  0.0382 -0.4474
  132OSM   H11F14309   1.237   5.385   8.091  0.9162 -0.5255 -2.8231
  132OSM   H11G14310   1.383   5.482   8.144 -1.5688  0.3622  0.8521
  132OSM   C12F14311   1.387   5.281   8.209 -0.8216  0.2200  0.2325
  132OSM   H12F14312   1.495   5.273   8.231 -0.9273 -1.7887  0.2189
  132OSM   H12G14313   1.370   5.178   8.171 -0.6393  0.8734 -1.7261
  132OSM   C13F14314   1.320   5.296   8.346 -0.6266 -0.9037 -1.0255
  132OSM   H13F14315   1.211   5.314   8.328 -0.9051 -1.0672  0.3902
  132OSM   H13G14316   1.364   5.385   8.396 -0.9511 -0.4832 -1.4755
  132OSM   C14F14317   1.338   5.166   8.434  0.1166 -0.1993  0.3392
  132OSM   H14F14318   1.304   5.081   8.372 -0.7841 -1.2031  2.1436
  132OSM   H14G14319   1.271   5.178   8.521  0.0784 -0.2743  0.3197
  132OSM   C15F14320   1.468   5.150   8.503 -0.1327  0.2654 -0.3195
  132OSM   H15F14321   1.485   5.229   8.579  2.7904  0.1868 -0.7599
  132OSM   H15G14322   1.548   5.154   8.426  1.1914 -0.1800  0.9742
  132OSM   C16F14323   1.488   5.009   8.564 -0.0068 -0.4638 -0.2239
  132OSM   H16F14324   1.478   4.930   8.486 -0.7196  0.0411 -0.6574
  132OSM   H16G14325   1.402   5.000   8.633 -0.5279  2.4370 -0.3485
  132OSM   C17F14326   1.623   5.002   8.638 -0.5449  0.3152 -0.1836
  132OSM   H17F14327   1.619   5.063   8.731 -0.6126  0.4327 -0.2638
  132OSM   H17G14328   1.700   5.037   8.567 -0.2786 -0.5478 -0.3207
  132OSM   C18F14329   1.666   4.860   8.678  0.1879 -0.0315 -0.0779
  132OSM   H18F14330   1.601   4.812   8.753 -0.0041  0.5437  0.1311
  132OSM   H18G14331   1.768   4.870   8.720  0.1832 -2.7324  0.7103
  132OSM   H18H14332   1.689   4.795   8.591 -0.0686  2.9227 -2.5648
  133OSM      N14333   2.063   5.378   6.273 -0.3102 -0.2062  0.0575
  133OSM    C1514334   2.148   5.477   6.203 -0.1433  0.7275  0.3179
  133OSM   H15A14335   2.161   5.564   6.266  1.3522  0.2335  0.7391
  133OSM   H15B14336   2.105   5.510   6.109  0.5903  0.3336 -0.1704
  133OSM   H15C14337   2.251   5.449   6.186 -0.8853 -1.5185 -0.8925
  133OSM    C1414338   2.124   5.316   6.399 -0.9570  0.6203 -0.1360
  133OSM   H14A14339   2.135   5.396   6.471 -0.7916  0.0929  0.4249
  133OSM   H14B14340   2.215   5.260   6.382 -0.4511  0.6457  2.2112
  133OSM   H14C14341   2.048   5.250   6.437 -1.3216  1.0058 -0.1841
  133OSM    C1314342   1.934   5.438   6.317  0.2207 -0.0499  0.4835
  133OSM   H13A14343   1.864   5.369   6.361 -0.6432 -1.6906 -3.0242
  133OSM   H13B14344   1.881   5.469   6.228  0.4976  0.2973  0.4394
  133OSM   H13C14345   1.974   5.521   6.373  1.7586  0.0963 -0.7319
  133OSM    C1214346   2.035   5.266   6.179 -0.2193 -0.3424  0.1287
  133OSM   H12A14347   2.126   5.208   6.177 -0.6352 -1.3816  3.9791
  133OSM   H12B14348   2.017   5.309   6.082  1.5722  0.0628 -0.0518
  133OSM    C1114349   1.911   5.178   6.195 -0.5723 -0.3105 -0.4031
  133OSM   H11A14350   1.913   5.103   6.113 -0.4334 -0.7189 -0.0332
  133OSM   H11B14351   1.814   5.231   6.183 -0.4629  0.0592  0.3226
  133OSM      P14352   1.788   5.080   6.404 -0.1926  0.3688 -0.2053
  133OSM    O1314353   1.711   5.204   6.417  0.1448 -0.1770 -0.6382
  133OSM    O1414354   1.713   4.957   6.366 -0.0269 -0.1286  0.4951
  133OSM    O1114355   1.850   5.060   6.539  0.1090 -0.2576  0.7502
  133OSM    O1214356   1.912   5.106   6.315  0.1638 -0.3497  0.1961
  133OSM    C1S14357   1.956   4.975   6.568 -0.0523  0.6253 -0.8484
  133OSM    H1S14358   2.056   5.012   6.537  1.3154 -1.3593  0.8932
  133OSM    H1T14359   1.936   4.877   6.519 -0.8909 -0.0374  0.7248
  133OSM     NF14360   2.111   4.885   6.738 -0.6423  0.0764  0.4043
  133OSM    HNF14361   2.115   4.789   6.766  0.3771  0.3573  1.2893
  133OSM    C2S14362   1.979   4.958   6.717 -0.1080  0.5246 -0.1738
  133OSM    H2S14363   1.985   5.059   6.762  0.7664  1.0057 -1.3626
  133OSM    C3S14364   1.863   4.864   6.771 -0.3394  0.6292 -0.7563
  133OSM    H3S14365   1.877   4.762   6.730 -1.2252  0.7231 -1.3188
  133OSM     O314366   1.729   4.898   6.745  0.0927  0.5048  0.5179
  133OSM    HO314367   1.733   4.979   6.694 -2.7726 -0.2910 -1.2287
  133OSM    C4S14368   1.887   4.855   6.926 -0.2612  0.3155  0.1080
  133OSM    H4S14369   1.945   4.771   6.968 -0.2950  0.7650  1.0786
  133OSM    C5S14370   1.846   4.946   7.013  0.1424  0.3733 -0.0329
  133OSM    H5S14371   1.786   5.030   6.976 -0.8972 -0.8297 -1.2257
  133OSM    C6S14372   1.865   4.945   7.163  0.3133 -0.3227  0.0607
  133OSM    H6S14373   1.782   4.880   7.200  1.2458 -1.9447 -0.6371
  133OSM    H6T14374   1.836   5.043   7.208 -1.4404 -1.0597  0.6387
  133OSM    C7S14375   1.996   4.904   7.225  0.2433  0.5340 -0.1760
  133OSM    H7S14376   2.080   4.962   7.181  0.4670 -0.8595 -1.7125
  133OSM    H7T14377   2.016   4.796   7.208  1.1738  0.4955  1.0901
  133OSM    C8S14378   2.012   4.925   7.377  0.3516  0.2266  0.1059
  133OSM    H8S14379   1.973   5.024   7.410  0.4010  0.5698 -0.8318
  133OSM    H8T14380   2.113   4.916   7.423  1.3596  2.1497 -1.5800
  133OSM    C9S14381   1.921   4.822   7.448 -0.2165 -0.0704  0.0276
  133OSM    H9S14382   1.946   4.716   7.428  0.4345 -0.3077  1.8689
  133OSM    H9T14383   1.817   4.838   7.413 -0.5454  1.4021  1.5321
  133OSM   C10S14384   1.911   4.838   7.597  0.1397 -0.0434 -0.2352
  133OSM   H10S14385   1.839   4.761   7.630  0.5357 -0.0143  0.7335
  133OSM   H10T14386   1.865   4.938   7.616  0.2526  0.4697 -2.3340
  133OSM   C11S14387   2.040   4.814   7.666  0.4754 -0.7085 -0.5835
  133OSM   H11S14388   2.094   4.911   7.658  1.0520 -1.0155 -0.4885
  133OSM   H11T14389   2.109   4.737   7.626  1.1921  0.4484 -1.6397
  133OSM   C12S14390   2.004   4.806   7.815 -0.0054  0.3339  0.4940
  133OSM   H12S14391   1.958   4.708   7.842 -0.8783  0.0260 -1.9053
  133OSM   H12T14392   1.928   4.883   7.840 -0.7736 -0.5871  1.0408
  133OSM   C13S14393   2.129   4.824   7.905  0.3724  0.1745 -0.9440
  133OSM   H13S14394   2.148   4.933   7.894 -1.0968  0.8767  2.1887
  133OSM   H13T14395   2.214   4.766   7.863 -0.6990 -2.2057  0.0025
  133OSM   C14S14396   2.108   4.785   8.052 -0.5222 -0.5647  0.2530
  133OSM   H14S14397   2.007   4.825   8.075 -0.7462  0.2227 -1.9066
  133OSM   H14T14398   2.181   4.852   8.102  2.4344 -1.4966 -2.4764
  133OSM   C15S14399   2.101   4.629   8.079 -0.1273  0.0748  0.8469
  133OSM   H15S14400   2.200   4.589   8.048 -0.2783  1.8595 -2.4791
  133OSM   H15T14401   2.033   4.576   8.009  0.5934  0.8606 -0.5083
  133OSM   C16S14402   2.076   4.592   8.224  0.5127  0.1637  0.3693
  133OSM   H16S14403   2.168   4.622   8.279 -0.4676  0.7980  1.7152
  133OSM   H16T14404   2.066   4.482   8.225 -3.1234  0.3894  0.0475
  133OSM   C17S14405   1.946   4.645   8.286  0.8695 -0.1425  0.8553
  133OSM   H17S14406   1.870   4.647   8.205  1.3044  2.4797  0.4413
  133OSM   H17T14407   1.964   4.753   8.306  1.1341  0.0827 -0.4774
  133OSM   C18S14408   1.865   4.572   8.399 -0.1774 -0.3683  0.1173
  133OSM   H18S14409   1.762   4.611   8.414 -0.9415 -0.6675 -3.3474
  133OSM   H18T14410   1.910   4.575   8.500  1.3368  0.1230 -0.5468
  133OSM   H18U14411   1.859   4.463   8.382 -2.5700 -0.9236  3.4749
  133OSM    C1F14412   2.222   4.958   6.724 -1.0855  0.3666 -0.0003
  133OSM     OF14413   2.222   5.075   6.691  0.1948 -0.1775  0.2832
  133OSM    C2F14414   2.355   4.895   6.762 -0.6283 -0.0108 -0.4806
  133OSM    H2F14415   2.409   4.890   6.665 -2.0863 -0.8650 -1.2916
  133OSM    H2G14416   2.345   4.794   6.809  2.0955 -1.4363 -2.6545
  133OSM    C3F14417   2.412   4.989   6.871  0.5527  0.2990  0.4788
  133OSM    H3F14418   2.417   5.094   6.834 -0.8740 -0.3878 -1.8510
  133OSM    H3G14419   2.521   4.969   6.874  0.2567 -1.3552  2.6225
  133OSM    C4F14420   2.368   4.963   7.013  0.5794  0.6352  0.4266
  133OSM    H4F14421   2.394   4.856   7.031  1.8415  0.9625  0.6724
  133OSM    H4G14422   2.260   4.980   7.032  0.1232 -0.0273 -1.3534
  133OSM    C5F14423   2.449   5.053   7.111  1.0556  0.0370  1.2856
  133OSM    H5F14424   2.426   5.159   7.085  1.7948  0.1367  1.0000
  133OSM    H5G14425   2.556   5.031   7.090  0.3607 -1.8308 -0.7256
  133OSM    C6F14426   2.413   5.028   7.259 -0.5982  0.6172  0.4217
  133OSM    H6F14427   2.411   4.924   7.298 -0.4838 -0.2768 -1.8045
  133OSM    H6G14428   2.305   5.052   7.274 -0.3838  0.4515  2.5369
  133OSM    C7F14429   2.491   5.123   7.352  0.7237  0.5628 -0.0150
  133OSM    H7F14430   2.462   5.228   7.331 -0.6170  0.3805  0.7896
  133OSM    H7G14431   2.596   5.126   7.317  1.4747  0.4745  2.1018
  133OSM    C8F14432   2.482   5.088   7.502 -0.3298 -0.0014 -0.5564
  133OSM    H8F14433   2.544   5.152   7.567  0.1421 -1.3722  0.3951
  133OSM    H8G14434   2.515   4.982   7.515 -1.6732 -0.3371  0.3697
  133OSM    C9F14435   2.347   5.090   7.558 -0.0217  0.0393 -0.2588
  133OSM    H9F14436   2.271   5.076   7.480  0.4398  0.0704 -0.7145
  133OSM   C10F14437   2.302   5.110   7.680  0.7918 -0.5150 -0.3243
  133OSM   H10F14438   2.195   5.109   7.705  0.6639  0.5594 -0.7751
  133OSM   C11F14439   2.390   5.134   7.801 -0.5080 -0.2186  0.4679
  133OSM   H11F14440   2.485   5.077   7.792 -1.6848 -2.2483  0.0886
  133OSM   H11G14441   2.346   5.075   7.885  2.7143 -0.9925  1.7537
  133OSM   C12F14442   2.401   5.276   7.851 -0.6235 -0.5923  0.1160
  133OSM   H12F14443   2.308   5.333   7.830 -0.9729 -0.8836  0.8279
  133OSM   H12G14444   2.489   5.325   7.804 -0.0449  0.2940  2.0186
  133OSM   C13F14445   2.434   5.289   8.004 -0.0253 -0.8036  0.3812
  133OSM   H13F14446   2.534   5.249   8.030  0.8108  1.9742  1.8379
  133OSM   H13G14447   2.353   5.233   8.057 -0.0763 -0.5099  0.6152
  133OSM   C14F14448   2.426   5.432   8.060 -0.6745 -0.2033  0.0360
  133OSM   H14F14449   2.333   5.473   8.017 -0.3145  0.5770 -0.0142
  133OSM   H14G14450   2.505   5.503   8.027 -2.4748  1.5062 -0.7726
  133OSM   C15F14451   2.417   5.426   8.214 -0.1749  0.5606 -0.0645
  133OSM   H15F14452   2.512   5.387   8.256 -0.1891  1.9408  1.3351
  133OSM   H15G14453   2.338   5.354   8.245 -0.5637  1.5839  1.4342
  133OSM   C16F14454   2.410   5.559   8.290 -0.6534 -0.4442 -0.4390
  133OSM   H16F14455   2.485   5.629   8.247  0.3359 -0.3479  1.3435
  133OSM   H16G14456   2.429   5.540   8.397 -0.8869  0.3922 -0.2377
  133OSM   C17F14457   2.266   5.613   8.289 -0.5177 -0.2340 -0.4469
  133OSM   H17F14458   2.198   5.535   8.329 -1.3001 -1.3630 -3.7365
  133OSM   H17G14459   2.247   5.637   8.183 -1.4785 -2.2916 -0.7724
  133OSM   C18F14460   2.242   5.740   8.361 -0.4540  0.2544 -0.2908
  133OSM   H18F14461   2.333   5.803   8.369  1.0086 -1.9867  3.0836
  133OSM   H18G14462   2.208   5.726   8.466 -0.4410  1.2165 -0.1551
  133OSM   H18H14463   2.162   5.803   8.317 -1.8222 -1.0465  0.2287
  134OSM      N14464   4.367   2.615   6.138 -0.3136  0.1820 -0.2306
  134OSM    C1514465   4.335   2.744   6.210  0.3282  0.5348 -0.2841
  134OSM   H15A14466   4.274   2.806   6.147 -2.5757 -0.4098  1.3769
  134OSM   H15B14467   4.421   2.804   6.236 -0.6444  2.2184 -0.8513
  134OSM   H15C14468   4.272   2.722   6.295 -0.2532  1.6187 -0.4280
  134OSM    C1414469   4.239   2.547   6.115 -0.5779  0.0229  1.0230
  134OSM   H14A14470   4.216   2.477   6.194  1.0700 -2.1344 -0.3026
  134OSM   H14B14471   4.251   2.482   6.030  0.6266  0.4623  0.8344
  134OSM   H14C14472   4.158   2.617   6.102 -0.9965 -0.8827 -1.9029
  134OSM    C1314473   4.426   2.642   6.009 -0.2343  0.4124  0.5230
  134OSM   H13A14474   4.515   2.702   6.021  0.7807 -0.9747  0.2486
  134OSM   H13B14475   4.357   2.704   5.954  1.4947  2.4939  0.5427
  134OSM   H13C14476   4.464   2.557   5.953 -0.6958  1.2451 -1.1237
  134OSM    C1214477   4.466   2.525   6.209  0.2793 -0.1801  0.4388
  134OSM   H12A14478   4.558   2.580   6.214  0.4581  0.1577 -3.3440
  134OSM   H12B14479   4.477   2.422   6.177 -1.7649 -0.5905  0.8817
  134OSM    C1114480   4.431   2.489   6.356 -0.3617 -0.6202  0.0696
  134OSM   H11A14481   4.408   2.581   6.415  0.7536 -0.9989  1.1335
  134OSM   H11B14482   4.527   2.454   6.400  0.7650  1.1738 -0.8340
  134OSM      P14483   4.198   2.395   6.442 -0.4264 -0.1258 -0.3822
  134OSM    O1314484   4.145   2.532   6.430  0.0733  0.3554  0.0085
  134OSM    O1414485   4.103   2.297   6.388  0.0685  0.6481 -0.2440
  134OSM    O1114486   4.250   2.350   6.586  0.0438 -0.1884  0.5564
  134OSM    O1214487   4.329   2.391   6.352  0.7235 -0.1627  0.5441
  134OSM    C1S14488   4.250   2.437   6.694 -0.3598  0.0252 -0.1889
  134OSM    H1S14489   4.159   2.501   6.695  0.6127  1.6155 -2.8805
  134OSM    H1T14490   4.334   2.510   6.692  1.2537 -1.6860  1.5763
  134OSM     NF14491   4.261   2.473   6.932 -0.4432  0.0117 -0.8634
  134OSM    HNF14492   4.343   2.518   6.969 -1.6515  2.5617 -1.0814
  134OSM    C2S14493   4.264   2.364   6.833  0.1158 -1.0791 -0.1327
  134OSM    H2S14494   4.182   2.292   6.856 -0.5661  0.6350  3.6229
  134OSM    C3S14495   4.397   2.286   6.833  0.4181 -0.1247  0.0047
  134OSM    H3S14496   4.479   2.354   6.800 -0.9459  0.4113 -2.4526
  134OSM     O314497   4.417   2.183   6.733  0.1630 -0.2002  0.2942
  134OSM    HO314498   4.352   2.213   6.670 -1.0854 -0.3915  1.4590
  134OSM    C4S14499   4.427   2.226   6.966  0.1062 -0.5733  0.0777
  134OSM    H4S14500   4.353   2.149   6.992  0.0750 -0.3426  0.6904
  134OSM    C5S14501   4.532   2.247   7.041  0.2528  0.6270  0.4588
  134OSM    H5S14502   4.606   2.318   7.000 -1.3284  1.7669 -0.5637
  134OSM    C6S14503   4.551   2.182   7.173  0.1524  0.4701 -0.4619
  134OSM    H6S14504   4.644   2.123   7.162 -0.2693 -0.2786 -0.0728
  134OSM    H6T14505   4.469   2.113   7.200  1.3914 -0.3372  1.4445
  134OSM    C7S14506   4.562   2.279   7.296  0.5288 -0.2703  0.2073
  134OSM    H7S14507   4.569   2.222   7.391 -0.1857 -0.0672  0.3880
  134OSM    H7T14508   4.464   2.331   7.311  0.5868 -0.3766  0.9543
  134OSM    C8S14509   4.663   2.393   7.290 -0.8343 -0.5188  0.7664
  134OSM    H8S14510   4.635   2.454   7.201 -4.2262 -0.8028  1.5282
  134OSM    H8T14511   4.764   2.351   7.268 -0.3786  0.4818  0.8858
  134OSM    C9S14512   4.663   2.484   7.411 -0.0443 -0.2398  0.7724
  134OSM    H9S14513   4.560   2.522   7.427 -0.1714 -0.8944  1.6377
  134OSM    H9T14514   4.734   2.569   7.410  0.4619 -0.4032  4.7625
  134OSM   C10S14515   4.692   2.409   7.542 -0.4609  0.5267 -0.1163
  134OSM   H10S14516   4.786   2.350   7.534  0.0644  1.2790  0.3192
  134OSM   H10T14517   4.615   2.331   7.561  0.7721 -0.6149  0.3408
  134OSM   C11S14518   4.720   2.501   7.670  0.1045  0.3960  0.0825
  134OSM   H11S14519   4.623   2.553   7.687 -0.1949 -0.0851 -0.1151
  134OSM   H11T14520   4.794   2.572   7.628  0.6607 -0.6924 -0.8334
  134OSM   C12S14521   4.773   2.430   7.793 -0.2587 -0.5556 -0.0288
  134OSM   H12S14522   4.870   2.377   7.779  1.4995  0.7168  5.0709
  134OSM   H12T14523   4.687   2.371   7.831  0.5282 -0.8244  1.3991
  134OSM   C13S14524   4.802   2.532   7.904  0.1528 -0.2008  0.6516
  134OSM   H13S14525   4.717   2.602   7.918  1.7762  1.5949  1.9182
  134OSM   H13T14526   4.884   2.603   7.880  0.7510 -1.1993 -0.3694
  134OSM   C14S14527   4.825   2.466   8.040 -0.2335 -0.6056 -0.0366
  134OSM   H14S14528   4.919   2.411   8.020  0.3030  0.6654 -1.2412
  134OSM   H14T14529   4.741   2.395   8.051 -1.9659  1.2545 -0.4858
  134OSM   C15S14530   4.830   2.574   8.147 -0.6165 -0.5872 -0.1794
  134OSM   H15S14531   4.734   2.624   8.170  0.5298  1.0163  1.4030
  134OSM   H15T14532   4.887   2.662   8.111  0.2714 -0.7370  0.7917
  134OSM   C16S14533   4.908   2.520   8.272  0.1685 -0.3432 -0.0485
  134OSM   H16S14534   5.012   2.507   8.233  0.5127  2.4364 -0.2330
  134OSM   H16T14535   4.865   2.421   8.297 -2.4556 -0.2732 -3.4848
  134OSM   C17S14536   4.908   2.613   8.391 -0.6341 -0.2326 -0.1030
  134OSM   H17S14537   4.906   2.719   8.357 -0.8207 -0.7338 -1.6956
  134OSM   H17T14538   5.000   2.597   8.452 -1.1903  0.9657  1.1198
  134OSM   C18S14539   4.794   2.587   8.484 -0.3119 -0.5332  0.2562
  134OSM   H18S14540   4.776   2.671   8.554  0.1107 -0.0387 -0.2207
  134OSM   H18T14541   4.801   2.491   8.540  0.1612 -1.0215 -0.6204
  134OSM   H18U14542   4.709   2.586   8.413  0.5240 -1.8586 -0.7750
  134OSM    C1F14543   4.140   2.517   6.970 -0.5574 -0.0311  0.1676
  134OSM     OF14544   4.040   2.482   6.909  0.0220  0.0995  0.3520
  134OSM    C2F14545   4.138   2.607   7.094 -0.2889 -0.6675  0.1317
  134OSM    H2F14546   4.146   2.710   7.054 -0.5480  0.0090  1.7211
  134OSM    H2G14547   4.225   2.570   7.153  1.5606  0.9853 -1.3852
  134OSM    C3F14548   4.006   2.582   7.167  0.2225  0.1201  0.4767
  134OSM    H3F14549   4.025   2.481   7.210  0.8829  0.8610  2.0384
  134OSM    H3G14550   3.915   2.575   7.105 -1.6098 -0.9905  3.1122
  134OSM    C4F14551   3.989   2.674   7.290  0.2650  0.4710  0.0843
  134OSM    H4F14552   3.984   2.779   7.256  2.0389  1.0662  1.4907
  134OSM    H4G14553   4.085   2.655   7.344 -0.3473 -2.7889  0.2526
  134OSM    C5F14554   3.873   2.636   7.373  0.0314  0.0961  0.0413
  134OSM    H5F14555   3.882   2.630   7.483 -0.4736  1.0254  0.1453
  134OSM    H5G14556   3.850   2.532   7.343 -1.6485  1.3105 -3.4626
  134OSM    C6F14557   3.743   2.707   7.329  0.3680  0.0610  0.0551
  134OSM    H6F14558   3.651   2.653   7.361  1.3962 -2.5600 -1.0856
  134OSM    H6G14559   3.741   2.738   7.223  4.4010  0.1553 -0.1312
  134OSM    C7F14560   3.724   2.840   7.411  0.0336  0.0471 -0.0229
  134OSM    H7F14561   3.635   2.889   7.366 -0.6653 -0.7555  0.4557
  134OSM    H7G14562   3.818   2.900   7.404 -0.4564  0.8427  0.1485
  134OSM    C8F14563   3.691   2.830   7.561 -0.1964  0.0755  0.0475
  134OSM    H8F14564   3.782   2.815   7.623 -0.9604 -2.6170  0.6541
  134OSM    H8G14565   3.615   2.751   7.576 -1.8057  1.5771  0.1524
  134OSM    C9F14566   3.635   2.967   7.602  0.2365 -0.2395  1.0344
  134OSM    H9F14567   3.626   3.046   7.527 -1.1165  0.2657  1.7014
  134OSM   C10F14568   3.587   2.999   7.721 -0.0336 -0.6137  0.0541
  134OSM   H10F14569   3.557   3.104   7.735 -1.2783 -0.9648  0.1408
  134OSM   C11F14570   3.591   2.924   7.849  0.2567  0.0323  0.0466
  134OSM   H11F14571   3.622   2.818   7.838  0.5714 -0.0107  1.2535
  134OSM   H11G14572   3.482   2.910   7.864 -0.1015  0.7119 -1.6585
  134OSM   C12F14573   3.676   2.983   7.963 -0.4578 -0.5655  0.1413
  134OSM   H12F14574   3.621   3.056   8.026  1.7640  0.2654  1.1987
  134OSM   H12G14575   3.753   3.036   7.903 -2.2933  1.1594 -0.8438
  134OSM   C13F14576   3.749   2.881   8.063 -0.4979  0.1302  0.8797
  134OSM   H13F14577   3.813   2.953   8.119 -0.3909  0.5550  0.2291
  134OSM   H13G14578   3.810   2.813   7.999  0.3751  1.8975 -0.2572
  134OSM   C14F14579   3.653   2.803   8.156  0.1825 -0.7399 -0.3352
  134OSM   H14F14580   3.715   2.725   8.205  0.6177 -1.4301 -1.9499
  134OSM   H14G14581   3.563   2.761   8.106 -1.3232  1.0536  0.7296
  134OSM   C15F14582   3.590   2.896   8.269 -0.2237 -0.1246  0.1645
  134OSM   H15F14583   3.509   2.834   8.314 -0.8166 -0.6346 -1.5136
  134OSM   H15G14584   3.540   2.992   8.243 -1.1022 -1.1340 -2.2102
  134OSM   C16F14585   3.693   2.926   8.377 -0.3901 -0.2655  0.8568
  134OSM   H16F14586   3.670   3.021   8.428 -1.9373  0.0309 -0.3354
  134OSM   H16G14587   3.788   2.942   8.322 -1.1190 -2.3442 -1.1824
  134OSM   C17F14588   3.715   2.814   8.479  0.1317  0.2304  0.0518
  134OSM   H17F14589   3.735   2.718   8.427  0.6812  0.7374 -0.7003
  134OSM   H17G14590   3.627   2.811   8.547 -0.2395  1.2642 -0.3517
  134OSM   C18F14591   3.839   2.852   8.563  0.0651  0.5064 -0.6687
  134OSM   H18F14592   3.846   2.771   8.639 -4.0112  0.5375 -0.0432
  134OSM   H18G14593   3.817   2.947   8.618 -1.3539 -1.0609  1.6269
  134OSM   H18H14594   3.933   2.865   8.505  0.7362 -1.0088  0.0535
  135OSM      N14595   3.152   2.469   6.477 -0.2716  0.4170  0.4945
  135OSM    C1514596   3.180   2.327   6.447 -0.3155  1.0499 -0.1681
  135OSM   H15A14597   3.188   2.311   6.340 -0.1637 -0.2652  0.0292
  135OSM   H15B14598   3.104   2.259   6.483  1.4651 -0.5809  0.6824
  135OSM   H15C14599   3.276   2.295   6.485  0.1706 -0.4948 -2.4688
  135OSM    C1414600   3.025   2.512   6.414  0.2635 -0.8253 -0.0972
  135OSM   H14A14601   2.930   2.476   6.448  0.9098 -0.6303  2.0379
  135OSM   H14B14602   3.028   2.503   6.306  0.2958  2.1863 -0.4505
  135OSM   H14C14603   3.021   2.618   6.437  0.4777 -1.3243  2.4908
  135OSM    C1314604   3.150   2.480   6.631 -0.1924 -0.4802 -0.0614
  135OSM   H13A14605   3.241   2.449   6.680  1.0965 -1.1881 -2.7339
  135OSM   H13B14606   3.068   2.422   6.672  0.6916 -1.8336 -0.1555
  135OSM   H13C14607   3.134   2.584   6.655  0.0659 -0.7044  1.1495
  135OSM    C1214608   3.275   2.545   6.422 -0.2106 -0.4131  0.7702
  135OSM   H12A14609   3.242   2.646   6.407  1.0013 -0.2464 -1.0979
  135OSM   H12B14610   3.310   2.509   6.326  2.2014  1.4195  0.8759
  135OSM    C1114611   3.414   2.524   6.498 -0.6301 -0.2771  0.9602
  135OSM   H11A14612   3.401   2.580   6.594 -0.9310  0.2785  0.6040
  135OSM   H11B14613   3.497   2.581   6.451 -1.9656  0.9091 -0.0740
  135OSM      P14614   3.541   2.328   6.405 -0.1146  0.3425  0.0864
  135OSM    O1314615   3.485   2.196   6.374  0.0516 -0.0141  0.4414
  135OSM    O1414616   3.545   2.419   6.285 -0.2041 -0.3745  0.5930
  135OSM    O1114617   3.682   2.311   6.475 -0.6246 -0.7201 -0.5220
  135OSM    O1214618   3.452   2.387   6.518 -0.4705 -0.6603 -0.3359
  135OSM    C1S14619   3.771   2.414   6.534  0.8015  0.0039 -0.5184
  135OSM    H1S14620   3.738   2.514   6.498 -1.4916 -1.1695 -1.8721
  135OSM    H1T14621   3.875   2.389   6.504  1.0024  0.9177 -0.6129
  135OSM     NF14622   3.828   2.546   6.735 -0.3171  0.4702  1.0032
  135OSM    HNF14623   3.917   2.527   6.777 -0.1060 -1.7008 -0.3043
  135OSM    C2S14624   3.755   2.430   6.689  0.3092  0.4624  0.1460
  135OSM    H2S14625   3.647   2.446   6.705  0.2264  0.2281 -0.1527
  135OSM    C3S14626   3.792   2.285   6.748 -0.6216 -0.4341 -0.4165
  135OSM    H3S14627   3.895   2.255   6.720 -0.1923  0.6779 -0.0716
  135OSM     O314628   3.702   2.177   6.708  0.3296  0.3875  0.1508
  135OSM    HO314629   3.652   2.214   6.634 -0.3171  0.0845  0.4339
  135OSM    C4S14630   3.800   2.292   6.898 -0.3880  0.2057 -0.8576
  135OSM    H4S14631   3.907   2.302   6.922  0.2988 -3.7925 -1.5801
  135OSM    C5S14632   3.707   2.288   6.996  0.4975 -0.2267  0.4230
  135OSM    H5S14633   3.602   2.293   6.962  0.3977  1.1404  0.8463
  135OSM    C6S14634   3.733   2.290   7.138  0.1771 -0.3308 -0.2323
  135OSM    H6S14635   3.668   2.372   7.174 -2.1694 -1.5615 -1.4497
  135OSM    H6T14636   3.843   2.302   7.154  0.3517 -0.3033 -1.3354
  135OSM    C7S14637   3.675   2.168   7.204 -0.1158  0.1095 -0.2049
  135OSM    H7S14638   3.757   2.094   7.192  0.1984  0.4691 -0.2917
  135OSM    H7T14639   3.591   2.121   7.148 -0.8855  0.6742  0.4548
  135OSM    C8S14640   3.617   2.191   7.344 -0.3032  0.0109  0.3773
  135OSM    H8S14641   3.580   2.095   7.385 -0.1475  0.8242  2.5631
  135OSM    H8T14642   3.524   2.248   7.326  0.0342  0.6629  0.6504
  135OSM    C9S14643   3.708   2.252   7.454  0.1275 -0.4518  0.7144
  135OSM    H9S14644   3.739   2.353   7.422 -1.6533 -0.4614 -1.2964
  135OSM    H9T14645   3.796   2.186   7.468  1.4363  1.2499  0.8000
  135OSM   C10S14646   3.628   2.278   7.587  0.4912 -0.4139  0.3580
  135OSM   H10S14647   3.585   2.181   7.620 -1.2465 -0.0348 -0.6830
  135OSM   H10T14648   3.541   2.344   7.567  0.7784 -0.6660 -1.9959
  135OSM   C11S14649   3.711   2.341   7.707  0.3914 -0.7332 -0.2281
  135OSM   H11S14650   3.745   2.441   7.675 -3.0470  0.0529 -1.9854
  135OSM   H11T14651   3.808   2.291   7.725  0.5119 -1.0959 -1.7621
  135OSM   C12S14652   3.637   2.371   7.838  0.3670 -0.6622 -0.1545
  135OSM   H12S14653   3.609   2.279   7.893  2.1881  0.1020  2.2379
  135OSM   H12T14654   3.545   2.432   7.829  0.9050  0.5395  1.8023
  135OSM   C13S14655   3.717   2.450   7.931 -0.1413  0.5284  0.2800
  135OSM   H13S14656   3.659   2.486   8.018 -2.4310  0.0194 -0.9475
  135OSM   H13T14657   3.744   2.542   7.873  2.2611 -0.3954 -0.1668
  135OSM   C14S14658   3.836   2.378   7.996 -0.0116  0.1181  0.2809
  135OSM   H14S14659   3.890   2.454   8.057 -0.0198  2.4329 -2.3854
  135OSM   H14T14660   3.902   2.339   7.915 -0.0710  0.8138 -0.1174
  135OSM   C15S14661   3.792   2.270   8.092  0.7160  0.1790  0.0274
  135OSM   H15S14662   3.882   2.207   8.110  0.6091  0.2496  0.8243
  135OSM   H15T14663   3.722   2.205   8.035  0.9421  0.6727 -0.8315
  135OSM   C16S14664   3.734   2.315   8.227  0.7867 -1.5114  0.5685
  135OSM   H16S14665   3.636   2.368   8.219  0.8965 -1.2373  0.9812
  135OSM   H16T14666   3.807   2.389   8.267 -2.5686  1.7171  1.2774
  135OSM   C17S14667   3.717   2.210   8.331 -0.0401 -0.3221  0.2150
  135OSM   H17S14668   3.816   2.168   8.357  0.1775 -0.4047 -0.7053
  135OSM   H17T14669   3.657   2.130   8.283  0.4610  0.9850 -2.8505
  135OSM   C18S14670   3.644   2.253   8.465 -0.4406  0.4709 -0.3902
  135OSM   H18S14671   3.659   2.174   8.541  4.3424 -0.5642 -2.0698
  135OSM   H18T14672   3.539   2.281   8.440 -0.4397 -0.6709 -1.8159
  135OSM   H18U14673   3.684   2.353   8.494 -2.7654  1.0334  1.2153
  135OSM    C1F14674   3.786   2.672   6.718 -0.2634 -0.2138  0.1917
  135OSM     OF14675   3.673   2.703   6.681 -0.0126 -1.3624 -0.3603
  135OSM    C2F14676   3.885   2.774   6.739 -0.5206 -0.3857  0.3730
  135OSM    H2F14677   3.929   2.809   6.644  0.6864  0.2160  1.1313
  135OSM    H2G14678   3.976   2.735   6.789  0.1911 -0.2610 -0.7977
  135OSM    C3F14679   3.827   2.903   6.809 -0.6837  0.1246 -0.3455
  135OSM    H3F14680   3.744   2.934   6.742 -0.4659 -0.8027 -1.0470
  135OSM    H3G14681   3.896   2.990   6.795  0.9357 -0.9893  0.4443
  135OSM    C4F14682   3.765   2.900   6.951  0.4257 -0.1226  0.0048
  135OSM    H4F14683   3.846   2.888   7.026 -0.1643 -0.3925  0.6028
  135OSM    H4G14684   3.696   2.813   6.946 -0.7432  0.8305 -1.6077
  135OSM    C5F14685   3.685   3.027   6.975 -0.5953 -0.0300 -0.8059
  135OSM    H5F14686   3.629   3.046   6.880  0.4789  1.1734 -1.2334
  135OSM    H5G14687   3.760   3.108   6.991  2.0805 -2.4876 -0.0076
  135OSM    C6F14688   3.577   3.022   7.083 -0.2438  0.0781 -0.1626
  135OSM    H6F14689   3.612   3.000   7.186  0.8023 -2.3266 -0.9746
  135OSM    H6G14690   3.505   2.943   7.051 -1.4966  1.0462  0.1517
  135OSM    C7F14691   3.491   3.153   7.088  0.2513  0.7412 -0.0157
  135OSM    H7F14692   3.445   3.184   6.992 -1.3520  1.6772  0.9976
  135OSM    H7G14693   3.561   3.237   7.108  0.5800  0.6390 -0.7259
  135OSM    C8F14694   3.374   3.143   7.191  0.0525 -0.6337  0.1766
  135OSM    H8F14695   3.419   3.137   7.293  0.4232 -0.5601  0.0213
  135OSM    H8G14696   3.321   3.046   7.181 -2.6193  0.7689  0.0237
  135OSM    C9F14697   3.272   3.257   7.175 -0.1570 -0.0870 -0.0040
  135OSM    H9F14698   3.266   3.297   7.072 -0.1988 -2.0338 -0.8071
  135OSM   C10F14699   3.195   3.300   7.275 -0.0911  0.2163  1.0816
  135OSM   H10F14700   3.119   3.378   7.257  0.0966  0.2247  0.2732
  135OSM   C11F14701   3.193   3.249   7.419  0.3055 -0.9319 -0.1445
  135OSM   H11F14702   3.196   3.138   7.417 -2.5216 -1.0983  0.7514
  135OSM   H11G14703   3.097   3.265   7.471 -0.2372 -1.2038 -1.0383
  135OSM   C12F14704   3.306   3.301   7.506 -0.7491  0.2616 -0.2408
  135OSM   H12F14705   3.292   3.411   7.512 -1.6508  0.2579 -1.7292
  135OSM   H12G14706   3.404   3.280   7.458 -0.5088  1.7398 -0.4356
  135OSM   C13F14707   3.304   3.243   7.650  0.2874  0.1411 -0.1652
  135OSM   H13F14708   3.400   3.291   7.680  1.3961 -1.0299 -1.6758
  135OSM   H13G14709   3.311   3.134   7.630  1.0136  0.1378  0.0809
  135OSM   C14F14710   3.179   3.286   7.737 -0.4061  0.1266  0.9427
  135OSM   H14F14711   3.089   3.242   7.689 -0.1226  1.4302 -0.9252
  135OSM   H14G14712   3.175   3.397   7.735 -0.6649  0.1172  0.8745
  135OSM   C15F14713   3.195   3.260   7.884 -0.4679 -0.0419 -1.0515
  135OSM   H15F14714   3.125   3.328   7.937 -1.1612 -1.7141  0.2688
  135OSM   H15G14715   3.295   3.295   7.916 -0.8809  0.6247 -0.4578
  135OSM   C16F14716   3.184   3.117   7.934 -0.1606 -0.4936  0.6290
  135OSM   H16F14717   3.271   3.068   7.885 -0.5942 -0.0552 -0.6025
  135OSM   H16G14718   3.096   3.072   7.883 -1.6156  0.6423  2.0641
  135OSM   C17F14719   3.193   3.094   8.084  0.2752  0.1158 -0.4422
  135OSM   H17F14720   3.120   3.157   8.139 -0.1145 -0.4523 -0.2998
  135OSM   H17G14721   3.294   3.131   8.111 -0.0437  2.5302 -2.1638
  135OSM   C18F14722   3.171   2.951   8.132  0.5680  0.1499  0.5453
  135OSM   H18F14723   3.252   2.892   8.085  0.2193  1.4164 -1.8314
  135OSM   H18G14724   3.071   2.920   8.095  0.3126 -0.5064  1.7460
  135OSM   H18H14725   3.173   2.949   8.243 -0.9704  0.9813  0.6196
  136OSM      N14726   1.956   4.299   5.892  0.6256 -0.1212  0.3654
  136OSM    C1514727   1.824   4.283   5.831 -0.5908  0.8063  0.2784
  136OSM   H15A14728   1.810   4.179   5.808 -1.1467  1.2415 -1.4467
  136OSM   H15B14729   1.810   4.336   5.738 -2.2965 -1.7811 -1.0429
  136OSM   H15C14730   1.739   4.302   5.895 -2.2332 -1.3436 -1.1449
  136OSM    C1414731   2.060   4.242   5.802  0.6217 -0.3901  0.4473
  136OSM   H14A14732   2.080   4.306   5.717  1.7549 -0.9473  0.2746
  136OSM   H14B14733   2.039   4.143   5.766  0.9635  0.4292 -2.2599
  136OSM   H14C14734   2.156   4.236   5.851  0.4988  0.3434  0.7931
  136OSM    C1314735   1.992   4.443   5.921  0.0231 -0.3618 -0.8134
  136OSM   H13A14736   1.992   4.501   5.830 -1.1272  0.1501 -0.5005
  136OSM   H13B14737   2.086   4.447   5.975  0.4342  0.1551 -1.5562
  136OSM   H13C14738   1.916   4.488   5.983 -0.5019 -1.7970 -0.3594
  136OSM    C1214739   1.959   4.223   6.027  0.4042 -0.1981  0.8239
  136OSM   H12A14740   2.062   4.208   6.056  0.9513  1.6020 -0.0777
  136OSM   H12B14741   1.933   4.121   6.000  0.1388 -0.1279  0.8135
  136OSM    C1114742   1.853   4.272   6.133  0.9219  0.0143 -0.0153
  136OSM   H11A14743   1.856   4.383   6.145  0.1619  0.0595 -0.1995
  136OSM   H11B14744   1.885   4.231   6.231 -2.4522 -0.1375  1.1288
  136OSM      P14745   1.667   4.068   6.119 -0.0089 -0.1107 -0.1779
  136OSM    O1314746   1.520   4.062   6.090  0.0169  0.3782 -0.1813
  136OSM    O1414747   1.753   3.977   6.036  0.0092 -0.4671  0.1094
  136OSM    O1114748   1.690   4.030   6.266  0.0587  0.8397 -0.1699
  136OSM    O1214749   1.722   4.219   6.106  0.1714  0.4618 -0.0591
  136OSM    C1S14750   1.623   4.102   6.359  0.7021 -0.4948 -0.0064
  136OSM    H1S14751   1.514   4.109   6.338  0.4536 -1.6656  0.7897
  136OSM    H1T14752   1.668   4.204   6.358 -0.7011  0.1766 -2.0190
  136OSM     NF14753   1.578   4.150   6.592 -0.0447  0.0704 -0.7822
  136OSM    HNF14754   1.629   4.223   6.636  2.0024 -0.9594 -1.3480
  136OSM    C2S14755   1.645   4.056   6.503 -1.0899  0.7095  0.1997
  136OSM    H2S14756   1.590   3.960   6.513  0.1048 -0.0042  0.0995
  136OSM    C3S14757   1.796   4.040   6.538  0.0328 -0.2349 -0.1726
  136OSM    H3S14758   1.844   4.139   6.516 -0.8685  0.7867  2.2069
  136OSM     O314759   1.862   3.939   6.462  0.0960  0.4398 -0.2963
  136OSM    HO314760   1.790   3.890   6.423  0.9064 -1.7466  0.7675
  136OSM    C4S14761   1.833   4.003   6.681 -0.1029 -0.4704  0.2696
  136OSM    H4S14762   1.815   3.898   6.708 -0.7993 -0.4444 -0.0857
  136OSM    C5S14763   1.883   4.096   6.769 -0.2501 -0.1469 -0.8527
  136OSM    H5S14764   1.892   4.201   6.738  5.7352 -0.0458  0.0650
  136OSM    C6S14765   1.932   4.078   6.907  0.2846 -0.7400 -0.4748
  136OSM    H6S14766   1.861   4.125   6.978 -0.8151 -0.6541 -1.5843
  136OSM    H6T14767   2.037   4.114   6.917  0.2930 -1.0975  0.8661
  136OSM    C7S14768   1.944   3.932   6.954 -0.3454  1.1226  0.0985
  136OSM    H7S14769   2.009   3.870   6.887 -0.3020  0.1708  0.9903
  136OSM    H7T14770   1.843   3.886   6.954 -0.6203  1.7116 -0.4640
  136OSM    C8S14771   1.999   3.928   7.093 -0.2381  0.1057  0.3034
  136OSM    H8S14772   1.950   4.005   7.156  0.2950  2.0532 -1.5515
  136OSM    H8T14773   2.108   3.949   7.091 -0.5370  1.8248  0.5085
  136OSM    C9S14774   1.964   3.802   7.172  0.4280  0.4449  1.1010
  136OSM    H9S14775   1.983   3.714   7.105  1.8311  0.8540  0.9338
  136OSM    H9T14776   1.853   3.812   7.181  0.2113 -0.8436  0.2596
  136OSM   C10S14777   2.040   3.780   7.309  0.2254  0.4307  0.9597
  136OSM   H10S14778   2.124   3.852   7.299  0.9779 -0.1480  2.7408
  136OSM   H10T14779   2.089   3.681   7.319  0.6844  0.6755  1.1498
  136OSM   C11S14780   1.950   3.811   7.424  0.1111 -0.2800  0.3519
  136OSM   H11S14781   1.889   3.722   7.450  0.9372 -1.2520 -0.9012
  136OSM   H11T14782   1.883   3.897   7.402 -0.5916 -0.8500  0.2157
  136OSM   C12S14783   2.030   3.856   7.550  0.1342 -0.0485 -0.5745
  136OSM   H12S14784   2.097   3.939   7.520  0.2688  0.6772  1.5882
  136OSM   H12T14785   2.097   3.781   7.597  0.2966  1.7266  2.2667
  136OSM   C13S14786   1.935   3.917   7.651  0.1183 -0.1689  0.3315
  136OSM   H13S14787   1.848   3.850   7.668  0.4860 -1.6524 -2.9683
  136OSM   H13T14788   1.900   4.013   7.606 -0.1563 -0.1125  0.6598
  136OSM   C14S14789   1.999   3.952   7.782 -0.3304  0.4421  0.0627
  136OSM   H14S14790   2.072   4.031   7.754  2.5565 -2.3858 -1.0218
  136OSM   H14T14791   2.060   3.868   7.821 -0.1696  0.6917  0.3502
  136OSM   C15S14792   1.896   3.990   7.889  0.3875 -0.2870  0.0237
  136OSM   H15S14793   1.828   3.903   7.904 -0.2337  0.1722 -0.0876
  136OSM   H15T14794   1.827   4.068   7.850  0.4932  0.2246  0.8338
  136OSM   C16S14795   1.962   4.044   8.022  0.0490 -0.5572  0.6193
  136OSM   H16S14796   1.878   4.072   8.089  0.0889  0.0327  0.4344
  136OSM   H16T14797   2.009   4.140   7.991 -1.7734 -0.8945 -4.0343
  136OSM   C17S14798   2.055   3.946   8.093 -0.0660 -0.6287  0.6816
  136OSM   H17S14799   2.132   3.911   8.021 -0.0028 -1.1679  1.0079
  136OSM   H17T14800   1.997   3.856   8.121 -0.0840 -1.1307 -0.8559
  136OSM   C18S14801   2.131   3.990   8.220  0.1634  0.0832 -0.1976
  136OSM   H18S14802   2.179   3.905   8.273  2.4594  1.4221 -0.0229
  136OSM   H18T14803   2.071   4.048   8.293 -0.3325 -1.2038  0.4552
  136OSM   H18U14804   2.213   4.059   8.191  0.5787  0.0104  0.7881
  136OSM    C1F14805   1.443   4.147   6.603 -0.1297 -0.6072 -0.0326
  136OSM     OF14806   1.380   4.068   6.541 -0.2462 -0.0192  0.7228
  136OSM    C2F14807   1.370   4.236   6.702  0.4796 -0.1565 -0.1111
  136OSM    H2F14808   1.297   4.303   6.652  0.6553  0.0253 -0.1212
  136OSM    H2G14809   1.439   4.290   6.769 -2.4108 -1.2099  4.0950
  136OSM    C3F14810   1.284   4.141   6.802 -0.4745  0.2003 -0.1542
  136OSM    H3F14811   1.359   4.073   6.847  0.4894 -0.2508 -2.2940
  136OSM    H3G14812   1.208   4.081   6.747 -1.1999 -1.2756  2.2974
  136OSM    C4F14813   1.215   4.237   6.900  0.1907 -0.8135  0.1363
  136OSM    H4F14814   1.145   4.302   6.844  0.1560 -1.1654 -0.2298
  136OSM    H4G14815   1.294   4.306   6.936 -0.7512  0.1039  0.5034
  136OSM    C5F14816   1.144   4.171   7.023  0.1320 -0.0275  0.1193
  136OSM    H5F14817   1.222   4.107   7.069 -1.0249 -0.8886  0.9269
  136OSM    H5G14818   1.063   4.101   6.992  1.0201 -0.3120 -1.6916
  136OSM    C6F14819   1.089   4.274   7.119  0.2995  0.1804  0.1081
  136OSM    H6F14820   1.033   4.344   7.053 -0.1814 -0.1629  0.1513
  136OSM    H6G14821   1.156   4.333   7.186 -2.2267 -0.1166  3.0859
  136OSM    C7F14822   0.977   4.215   7.213 -0.3269 -0.3251  0.2176
  136OSM    H7F14823   0.900   4.155   7.160 -2.1278  1.5016  0.6345
  136OSM    H7G14824   0.926   4.307   7.248 -0.0384  0.3103 -0.9745
  136OSM    C8F14825   1.033   4.129   7.315 -0.9452  0.1017 -0.9646
  136OSM    H8F14826   1.117   4.182   7.365 -1.5229 -2.1495  2.7985
  136OSM    H8G14827   1.086   4.045   7.266 -0.5035  1.3647 -2.7213
  136OSM    C9F14828   0.928   4.084   7.416 -0.1675 -1.0403 -1.2551
  136OSM    H9F14829   0.860   4.010   7.372 -2.3342  0.0220  0.1196
  136OSM   C10F14830   0.907   4.121   7.544 -0.1842  0.1273  0.2133
  136OSM   H10F14831   0.830   4.066   7.601 -1.9288 -0.0993 -2.2235
  136OSM   C11F14832   0.976   4.226   7.627  0.5521 -0.0034  1.1166
  136OSM   H11F14833   1.049   4.279   7.562 -0.2039  1.5054  1.4371
  136OSM   H11G14834   1.017   4.191   7.724 -1.1717  3.4140  3.3028
  136OSM   C12F14835   0.883   4.347   7.677  0.2090  0.5477  0.0300
  136OSM   H12F14836   0.872   4.411   7.587  1.3033  0.3412 -0.2673
  136OSM   H12G14837   0.939   4.407   7.753 -1.2959  2.9966 -0.6727
  136OSM   C13F14838   0.751   4.303   7.736 -0.7765  0.8928 -0.1826
  136OSM   H13F14839   0.707   4.228   7.668  1.0589 -0.0376 -0.4136
  136OSM   H13G14840   0.702   4.401   7.755  0.8683  2.0157 -1.4750
  136OSM   C14F14841   0.777   4.235   7.878 -0.8996  0.5319 -0.0379
  136OSM   H14F14842   0.867   4.170   7.874 -0.2372  1.3375  0.9449
  136OSM   H14G14843   0.691   4.172   7.908  0.4055 -0.4253  1.8578
  136OSM   C15F14844   0.783   4.324   8.001  0.4463  0.2750 -0.3667
  136OSM   H15F14845   0.690   4.380   8.022 -0.3692 -1.4736  0.9288
  136OSM   H15G14846   0.853   4.404   7.969 -0.2335  0.5299 -1.2536
  136OSM   C16F14847   0.845   4.257   8.125  0.4936 -0.4399  0.0947
  136OSM   H16F14848   0.887   4.344   8.180 -0.7533  0.7215 -0.7314
  136OSM   H16G14849   0.937   4.205   8.091  1.4317  1.8930 -1.1398
  136OSM   C17F14850   0.740   4.167   8.191 -0.3976  0.2413 -0.6998
  136OSM   H17F14851   0.785   4.070   8.219  0.3661  0.1778 -2.0829
  136OSM   H17G14852   0.657   4.150   8.119  0.5988  0.4222 -1.9092
  136OSM   C18F14853   0.695   4.237   8.320  0.3152  0.4703  0.0708
  136OSM   H18F14854   0.782   4.263   8.385  0.3388  0.0642  0.2003
  136OSM   H18G14855   0.621   4.171   8.369  0.2253  1.0895  0.7893
  136OSM   H18H14856   0.645   4.334   8.302  1.7903  1.1631 -0.4851
  137OSM      N14857   5.229   2.044   6.429  0.3268  0.1392  0.6816
  137OSM    C1514858   5.353   1.968   6.446 -0.1927 -0.0455  0.0130
  137OSM   H15A14859   5.435   2.037   6.453 -0.7404  0.6262 -0.0542
  137OSM   H15B14860   5.383   1.907   6.362  1.9309  0.5416  0.3033
  137OSM   H15C14861   5.342   1.908   6.535 -0.4057 -2.1466 -1.3555
  137OSM    C1414862   5.224   2.136   6.553  0.4880 -0.1719  0.1775
  137OSM   H14A14863   5.315   2.192   6.564 -0.5294  1.7398 -0.5154
  137OSM   H14B14864   5.216   2.070   6.637  1.9417 -0.0295  0.4464
  137OSM   H14C14865   5.135   2.197   6.553 -2.0106 -3.4208  2.9699
  137OSM    C1314866   5.227   2.128   6.312 -0.0131 -0.8165  0.4445
  137OSM   H13A14867   5.148   2.203   6.310  1.4815  0.9468  2.4582
  137OSM   H13B14868   5.221   2.071   6.221 -0.7995 -0.1006  0.0258
  137OSM   H13C14869   5.317   2.188   6.316 -0.0003 -0.7784 -0.3179
  137OSM    C1214870   5.112   1.939   6.430  0.2087 -0.1040 -0.4922
  137OSM   H12A14871   5.147   1.857   6.369  1.2665  1.2104 -1.7375
  137OSM   H12B14872   5.026   1.993   6.394 -0.3064 -0.9795 -0.5955
  137OSM    C1114873   5.065   1.880   6.567  0.1558 -0.1757 -0.1104
  137OSM   H11A14874   4.973   1.827   6.536 -0.2525  0.7008 -0.4255
  137OSM   H11B14875   5.022   1.960   6.631  0.3360 -1.3976  1.6060
  137OSM      P14876   5.182   1.656   6.607 -0.1532 -0.2894 -0.0226
  137OSM    O1314877   5.049   1.596   6.601  0.1184 -0.3101 -0.1202
  137OSM    O1414878   5.277   1.623   6.496  0.2115 -0.6134  0.1299
  137OSM    O1114879   5.247   1.619   6.745  0.1007  0.7322  0.0714
  137OSM    O1214880   5.170   1.810   6.632 -0.6124 -0.5051 -0.0434
  137OSM    C1S14881   5.180   1.580   6.861 -0.0190 -0.3811  0.3554
  137OSM    H1S14882   5.098   1.506   6.849  1.6360 -2.1331 -0.6310
  137OSM    H1T14883   5.123   1.665   6.905 -3.4341 -0.4817 -3.3267
  137OSM     NF14884   5.226   1.493   7.090 -0.6285 -1.4656 -0.3395
  137OSM    HNF14885   5.244   1.563   7.160  2.9651 -0.0542 -2.4201
  137OSM    C2S14886   5.287   1.527   6.967 -0.2645 -1.1602 -0.7932
  137OSM    H2S14887   5.341   1.437   6.933  0.0447 -1.3401  0.1446
  137OSM    C3S14888   5.403   1.633   6.986 -0.6160  0.4503  0.5681
  137OSM    H3S14889   5.363   1.730   7.023 -0.5265  0.5195  0.4843
  137OSM     O314890   5.463   1.686   6.864  0.2394  0.2223  0.4360
  137OSM    HO314891   5.394   1.669   6.800 -2.7884  0.3322  3.4179
  137OSM    C4S14892   5.500   1.591   7.085 -0.3668  0.5510  0.0920
  137OSM    H4S14893   5.484   1.626   7.188  0.9054  2.7033 -0.4007
  137OSM    C5S14894   5.603   1.512   7.059 -0.3322  0.2035 -0.1754
  137OSM    H5S14895   5.625   1.487   6.954 -0.4428  1.8944 -0.6264
  137OSM    C6S14896   5.707   1.473   7.167 -0.1981  0.6038 -0.4696
  137OSM    H6S14897   5.809   1.481   7.124 -0.8422 -1.2483 -2.5189
  137OSM    H6T14898   5.688   1.366   7.190  2.9119 -0.2400 -1.4338
  137OSM    C7S14899   5.726   1.560   7.297 -0.1967 -0.8013  0.7162
  137OSM    H7S14900   5.777   1.502   7.376  2.4560 -0.8788 -0.9220
  137OSM    H7T14901   5.629   1.582   7.347  0.9852  1.8675  2.0372
  137OSM    C8S14902   5.793   1.702   7.270  0.4805 -0.5825 -0.3138
  137OSM    H8S14903   5.729   1.744   7.190  0.2527 -0.3842 -0.0310
  137OSM    H8T14904   5.898   1.695   7.235  2.2208  2.4448  3.5501
  137OSM    C9S14905   5.803   1.796   7.394  0.6652 -0.8404 -0.1879
  137OSM    H9S14906   5.708   1.853   7.398  0.6896 -0.8167  0.0704
  137OSM    H9T14907   5.882   1.872   7.381 -0.3726  0.3248  0.1705
  137OSM   C10S14908   5.833   1.722   7.523 -0.7024 -0.7889 -0.4339
  137OSM   H10S14909   5.917   1.653   7.499 -0.0051  0.1887 -0.8554
  137OSM   H10T14910   5.739   1.665   7.536 -1.6889  0.8341 -0.2021
  137OSM   C11S14911   5.862   1.806   7.648  0.5378 -0.1262 -0.6703
  137OSM   H11S14912   5.774   1.867   7.677 -0.3410 -1.7358  0.2070
  137OSM   H11T14913   5.950   1.871   7.632 -0.4358  1.4156  0.0286
  137OSM   C12S14914   5.873   1.697   7.762 -0.3694 -0.1621 -0.0846
  137OSM   H12S14915   5.969   1.645   7.741  0.7926  0.6042  2.7864
  137OSM   H12T14916   5.790   1.623   7.764 -0.0557 -0.5008  0.9763
  137OSM   C13S14917   5.871   1.759   7.899  0.1355 -0.0855  0.1529
  137OSM   H13S14918   5.781   1.719   7.950 -1.9007  0.7088 -2.6330
  137OSM   H13T14919   5.852   1.868   7.891 -0.8135 -0.1081  1.6801
  137OSM   C14S14920   6.001   1.737   7.976 -0.6561  0.2424 -0.6304
  137OSM   H14S14921   6.095   1.763   7.924 -0.4330 -0.5531 -0.6457
  137OSM   H14T14922   6.020   1.628   7.981  0.2558  0.4106 -0.1824
  137OSM   C15S14923   5.995   1.802   8.111  0.1995 -0.2213 -0.4841
  137OSM   H15S14924   5.915   1.756   8.173 -0.2049 -1.5381 -1.9237
  137OSM   H15T14925   5.982   1.911   8.095 -1.4415 -0.3053  0.0283
  137OSM   C16S14926   6.130   1.777   8.187  0.8819 -0.9303  0.2231
  137OSM   H16S14927   6.217   1.812   8.126 -0.3694 -1.7287 -2.1755
  137OSM   H16T14928   6.146   1.668   8.204  0.5906 -0.5647  3.2865
  137OSM   C17S14929   6.133   1.831   8.337 -0.4238 -0.6763  0.0801
  137OSM   H17S14930   6.090   1.934   8.336 -1.0713 -0.9482 -0.3289
  137OSM   H17T14931   6.240   1.827   8.367 -0.7256 -1.0743  1.1535
  137OSM   C18S14932   6.061   1.755   8.440  0.6151 -0.1508 -0.3463
  137OSM   H18S14933   5.959   1.718   8.415  0.7731 -0.1944 -0.9242
  137OSM   H18T14934   6.041   1.818   8.530 -1.4827 -0.0413 -0.8351
  137OSM   H18U14935   6.110   1.658   8.460  0.6218  0.2781  2.0737
  137OSM    C1F14936   5.139   1.401   7.099 -0.1088  0.7008 -0.4690
  137OSM     OF14937   5.122   1.323   7.011 -0.6316  0.1252 -0.0587
  137OSM    C2F14938   5.065   1.400   7.225  0.2894 -0.4954  0.0751
  137OSM    H2F14939   4.991   1.483   7.228 -1.6901 -2.2167  0.9691
  137OSM    H2G14940   5.133   1.401   7.313 -2.8042 -1.3438  2.6644
  137OSM    C3F14941   4.986   1.270   7.246  0.9594  0.1130 -0.3450
  137OSM    H3F14942   5.052   1.182   7.258  1.5232  0.7631  1.7685
  137OSM    H3G14943   4.927   1.257   7.153  1.2199 -0.0041 -0.4920
  137OSM    C4F14944   4.898   1.265   7.374 -0.1279 -0.0412 -0.0654
  137OSM    H4F14945   4.836   1.173   7.360 -1.4382  0.7789  0.1324
  137OSM    H4G14946   4.822   1.344   7.390  0.9879  0.9446  0.4986
  137OSM    C5F14947   4.980   1.246   7.505  0.6753  0.0843  0.1290
  137OSM    H5F14948   5.024   1.344   7.534 -0.6646  0.4661  0.9395
  137OSM    H5G14949   5.052   1.161   7.502  0.4992 -0.0558 -0.1355
  137OSM    C6F14950   4.872   1.223   7.619 -0.3334 -0.1033  0.0924
  137OSM    H6F14951   4.814   1.133   7.590  3.5067 -2.3340 -1.5134
  137OSM    H6G14952   4.796   1.304   7.624  0.7113  1.0438 -1.6787
  137OSM    C7F14953   4.931   1.191   7.757 -0.1520 -0.1588 -0.2913
  137OSM    H7F14954   4.973   1.285   7.799 -0.6237  0.2042 -0.6197
  137OSM    H7G14955   5.016   1.121   7.741  1.0522  1.3288 -0.6592
  137OSM    C8F14956   4.826   1.139   7.849  0.6755  0.2008  0.1087
  137OSM    H8F14957   4.775   1.059   7.792  0.4472 -2.3000  3.4815
  137OSM    H8G14958   4.748   1.214   7.874 -0.4298 -0.9429  0.1880
  137OSM    C9F14959   4.886   1.081   7.972  0.3152 -0.4334  0.9023
  137OSM    H9F14960   4.936   0.991   7.934  0.1760 -1.2364  2.5405
  137OSM   C10F14961   4.902   1.117   8.104  0.3186  0.1568  0.4662
  137OSM   H10F14962   4.960   1.052   8.171 -1.6965 -0.8831  1.2720
  137OSM   C11F14963   4.848   1.240   8.172 -0.0353 -0.3441 -0.1127
  137OSM   H11F14964   4.770   1.291   8.113  2.2509  2.7130 -0.7534
  137OSM   H11G14965   4.929   1.316   8.179 -0.0014 -0.4319  0.4693
  137OSM   C12F14966   4.793   1.207   8.309  0.4220  0.4098 -0.2215
  137OSM   H12F14967   4.717   1.126   8.304 -0.4973  1.2305  0.1443
  137OSM   H12G14968   4.747   1.304   8.336 -0.1477  0.4859 -1.3806
  137OSM   C13F14969   4.888   1.160   8.409 -0.6750 -0.3377  0.8835
  137OSM   H13F14970   4.981   1.221   8.415 -0.6702 -0.4342  1.8642
  137OSM   H13G14971   4.921   1.059   8.378  0.9561  0.1911  0.7737
  137OSM   C14F14972   4.820   1.148   8.554  0.3409 -0.3575 -0.3456
  137OSM   H14F14973   4.907   1.126   8.620  0.9139 -0.9460 -1.2802
  137OSM   H14G14974   4.749   1.064   8.564 -0.5094  0.4482  0.5682
  137OSM   C15F14975   4.739   1.271   8.588  0.5330 -0.1867 -0.4180
  137OSM   H15F14976   4.641   1.279   8.538 -0.0159 -0.0537  0.6433
  137OSM   H15G14977   4.816   1.349   8.569  1.1354 -1.5313 -4.2742
  137OSM   C16F14978   4.717   1.278   8.742  0.2232  0.5484 -0.1248
  137OSM   H16F14979   4.743   1.381   8.774 -0.3592  0.6812 -0.0680
  137OSM   H16G14980   4.791   1.212   8.792  1.5243  2.4621  0.5948
  137OSM   C17F14981   4.574   1.232   8.791 -0.7917 -0.7286  0.2211
  137OSM   H17F14982   4.497   1.288   8.733 -0.7132  1.0689  1.7894
  137OSM   H17G14983   4.555   1.257   8.897  0.6363 -0.4660  0.4243
  137OSM   C18F14984   4.535   1.089   8.761 -0.8202 -0.1033  0.6716
  137OSM   H18F14985   4.483   1.091   8.662  1.1831  0.6797 -0.4125
  137OSM   H18G14986   4.464   1.054   8.839 -1.1824 -0.2070  0.3004
  137OSM   H18H14987   4.620   1.017   8.758 -0.9781 -0.2755 -1.4789
  138OSM      N14988   4.821   5.554   6.147 -0.4024 -0.0106  0.2674
  138OSM    C1514989   4.942   5.519   6.061 -0.5100 -0.3925 -0.1965
  138OSM   H15A14990   5.037   5.570   6.074 -0.9458  0.6693 -1.0111
  138OSM   H15B14991   4.918   5.517   5.956 -2.5353 -0.8474  0.2440
  138OSM   H15C14992   4.965   5.419   6.093 -1.7028 -0.3284  0.9436
  138OSM    C1414993   4.806   5.701   6.147 -0.1862  0.0405  0.0763
  138OSM   H14A14994   4.897   5.749   6.182  0.3918 -0.0540 -1.2256
  138OSM   H14B14995   4.722   5.727   6.210 -0.3167 -1.0544  0.3650
  138OSM   H14C14996   4.779   5.736   6.049 -0.2775 -1.6131 -0.5167
  138OSM    C1314997   4.690   5.505   6.098 -0.4763  0.0973 -0.4324
  138OSM   H13A14998   4.673   5.524   5.994  0.4379  1.5778 -0.3439
  138OSM   H13B14999   4.612   5.554   6.154  0.7132  2.0199 -0.3818
  138OSM   H13C15000   4.685   5.398   6.117  0.7821  0.3590  1.7731
  138OSM    C1215001   4.843   5.515   6.296  0.5117  0.2100 -0.7832
  138OSM   H12A15002   4.753   5.548   6.347 -0.1813 -2.8316  0.1793
  138OSM   H12B15003   4.940   5.553   6.325  0.9579 -1.6273  0.3133
  138OSM    C1115004   4.844   5.364   6.332  0.3844 -0.0814 -0.8373
  138OSM   H11A15005   4.859   5.341   6.439  0.7660 -0.6706 -1.0106
  138OSM   H11B15006   4.938   5.324   6.288  0.7507  0.4460 -0.5452
  138OSM      P15007   4.598   5.267   6.338 -0.3148  0.0099  0.2468
  138OSM    O1315008   4.544   5.398   6.357 -0.0688  0.0348 -0.4452
  138OSM    O1415009   4.517   5.180   6.255  0.0900  0.0346 -0.3868
  138OSM    O1115010   4.625   5.194   6.473  0.8033 -0.3791 -0.6114
  138OSM    O1215011   4.739   5.285   6.276 -0.1866  0.1744  0.5282
  138OSM    C1S15012   4.651   5.051   6.481 -0.0520 -0.2302 -0.6813
  138OSM    H1S15013   4.717   5.022   6.396  2.1646 -0.6313  1.0722
  138OSM    H1T15014   4.553   5.000   6.472 -0.4339  0.0602  1.4285
  138OSM     NF15015   4.803   4.897   6.614  0.4025 -0.0908 -0.1517
  138OSM    HNF15016   4.778   4.814   6.663 -0.3001 -0.1630 -0.6236
  138OSM    C2S15017   4.706   5.016   6.616 -0.3443  0.0314  0.3688
  138OSM    H2S15018   4.771   5.101   6.642  0.9304 -0.7701 -0.1023
  138OSM    C3S15019   4.588   5.008   6.716  0.1637  0.6444 -0.3592
  138OSM    H3S15020   4.528   4.915   6.710 -1.3378  1.4726  0.9691
  138OSM     O315021   4.481   5.105   6.692  0.1209 -0.3101  0.4643
  138OSM    HO315022   4.524   5.163   6.629 -0.5409 -0.0680  0.2282
  138OSM    C4S15023   4.636   5.008   6.859  0.2722  0.5505  0.0572
  138OSM    H4S15024   4.665   4.908   6.892  2.3257  0.5150 -1.6436
  138OSM    C5S15025   4.641   5.107   6.949  0.4486  0.7483  0.2079
  138OSM    H5S15026   4.587   5.198   6.918 -1.2199  0.0881  1.0613
  138OSM    C6S15027   4.682   5.092   7.092 -0.2515  0.1428 -0.0837
  138OSM    H6S15028   4.613   5.156   7.150 -0.8928  1.0326 -1.7592
  138OSM    H6T15029   4.783   5.131   7.115  0.1479 -0.4736 -0.7450
  138OSM    C7S15030   4.672   4.952   7.150 -0.0291 -0.2913  0.3679
  138OSM    H7S15031   4.739   4.886   7.091  1.2387  2.1869 -1.1171
  138OSM    H7T15032   4.569   4.916   7.129 -0.3626  2.0405 -2.6923
  138OSM    C8S15033   4.692   4.947   7.302  0.0130 -0.5032 -0.1872
  138OSM    H8S15034   4.662   4.849   7.344 -1.0559 -0.2652 -0.3769
  138OSM    H8T15035   4.624   5.019   7.352  1.2901  2.8385 -2.8777
  138OSM    C9S15036   4.830   4.991   7.359 -0.5678  0.2298 -0.0028
  138OSM    H9S15037   4.844   5.100   7.349  0.8756  0.1274  0.6021
  138OSM    H9T15038   4.910   4.944   7.296 -2.8990 -2.1839 -1.4049
  138OSM   C10S15039   4.862   4.947   7.503 -0.1651  0.4567 -0.1039
  138OSM   H10S15040   4.953   4.999   7.538 -0.3456 -0.4968  1.9110
  138OSM   H10T15041   4.888   4.839   7.501 -0.7488  0.2997  0.5218
  138OSM   C11S15042   4.760   4.989   7.609 -0.2405  0.4915 -0.1619
  138OSM   H11S15043   4.768   4.926   7.700  0.1831  1.0753  0.2097
  138OSM   H11T15044   4.659   4.966   7.569 -0.4065  0.2687  0.3781
  138OSM   C12S15045   4.773   5.134   7.646  0.2242 -0.2239 -0.5373
  138OSM   H12S15046   4.671   5.174   7.664  0.2539 -0.4075  0.0595
  138OSM   H12T15047   4.815   5.204   7.570 -0.7178  0.5587 -0.3598
  138OSM   C13S15048   4.818   5.157   7.792 -0.1329  0.0945 -0.4934
  138OSM   H13S15049   4.746   5.113   7.864  0.3344  1.4195  0.8331
  138OSM   H13T15050   4.824   5.265   7.819 -1.4951  0.0031  0.2795
  138OSM   C14S15051   4.954   5.090   7.817 -0.3169 -0.5436 -0.2082
  138OSM   H14S15052   5.025   5.127   7.739 -0.0614 -0.3132  0.1264
  138OSM   H14T15053   4.957   4.982   7.794  0.0420 -0.1046 -2.4208
  138OSM   C15S15054   5.007   5.130   7.957 -0.0818  0.2124  0.1723
  138OSM   H15S15055   5.001   5.241   7.958  0.0078  0.2264 -0.4207
  138OSM   H15T15056   5.112   5.095   7.964 -1.2670 -3.6393  0.7883
  138OSM   C16S15057   4.917   5.060   8.071 -0.6581  0.2413  0.0633
  138OSM   H16S15058   4.927   4.951   8.052 -3.5116 -0.1444  0.2812
  138OSM   H16T15059   4.810   5.090   8.062 -0.9793 -0.9234 -0.1250
  138OSM   C17S15060   4.969   5.099   8.208  0.7021  0.3319 -0.3826
  138OSM   H17S15061   4.975   5.209   8.228  0.7107  0.2234  0.2406
  138OSM   H17T15062   5.077   5.075   8.220  1.4357  3.5568  0.5695
  138OSM   C18S15063   4.902   5.021   8.319  0.1706 -0.6611  0.3521
  138OSM   H18S15064   4.794   5.048   8.315  0.4776  0.6000  0.4464
  138OSM   H18T15065   4.944   5.053   8.417  1.4552  1.9134 -0.9417
  138OSM   H18U15066   4.914   4.910   8.311  2.7243 -0.4331  0.2166
  138OSM    C1F15067   4.912   4.904   6.545 -0.5864 -0.1599 -0.0287
  138OSM     OF15068   4.937   4.998   6.467  0.3346 -0.2075  0.1713
  138OSM    C2F15069   5.012   4.794   6.554  0.2595  0.2581 -0.0264
  138OSM    H2F15070   5.058   4.774   6.455 -0.8328  2.6625 -1.1060
  138OSM    H2G15071   4.966   4.701   6.594 -0.7941  1.2865  1.2393
  138OSM    C3F15072   5.118   4.831   6.660  0.0188 -0.3118 -0.9387
  138OSM    H3F15073   5.063   4.854   6.753  0.5441 -0.5092 -0.5749
  138OSM    H3G15074   5.181   4.918   6.631 -0.1098 -0.5685 -2.0260
  138OSM    C4F15075   5.213   4.709   6.684  0.4453  0.0764  0.1359
  138OSM    H4F15076   5.270   4.691   6.591  0.7265 -1.0182  0.5081
  138OSM    H4G15077   5.140   4.628   6.702  0.1963  0.6110  1.7543
  138OSM    C5F15078   5.305   4.736   6.801 -0.0584  0.2312  0.2142
  138OSM    H5F15079   5.353   4.836   6.787  4.7254 -1.8996 -0.8992
  138OSM    H5G15080   5.384   4.658   6.794 -0.9861 -0.7651  0.6616
  138OSM    C6F15081   5.238   4.725   6.934 -0.5302 -0.2407  0.0683
  138OSM    H6F15082   5.191   4.626   6.952 -0.5885 -0.0084  1.2837
  138OSM    H6G15083   5.151   4.793   6.922 -0.6079 -0.6280 -1.8510
  138OSM    C7F15084   5.327   4.768   7.055 -0.5603 -0.3417 -0.8456
  138OSM    H7F15085   5.354   4.876   7.055 -3.7732  0.5833  1.2903
  138OSM    H7G15086   5.422   4.711   7.059 -0.4476 -0.0804  1.2967
  138OSM    C8F15087   5.251   4.745   7.191 -0.4983 -0.1518  1.0462
  138OSM    H8F15088   5.262   4.637   7.218  1.9295 -0.3972 -0.5408
  138OSM    H8G15089   5.142   4.757   7.176 -0.6564 -2.3111  0.0138
  138OSM    C9F15090   5.304   4.820   7.310  0.4690 -0.2834  0.7965
  138OSM    H9F15091   5.325   4.927   7.293  1.1187 -0.5113  0.1423
  138OSM   C10F15092   5.318   4.769   7.436 -0.2039 -0.4156  0.0218
  138OSM   H10F15093   5.347   4.837   7.518 -1.1984 -2.3349  2.0989
  138OSM   C11F15094   5.279   4.632   7.479 -0.1786 -0.3183 -0.4608
  138OSM   H11F15095   5.370   4.567   7.480 -0.1419 -0.2971 -1.2448
  138OSM   H11G15096   5.214   4.585   7.402  0.9965  0.0735 -1.7569
  138OSM   C12F15097   5.208   4.617   7.613  0.0345  0.2513  0.4045
  138OSM   H12F15098   5.280   4.653   7.690  2.6920 -0.9651 -1.3313
  138OSM   H12G15099   5.182   4.513   7.643 -2.3452  0.8782  0.6768
  138OSM   C13F15100   5.075   4.694   7.618 -0.0514  0.1136  0.6765
  138OSM   H13F15101   5.010   4.670   7.531 -1.8078  2.5940  1.1879
  138OSM   H13G15102   5.090   4.804   7.621 -0.6610  0.2038  3.4884
  138OSM   C14F15103   4.980   4.658   7.732  0.1824 -0.1423 -0.5966
  138OSM   H14F15104   4.962   4.548   7.728 -0.8352  0.0337 -1.0799
  138OSM   H14G15105   4.879   4.702   7.717  0.2317 -0.5782 -2.3662
  138OSM   C15F15106   5.032   4.692   7.871  0.2540  0.5448  0.2724
  138OSM   H15F15107   5.046   4.802   7.883  2.3468  0.2535  0.9799
  138OSM   H15G15108   5.131   4.645   7.889 -0.0503 -0.5038 -0.7478
  138OSM   C16F15109   4.942   4.639   7.988 -0.6875 -0.7601  0.9024
  138OSM   H16F15110   4.916   4.533   7.967 -1.2765  0.0644 -3.3849
  138OSM   H16G15111   4.849   4.700   7.988  0.2013  0.7025 -0.8578
  138OSM   C17F15112   5.010   4.644   8.123 -0.5026 -0.5746  0.1280
  138OSM   H17F15113   4.937   4.597   8.192  0.6027 -0.1912  1.6051
  138OSM   H17G15114   5.015   4.748   8.161  1.1652 -1.5550  2.8786
  138OSM   C18F15115   5.145   4.571   8.151  0.8491  0.4067 -0.6393
  138OSM   H18F15116   5.226   4.640   8.117  0.1341  0.8974 -1.3855
  138OSM   H18G15117   5.146   4.478   8.090 -2.8824  0.6915 -1.3478
  138OSM   H18H15118   5.159   4.532   8.254  0.6143 -2.5094 -1.6171
  139OSM      N15119   4.177   5.260   6.454  0.3747  0.0979  0.2853
  139OSM    C1515120   4.204   5.112   6.478  0.0291  0.3545  0.3021
  139OSM   H15A15121   4.307   5.090   6.457  0.0353 -0.0227  0.7085
  139OSM   H15B15122   4.145   5.057   6.406  0.9862  0.9629 -0.9765
  139OSM   H15C15123   4.182   5.088   6.581 -2.9776  3.3386  0.5242
  139OSM    C1415124   4.245   5.331   6.567 -0.6871 -1.1864  0.0199
  139OSM   H14A15125   4.212   5.434   6.578  2.8144 -0.2207  3.4219
  139OSM   H14B15126   4.353   5.324   6.562 -0.6428 -0.1766 -0.7417
  139OSM   H14C15127   4.212   5.284   6.658 -1.6744  1.1409  0.9509
  139OSM    C1315128   4.219   5.306   6.318 -0.3378  0.2123  0.3471
  139OSM   H13A15129   4.146   5.279   6.244  3.2338 -1.6632 -2.8628
  139OSM   H13B15130   4.315   5.265   6.289 -0.7903  0.1236 -1.1189
  139OSM   H13C15131   4.230   5.414   6.319  1.3320  0.0800  1.0472
  139OSM    C1215132   4.024   5.276   6.477  0.1244  1.0059 -0.1084
  139OSM   H12A15133   4.002   5.378   6.503  0.2278  0.6740  1.4050
  139OSM   H12B15134   3.997   5.220   6.566 -1.2173 -0.1672 -1.2155
  139OSM    C1115135   3.934   5.226   6.362  0.5450  0.2104 -0.4238
  139OSM   H11A15136   3.832   5.218   6.404  0.6229 -2.7755 -0.5907
  139OSM   H11B15137   3.963   5.121   6.339 -1.8799 -0.3942 -1.0276
  139OSM      P15138   3.854   5.433   6.249 -0.2401  0.3717  0.2444
  139OSM    O1315139   3.878   5.506   6.126  0.2061 -0.4479  0.0038
  139OSM    O1415140   3.711   5.395   6.260  0.7193 -0.6858 -0.0249
  139OSM    O1115141   3.908   5.511   6.377  0.4345 -0.4241  0.0408
  139OSM    O1215142   3.947   5.307   6.248  0.0332  0.5751 -0.5258
  139OSM    C1S15143   3.859   5.646   6.409  0.1346  0.4495 -0.1899
  139OSM    H1S15144   3.749   5.640   6.428 -0.0325  0.4734 -1.1110
  139OSM    H1T15145   3.873   5.716   6.323 -0.1185 -0.2276 -0.7908
  139OSM     NF15146   3.846   5.824   6.579 -0.4084 -0.3191  0.3565
  139OSM    HNF15147   3.884   5.910   6.546  0.9198 -0.7521  0.7099
  139OSM    C2S15148   3.919   5.706   6.533  0.7369  0.6991  0.2875
  139OSM    H2S15149   3.911   5.623   6.607 -0.9901  0.4991 -0.0871
  139OSM    C3S15150   4.067   5.732   6.505  0.7408 -0.1054  0.1866
  139OSM    H3S15151   4.075   5.811   6.427 -1.1954 -1.4371 -1.4937
  139OSM     O315152   4.142   5.617   6.462 -0.1060  0.5342 -0.0482
  139OSM    HO315153   4.073   5.556   6.433 -0.5146  0.9946 -0.0513
  139OSM    C4S15154   4.128   5.770   6.635 -0.2049  0.1710  0.3248
  139OSM    H4S15155   4.098   5.702   6.716 -3.3984 -0.2802 -1.0504
  139OSM    C5S15156   4.200   5.875   6.654  0.0528  0.0091  0.1602
  139OSM    H5S15157   4.230   5.929   6.563  0.3841 -1.0209 -0.3566
  139OSM    C6S15158   4.270   5.931   6.778 -0.7212  1.0099  0.1438
  139OSM    H6S15159   4.245   6.040   6.779 -1.6637  0.8304 -1.0874
  139OSM    H6T15160   4.379   5.909   6.779 -0.3225  2.3434 -2.8255
  139OSM    C7S15161   4.216   5.861   6.902  0.3772  0.3388 -0.5641
  139OSM    H7S15162   4.254   5.756   6.907 -0.8815 -0.2051 -1.7770
  139OSM    H7T15163   4.106   5.847   6.896  0.5587 -1.0655 -0.9508
  139OSM    C8S15164   4.243   5.941   7.035  0.3814 -0.3976 -0.2024
  139OSM    H8S15165   4.191   6.039   7.031  0.7939  0.0174  2.7376
  139OSM    H8T15166   4.350   5.955   7.058  1.1403 -1.6768 -2.5599
  139OSM    C9S15167   4.195   5.861   7.153 -0.0280 -0.9505 -0.1639
  139OSM    H9S15168   4.205   5.752   7.136  1.5917 -1.2219  2.0535
  139OSM    H9T15169   4.085   5.875   7.152  0.2492  1.8396 -1.3939
  139OSM   C10S15170   4.251   5.896   7.295 -0.0324 -0.3108  0.4998
  139OSM   H10S15171   4.236   6.005   7.314  0.8356 -0.0097 -0.4941
  139OSM   H10T15172   4.359   5.878   7.279  0.5221 -0.0955  3.3817
  139OSM   C11S15173   4.206   5.816   7.413 -0.8459 -0.0457  0.0795
  139OSM   H11S15174   4.240   5.710   7.406 -2.3693 -0.5640  0.2910
  139OSM   H11T15175   4.095   5.811   7.407 -0.7378 -1.5667 -1.4846
  139OSM   C12S15176   4.260   5.867   7.553 -0.2670 -0.0507  0.6481
  139OSM   H12S15177   4.215   5.966   7.576 -0.7635 -0.0165 -0.4237
  139OSM   H12T15178   4.366   5.893   7.529 -0.5545 -0.8347 -1.6441
  139OSM   C13S15179   4.260   5.764   7.663 -0.5544 -0.7483  0.4928
  139OSM   H13S15180   4.305   5.669   7.626 -0.9239 -0.5432 -0.5067
  139OSM   H13T15181   4.154   5.745   7.688 -0.6068  0.8101  1.6393
  139OSM   C14S15182   4.334   5.815   7.788  0.7941  0.0849 -0.3681
  139OSM   H14S15183   4.283   5.907   7.824 -0.8596 -1.8742  2.7516
  139OSM   H14T15184   4.441   5.834   7.764  1.0856  1.5880  1.8036
  139OSM   C15S15185   4.321   5.719   7.909 -0.0535  0.0508 -0.9782
  139OSM   H15S15186   4.390   5.635   7.889  0.2444  0.0322  0.1029
  139OSM   H15T15187   4.219   5.678   7.924 -0.5801  1.7651  0.5064
  139OSM   C16S15188   4.372   5.790   8.041  0.0080 -0.8962 -0.1433
  139OSM   H16S15189   4.321   5.888   8.052 -1.2130 -1.3445 -1.4895
  139OSM   H16T15190   4.479   5.810   8.022  0.2115 -1.9953 -0.2352
  139OSM   C17S15191   4.362   5.708   8.164  0.0827  0.8014  0.1259
  139OSM   H17S15192   4.440   5.629   8.164 -0.8623 -0.1741 -1.2518
  139OSM   H17T15193   4.260   5.668   8.183 -0.0104  1.1844  0.4577
  139OSM   C18S15194   4.383   5.805   8.288  0.6867 -0.3300 -0.2174
  139OSM   H18S15195   4.474   5.866   8.267  0.5247 -0.3005 -0.8454
  139OSM   H18T15196   4.396   5.739   8.377  0.8247 -1.2287 -0.9000
  139OSM   H18U15197   4.302   5.878   8.311  0.3861 -0.6304 -0.3186
  139OSM    C1F15198   3.728   5.817   6.641  0.4975  0.4615 -0.0559
  139OSM     OF15199   3.679   5.709   6.665  0.2008 -0.1233 -0.0521
  139OSM    C2F15200   3.648   5.938   6.677 -0.3206  0.2506  0.3117
  139OSM    H2F15201   3.564   5.942   6.605  1.4616  0.6980 -1.8284
  139OSM    H2G15202   3.710   6.029   6.667 -0.9925  0.9308  1.9327
  139OSM    C3F15203   3.608   5.938   6.821  0.4201 -0.4890  0.2203
  139OSM    H3F15204   3.530   5.859   6.833 -0.5305  0.4502  0.3458
  139OSM    H3G15205   3.564   6.034   6.854 -1.0014 -1.0335  0.0026
  139OSM    C4F15206   3.723   5.922   6.924  0.2426 -0.6285  0.0659
  139OSM    H4F15207   3.787   6.011   6.910 -0.5544 -0.0004  0.3953
  139OSM    H4G15208   3.784   5.831   6.907  1.2369  0.0140  0.1499
  139OSM    C5F15209   3.682   5.929   7.069  0.5827  0.6892 -0.4992
  139OSM    H5F15210   3.647   6.034   7.081  1.1243  1.1077 -2.3007
  139OSM    H5G15211   3.772   5.921   7.134 -0.3091 -0.5678  0.6262
  139OSM    C6F15212   3.591   5.818   7.121  0.2193 -0.1767 -0.1883
  139OSM    H6F15213   3.517   5.795   7.042  0.6905 -1.4144 -0.3059
  139OSM    H6G15214   3.533   5.861   7.206  0.0550 -0.1513 -0.3130
  139OSM    C7F15215   3.659   5.686   7.161  0.2342 -0.5300  0.5990
  139OSM    H7F15216   3.750   5.663   7.102  0.7330  1.4679  0.5102
  139OSM    H7G15217   3.594   5.603   7.125  0.8465 -0.0883 -1.6925
  139OSM    C8F15218   3.690   5.667   7.309  0.4158  0.9096  0.0607
  139OSM    H8F15219   3.714   5.558   7.315 -0.8968  0.6549  1.1948
  139OSM    H8G15220   3.604   5.678   7.379 -0.3174  3.6975 -1.1664
  139OSM    C9F15221   3.807   5.748   7.361  0.7679 -0.1523  0.4539
  139OSM    H9F15222   3.866   5.792   7.280 -2.8478 -0.8958 -2.9151
  139OSM   C10F15223   3.838   5.773   7.490  0.7161 -0.1467  0.3252
  139OSM   H10F15224   3.924   5.835   7.518  0.9694 -0.5621  0.4843
  139OSM   C11F15225   3.763   5.730   7.615 -0.2202  0.0965  0.0330
  139OSM   H11F15226   3.747   5.620   7.621  0.6152 -0.0864 -0.8455
  139OSM   H11G15227   3.660   5.770   7.605 -0.3434  0.2606  1.7611
  139OSM   C12F15228   3.828   5.769   7.747  0.0845 -0.7136  0.0933
  139OSM   H12F15229   3.853   5.877   7.751 -2.9453  0.0869  0.1547
  139OSM   H12G15230   3.916   5.702   7.742  0.2623 -0.5153  0.5866
  139OSM   C13F15231   3.736   5.733   7.859  0.2960  0.0381  0.3243
  139OSM   H13F15232   3.738   5.622   7.864  1.4946  0.0901  1.5408
  139OSM   H13G15233   3.637   5.781   7.843 -0.0087 -0.0924  1.6609
  139OSM   C14F15234   3.780   5.773   7.999 -0.4716 -0.7465  0.6866
  139OSM   H14F15235   3.695   5.755   8.069 -0.6362  1.2969  1.0778
  139OSM   H14G15236   3.807   5.881   7.998  1.6089 -1.2368  0.4521
  139OSM   C15F15237   3.883   5.679   8.049 -0.1484 -0.6380 -0.1468
  139OSM   H15F15238   3.977   5.700   7.994 -0.3876  0.8628 -0.0388
  139OSM   H15G15239   3.855   5.575   8.023 -0.7478 -1.2505  2.5728
  139OSM   C16F15240   3.911   5.702   8.202 -0.0920 -0.2314  0.2270
  139OSM   H16F15241   3.817   5.680   8.256 -0.9765  1.2029 -0.6962
  139OSM   H16G15242   3.941   5.805   8.232 -1.7098 -0.4907  3.1156
  139OSM   C17F15243   4.007   5.601   8.268  0.5864 -0.5195 -0.1324
  139OSM   H17F15244   4.086   5.579   8.193  0.4933  0.5170 -0.5399
  139OSM   H17G15245   3.950   5.509   8.292  0.8442 -0.5005  0.6003
  139OSM   C18F15246   4.075   5.644   8.397 -0.1065  0.0236  0.0411
  139OSM   H18F15247   4.144   5.560   8.421 -0.2820 -0.5438 -1.3479
  139OSM   H18G15248   4.011   5.655   8.487 -0.8106  3.2405 -0.7309
  139OSM   H18H15249   4.129   5.741   8.389  0.7094 -0.4943 -1.0675
  140OSM      N15250   2.739   5.736   6.202 -0.3571 -0.7743 -0.1058
  140OSM    C1515251   2.859   5.647   6.174 -0.2436 -0.1684  0.1344
  140OSM   H15A15252   2.942   5.704   6.214  0.9512 -0.4573 -1.8071
  140OSM   H15B15253   2.879   5.626   6.070 -4.1723  0.4663 -0.9272
  140OSM   H15C15254   2.861   5.560   6.238  1.1405  1.3387  2.2854
  140OSM    C1415255   2.769   5.875   6.150 -0.3479  0.3888  0.2835
  140OSM   H14A15256   2.788   5.879   6.044  0.3672  1.9659  0.4324
  140OSM   H14B15257   2.867   5.907   6.182  0.3824  0.0044 -1.4870
  140OSM   H14C15258   2.699   5.951   6.182 -2.3175 -1.8993  1.7456
  140OSM    C1315259   2.621   5.676   6.134 -0.1996  0.3985 -0.5891
  140OSM   H13A15260   2.621   5.678   6.027  2.1070 -2.1890 -0.7645
  140OSM   H13B15261   2.533   5.731   6.165  0.2240  0.5636  0.3648
  140OSM   H13C15262   2.610   5.577   6.177  0.2546  0.5553 -0.0965
  140OSM    C1215263   2.715   5.744   6.348 -0.4419 -0.1580  0.6574
  140OSM   H12A15264   2.621   5.794   6.362 -0.0824  0.3790  1.2050
  140OSM   H12B15265   2.786   5.810   6.397  0.2930 -0.6190  0.2414
  140OSM    C1115266   2.720   5.610   6.423 -0.7712 -0.3325  1.2528
  140OSM   H11A15267   2.685   5.625   6.528  1.4044 -1.9562  2.2953
  140OSM   H11B15268   2.824   5.572   6.437 -0.5166 -0.9963 -1.7474
  140OSM      P15269   2.682   5.357   6.337  0.3125  0.2266  0.1094
  140OSM    O1315270   2.605   5.302   6.233  0.1944  0.1242  0.5597
  140OSM    O1415271   2.826   5.348   6.319  0.3323 -0.3811  0.1061
  140OSM    O1115272   2.635   5.273   6.470  0.3414  0.1069 -0.1125
  140OSM    O1215273   2.637   5.508   6.362 -0.1205  0.5168 -0.0876
  140OSM    C1S15274   2.695   5.319   6.590  0.1769 -0.3074  0.1047
  140OSM    H1S15275   2.625   5.398   6.626  0.9146  0.7740 -0.7742
  140OSM    H1T15276   2.792   5.371   6.580 -0.4582  1.5476  2.6180
  140OSM     NF15277   2.764   5.262   6.820  0.8108  0.3285 -0.2233
  140OSM    HNF15278   2.860   5.247   6.838  0.4376 -0.3766  1.3100
  140OSM    C2S15279   2.713   5.211   6.696  0.2104 -0.6497  0.7003
  140OSM    H2S15280   2.617   5.158   6.715 -1.0416  1.0030 -0.7137
  140OSM    C3S15281   2.813   5.110   6.633  0.1619  0.3242  0.1859
  140OSM    H3S15282   2.900   5.176   6.610  0.2979  0.0072 -0.2236
  140OSM     O315283   2.779   5.043   6.512 -0.1966 -0.0556  0.1285
  140OSM    HO315284   2.712   5.101   6.475 -1.7964 -0.1533  2.6306
  140OSM    C4S15285   2.855   5.000   6.729 -1.0918  0.0779 -0.0226
  140OSM    H4S15286   2.952   5.022   6.776 -2.1387 -1.5760  3.1784
  140OSM    C5S15287   2.783   4.891   6.770  0.0611 -1.2522  0.1415
  140OSM    H5S15288   2.693   4.865   6.713  1.3684  0.8909 -3.2471
  140OSM    C6S15289   2.819   4.790   6.865 -0.4850  0.4917  0.1707
  140OSM    H6S15290   2.893   4.721   6.820 -1.4601 -0.1744 -0.4417
  140OSM    H6T15291   2.735   4.718   6.867  1.2898 -1.6884 -0.2012
  140OSM    C7S15292   2.870   4.843   7.000  0.0132  0.3915 -0.1022
  140OSM    H7S15293   2.785   4.906   7.036  0.3533  0.2725  0.9317
  140OSM    H7T15294   2.957   4.911   6.987  1.1427 -1.1035 -0.5703
  140OSM    C8S15295   2.914   4.728   7.094  0.0559  0.1581 -0.2600
  140OSM    H8S15296   2.995   4.690   7.028 -2.1134 -2.9173 -1.3682
  140OSM    H8T15297   2.833   4.652   7.104  0.8341 -0.9792 -2.0333
  140OSM    C9S15298   2.963   4.786   7.221  0.2340 -0.2685 -0.6432
  140OSM    H9S15299   3.038   4.865   7.198 -0.9048  1.5846  1.5859
  140OSM    H9T15300   3.014   4.701   7.272 -0.7180 -0.2881  0.3059
  140OSM   C10S15301   2.850   4.838   7.320 -0.0869 -0.3209  0.0711
  140OSM   H10S15302   2.790   4.748   7.345 -0.2585 -0.2204  0.0185
  140OSM   H10T15303   2.787   4.907   7.260  0.8445 -0.2080 -0.8215
  140OSM   C11S15304   2.901   4.908   7.450 -0.1300  0.0887 -1.0224
  140OSM   H11S15305   2.970   4.987   7.413 -0.4142  1.0847  0.4474
  140OSM   H11T15306   2.963   4.835   7.507 -1.9330 -1.3144 -0.7707
  140OSM   C12S15307   2.788   4.979   7.528 -0.0956  0.1857  0.1807
  140OSM   H12S15308   2.726   4.901   7.577 -1.1923  0.1792 -1.1584
  140OSM   H12T15309   2.730   5.024   7.445 -0.7873 -2.5029 -0.9093
  140OSM   C13S15310   2.836   5.090   7.619 -0.4269 -0.3939 -0.3928
  140OSM   H13S15311   2.751   5.143   7.667 -0.6535 -1.4062  0.3536
  140OSM   H13T15312   2.888   5.169   7.561 -1.7264 -0.6416 -1.9616
  140OSM   C14S15313   2.922   5.034   7.728  0.1976  0.0579  0.5110
  140OSM   H14S15314   3.017   4.992   7.687  0.7759  0.6420  1.2302
  140OSM   H14T15315   2.870   4.960   7.792  0.0318 -0.4082 -0.1533
  140OSM   C15S15316   2.978   5.136   7.827  0.7013  0.0720 -0.4420
  140OSM   H15S15317   2.891   5.196   7.859 -0.2290 -0.6269 -1.5637
  140OSM   H15T15318   3.044   5.209   7.776  0.2534  0.3389 -0.6416
  140OSM   C16S15319   3.064   5.079   7.946 -0.0728  0.9275 -0.4776
  140OSM   H16S15320   3.149   5.016   7.911 -2.2498 -0.5863 -3.5552
  140OSM   H16T15321   2.997   5.006   7.994 -1.4717  2.9649  0.8371
  140OSM   C17S15322   3.101   5.192   8.036  0.0477 -0.1818  0.6188
  140OSM   H17S15323   3.155   5.271   7.979  1.1660  0.0882  2.0086
  140OSM   H17T15324   3.177   5.160   8.110  1.0416  1.6786  0.4480
  140OSM   C18S15325   2.990   5.247   8.132 -0.2141 -0.0357  0.4041
  140OSM   H18S15326   2.896   5.269   8.076  0.1477  0.4356 -0.0345
  140OSM   H18T15327   3.035   5.339   8.174  1.5572 -1.0938  0.9367
  140OSM   H18U15328   2.965   5.184   8.220  1.1177 -1.4666 -0.1963
  140OSM    C1F15329   2.682   5.323   6.901  0.0729 -0.3211  0.5323
  140OSM     OF15330   2.562   5.316   6.884 -0.2335 -0.1636 -0.1310
  140OSM    C2F15331   2.752   5.388   7.018  0.0890 -0.2292 -0.0282
  140OSM    H2F15332   2.717   5.494   7.016  1.4671  0.2980  1.4273
  140OSM    H2G15333   2.858   5.400   6.988 -0.1265  0.7518 -0.4349
  140OSM    C3F15334   2.727   5.312   7.149 -0.4947 -0.1865  0.8543
  140OSM    H3F15335   2.755   5.209   7.119 -0.7586  0.4775 -1.9978
  140OSM    H3G15336   2.618   5.312   7.171 -0.4510  4.0527  1.9248
  140OSM    C4F15337   2.817   5.364   7.260  0.5112 -0.3524 -0.3661
  140OSM    H4F15338   2.924   5.356   7.234 -0.0598 -1.3648 -2.6422
  140OSM    H4G15339   2.791   5.299   7.346 -2.9759  0.6028 -0.5109
  140OSM    C5F15340   2.781   5.507   7.291  0.1997 -0.0828 -0.3336
  140OSM    H5F15341   2.671   5.519   7.305 -0.1946  0.6421 -3.3230
  140OSM    H5G15342   2.814   5.568   7.204 -0.2558  0.6045 -0.0318
  140OSM    C6F15343   2.849   5.560   7.420 -0.8863 -0.0321 -0.0460
  140OSM    H6F15344   2.886   5.665   7.416 -1.9965  0.4454  1.3452
  140OSM    H6G15345   2.938   5.495   7.437  0.7385  2.5256  2.0971
  140OSM    C7F15346   2.749   5.546   7.535 -0.2539 -0.2004 -1.1980
  140OSM    H7F15347   2.715   5.440   7.543  0.1557 -0.2248  0.3887
  140OSM    H7G15348   2.657   5.599   7.502 -0.7699 -0.1136  0.3355
  140OSM    C8F15349   2.787   5.599   7.675  0.0446  0.3049 -0.1929
  140OSM    H8F15350   2.701   5.592   7.745 -1.7655 -0.8647 -2.4138
  140OSM    H8G15351   2.815   5.707   7.668 -0.5497  0.3667 -2.0137
  140OSM    C9F15352   2.901   5.512   7.731  0.4027 -0.0138 -0.2882
  140OSM    H9F15353   2.975   5.482   7.656 -1.5249  2.1151 -3.2930
  140OSM   C10F15354   2.913   5.492   7.862  0.3203 -0.2682 -0.1708
  140OSM   H10F15355   2.991   5.423   7.896 -0.2056 -1.0019 -0.4420
  140OSM   C11F15356   2.824   5.532   7.978  0.5236  0.1004 -0.4154
  140OSM   H11F15357   2.785   5.442   8.030 -1.3726 -0.1182 -2.0602
  140OSM   H11G15358   2.731   5.573   7.932 -0.5705 -0.7749  0.9681
  140OSM   C12F15359   2.879   5.640   8.072  0.5473 -0.0439 -0.7341
  140OSM   H12F15360   2.851   5.743   8.039 -2.1505 -0.0496  1.2571
  140OSM   H12G15361   2.990   5.639   8.072  0.5640  0.7864 -0.3787
  140OSM   C13F15362   2.827   5.611   8.213  0.3388 -0.4525 -0.7920
  140OSM   H13F15363   2.877   5.522   8.258 -2.1495 -0.5385  2.1521
  140OSM   H13G15364   2.719   5.590   8.204  0.9396 -3.8846 -1.3268
  140OSM   C14F15365   2.857   5.730   8.310 -0.0901 -0.0229 -0.0528
  140OSM   H14F15366   2.853   5.831   8.264 -3.3190 -0.1327 -0.1979
  140OSM   H14G15367   2.959   5.732   8.354  0.5458  1.0720 -1.4774
  140OSM   C15F15368   2.755   5.716   8.426  0.5825 -0.3462 -0.1347
  140OSM   H15F15369   2.743   5.614   8.469 -2.1584 -1.0894 -2.3204
  140OSM   H15G15370   2.654   5.738   8.385  1.2243  3.6357  0.0120
  140OSM   C16F15371   2.780   5.808   8.547  0.7451 -0.4379 -0.3875
  140OSM   H16F15372   2.837   5.900   8.520  0.2015  0.2598  0.7748
  140OSM   H16G15373   2.840   5.758   8.626  0.2901 -0.6730 -0.1894
  140OSM   C17F15374   2.650   5.852   8.626 -0.7728  0.2415  0.0944
  140OSM   H17F15375   2.590   5.914   8.557 -0.0405  0.8379 -0.0126
  140OSM   H17G15376   2.678   5.907   8.719 -1.4359  1.9192 -0.6653
  140OSM   C18F15377   2.563   5.736   8.666 -0.0616 -0.0121 -0.3108
  140OSM   H18F15378   2.614   5.670   8.739 -1.5599  2.2330  2.9770
  140OSM   H18G15379   2.543   5.688   8.568 -1.8519  0.9729 -0.4789
  140OSM   H18H15380   2.469   5.774   8.711  0.3018 -0.9690  1.3161
  141OSM      N15381   4.301   1.962   6.272 -0.1461  0.0462 -0.9377
  141OSM    C1515382   4.199   1.879   6.320 -0.2140  0.2064  0.0828
  141OSM   H15A15383   4.138   1.850   6.236 -1.3043 -0.7375  1.1620
  141OSM   H15B15384   4.123   1.918   6.388 -2.1091 -1.4651 -0.9905
  141OSM   H15C15385   4.239   1.796   6.376 -3.5312 -0.6972  1.3350
  141OSM    C1415386   4.410   1.867   6.222 -0.2639  0.7957 -0.0670
  141OSM   H14A15387   4.443   1.802   6.301 -0.8764 -1.7692 -1.7718
  141OSM   H14B15388   4.498   1.914   6.181 -0.4615  0.4820 -0.8785
  141OSM   H14C15389   4.374   1.804   6.141  2.2488  0.6857 -1.1951
  141OSM    C1315390   4.265   2.052   6.160 -0.1097 -0.5947  0.6465
  141OSM   H13A15391   4.217   2.144   6.190 -1.4054 -1.2308  0.5735
  141OSM   H13B15392   4.208   1.995   6.088  0.1628 -1.8266  1.3847
  141OSM   H13C15393   4.349   2.091   6.105  0.2856 -1.6373  0.4928
  141OSM    C1215394   4.356   2.050   6.379 -0.3022 -0.3215 -0.2404
  141OSM   H12A15395   4.368   1.984   6.464  0.6564 -0.5364 -0.5310
  141OSM   H12B15396   4.280   2.124   6.397  0.7895  1.2709 -1.9253
  141OSM    C1115397   4.485   2.125   6.365 -0.6674  0.2140 -0.1552
  141OSM   H11A15398   4.524   2.168   6.460  3.1971 -0.4758 -1.2360
  141OSM   H11B15399   4.463   2.197   6.284  0.1412 -1.2043 -1.7018
  141OSM      P15400   4.702   1.982   6.392 -0.3428  0.1822 -0.2204
  141OSM    O1315401   4.715   1.837   6.359 -0.2202  0.2037  0.2972
  141OSM    O1415402   4.827   2.064   6.387  0.1182 -0.4524  0.3048
  141OSM    O1115403   4.643   1.985   6.538  0.3109  0.7557  0.4954
  141OSM    O1215404   4.590   2.050   6.304 -0.5901  0.7350 -0.6264
  141OSM    C1S15405   4.713   1.912   6.645 -0.5611  0.2812  0.1563
  141OSM    H1S15406   4.793   1.973   6.691 -1.5431  1.2743  0.5918
  141OSM    H1T15407   4.759   1.818   6.607 -0.2985  0.1523  0.7830
  141OSM     NF15408   4.699   1.814   6.870 -0.4109 -0.0678  0.8586
  141OSM    HNF15409   4.722   1.716   6.868 -1.1662 -0.2471  0.4090
  141OSM    C2S15410   4.613   1.866   6.759  1.0156  0.2329 -0.3286
  141OSM    H2S15411   4.543   1.941   6.801  0.5563 -0.5212  0.2923
  141OSM    C3S15412   4.511   1.757   6.707 -0.4568 -0.0226  0.7376
  141OSM    H3S15413   4.569   1.668   6.673 -2.7095 -1.5019  0.5196
  141OSM     O315414   4.422   1.811   6.614 -0.1776  0.3185  0.3778
  141OSM    HO315415   4.473   1.891   6.600  0.4899  0.1690  1.7846
  141OSM    C4S15416   4.425   1.712   6.814  0.5663  0.6840 -0.1931
  141OSM    H4S15417   4.336   1.772   6.837  1.4698  2.1791 -0.4651
  141OSM    C5S15418   4.432   1.592   6.881 -0.1863  0.7648  0.4769
  141OSM    H5S15419   4.504   1.517   6.846 -2.4431 -1.0841 -0.5282
  141OSM    C6S15420   4.331   1.556   6.991  0.2354 -0.1192 -0.0524
  141OSM    H6S15421   4.308   1.447   6.981 -1.9247  0.4168 -1.5996
  141OSM    H6T15422   4.234   1.604   6.968  0.3208  0.0701 -0.0181
  141OSM    C7S15423   4.388   1.593   7.127 -0.5987  0.5081  0.7870
  141OSM    H7S15424   4.388   1.704   7.133  0.0380  0.4579  2.3615
  141OSM    H7T15425   4.495   1.561   7.135 -0.4521  1.0321  0.9944
  141OSM    C8S15426   4.302   1.528   7.232 -0.3063  0.4217  0.0247
  141OSM    H8S15427   4.314   1.417   7.233 -1.1137  0.3300  0.9655
  141OSM    H8T15428   4.196   1.559   7.220 -0.9100 -1.2471  0.7002
  141OSM    C9S15429   4.341   1.592   7.370  0.0776 -0.2475 -0.1711
  141OSM    H9S15430   4.348   1.702   7.360 -0.0861 -0.1577  0.6426
  141OSM    H9T15431   4.444   1.564   7.400 -0.4903 -2.0992  0.1859
  141OSM   C10S15432   4.245   1.551   7.482 -0.1218  0.3202  0.2764
  141OSM   H10S15433   4.242   1.440   7.481  2.1229  0.1905  1.5654
  141OSM   H10T15434   4.144   1.594   7.462  0.3470  1.0435 -0.6603
  141OSM   C11S15435   4.303   1.597   7.618  0.1554  0.2674 -0.1790
  141OSM   H11S15436   4.311   1.707   7.602  0.2657  0.2604 -0.1739
  141OSM   H11T15437   4.405   1.552   7.625 -0.2185 -0.9156 -1.6475
  141OSM   C12S15438   4.221   1.570   7.744 -0.2122  0.7208  0.3673
  141OSM   H12S15439   4.244   1.470   7.786  2.2826  2.1868  2.8367
  141OSM   H12T15440   4.116   1.601   7.726  0.0642  3.0948  2.3734
  141OSM   C13S15441   4.264   1.657   7.860 -0.0063 -0.2696 -0.8174
  141OSM   H13S15442   4.240   1.759   7.824  0.5689  0.4279  0.6631
  141OSM   H13T15443   4.374   1.664   7.879 -0.0830 -1.0838  0.0371
  141OSM   C14S15444   4.188   1.628   7.994 -0.2286 -0.0046  0.0232
  141OSM   H14S15445   4.228   1.537   8.043 -0.1786  0.3305  0.6060
  141OSM   H14T15446   4.083   1.618   7.958 -0.0414  0.9102 -0.8139
  141OSM   C15S15447   4.191   1.750   8.089 -0.2210  0.0881  0.3010
  141OSM   H15S15448   4.298   1.772   8.104 -0.0243 -0.8984  0.4276
  141OSM   H15T15449   4.142   1.712   8.181 -1.3233 -1.9295 -1.0243
  141OSM   C16S15450   4.115   1.874   8.046 -0.1589  0.3426  0.0275
  141OSM   H16S15451   4.007   1.846   8.048 -0.6207  1.9832  1.8702
  141OSM   H16T15452   4.130   1.897   7.939 -3.6916  2.5435 -0.1709
  141OSM   C17S15453   4.132   1.990   8.143  0.7178 -0.8157  0.0802
  141OSM   H17S15454   4.103   2.087   8.098 -1.2785 -1.8689 -1.0097
  141OSM   H17T15455   4.240   1.992   8.171 -0.0095  0.2890  3.1653
  141OSM   C18S15456   4.047   1.968   8.268 -0.2296 -0.3658  0.4722
  141OSM   H18S15457   3.946   1.924   8.251 -0.0200 -0.8309  0.4298
  141OSM   H18T15458   4.047   2.068   8.317  0.2087 -0.1895  0.1215
  141OSM   H18U15459   4.094   1.890   8.330 -1.3857 -2.1356 -0.7738
  141OSM    C1F15460   4.775   1.903   6.939 -0.5564  0.4748  0.3105
  141OSM     OF15461   4.767   2.020   6.922 -0.0261  0.2290 -0.1828
  141OSM    C2F15462   4.886   1.841   7.021 -0.3277 -0.6287 -0.8072
  141OSM    H2F15463   4.979   1.864   6.965 -1.4163  2.6603 -1.4580
  141OSM    H2G15464   4.881   1.730   7.023 -0.8740 -0.6026 -0.4630
  141OSM    C3F15465   4.873   1.895   7.156 -0.1406 -0.4306 -1.1299
  141OSM    H3F15466   4.862   2.006   7.163  0.2031 -0.4838  4.4697
  141OSM    H3G15467   4.970   1.866   7.202  0.0252  1.2212 -0.3396
  141OSM    C4F15468   4.769   1.832   7.248  0.4582 -0.8363  0.2952
  141OSM    H4F15469   4.783   1.722   7.242  1.8623 -0.6388 -0.4696
  141OSM    H4G15470   4.672   1.855   7.200  0.8148 -1.8001 -0.9462
  141OSM    C5F15471   4.778   1.873   7.390  0.0211  0.3919 -0.0404
  141OSM    H5F15472   4.763   1.983   7.397 -3.2411  0.1181 -0.9899
  141OSM    H5G15473   4.883   1.855   7.424 -0.2127  1.2945  1.2282
  141OSM    C6F15474   4.684   1.796   7.489 -0.2989 -0.1729 -0.3804
  141OSM    H6F15475   4.710   1.688   7.488  0.9253  0.0925  0.5083
  141OSM    H6G15476   4.578   1.809   7.459 -0.7565  2.4145  1.9254
  141OSM    C7F15477   4.719   1.855   7.630 -0.2088 -0.3478 -0.3304
  141OSM    H7F15478   4.682   1.960   7.636  0.1852 -0.1219 -1.4751
  141OSM    H7G15479   4.830   1.858   7.635 -0.1507 -1.5355 -0.6499
  141OSM    C8F15480   4.640   1.780   7.735  0.2898 -0.0016 -0.2367
  141OSM    H8F15481   4.538   1.760   7.696 -0.0960  1.0462  0.1871
  141OSM    H8G15482   4.612   1.844   7.821 -0.0337  0.9366 -1.0291
  141OSM    C9F15483   4.698   1.644   7.774  0.6544  0.1846  0.4286
  141OSM    H9F15484   4.700   1.572   7.691  0.6232  0.9268 -0.2285
  141OSM   C10F15485   4.741   1.611   7.898  0.2638  0.6690  0.4189
  141OSM   H10F15486   4.776   1.508   7.909  0.5447  0.4974 -1.6875
  141OSM   C11F15487   4.737   1.693   8.028 -0.7649  0.5215  0.3487
  141OSM   H11F15488   4.696   1.795   8.019  1.1548  1.4442  1.4067
  141OSM   H11G15489   4.845   1.704   8.053  0.0069 -0.1995 -2.3300
  141OSM   C12F15490   4.668   1.607   8.127  0.0726 -0.0029 -0.3087
  141OSM   H12F15491   4.720   1.512   8.153 -0.6632 -1.3791 -3.3665
  141OSM   H12G15492   4.560   1.591   8.107 -0.0096  0.5826 -0.3521
  141OSM   C13F15493   4.666   1.671   8.267 -0.3594  0.2330 -0.4665
  141OSM   H13F15494   4.770   1.663   8.304 -1.5392 -1.9620  2.8296
  141OSM   H13G15495   4.603   1.618   8.342 -0.4721 -0.3088 -0.9329
  141OSM   C14F15496   4.625   1.818   8.264  0.0729 -0.2144  0.0612
  141OSM   H14F15497   4.528   1.819   8.210  0.8689 -1.5505 -1.4663
  141OSM   H14G15498   4.703   1.881   8.216 -1.6101  2.0509  0.1213
  141OSM   C15F15499   4.597   1.870   8.406  1.0775 -0.6837 -0.4738
  141OSM   H15F15500   4.688   1.844   8.466  0.2178  1.9387  2.1796
  141OSM   H15G15501   4.506   1.822   8.448 -1.8480  4.4772 -0.1412
  141OSM   C16F15502   4.582   2.022   8.422 -0.0907 -0.0499 -0.0565
  141OSM   H16F15503   4.649   2.075   8.350 -0.4118  1.5633  0.7719
  141OSM   H16G15504   4.620   2.045   8.524  1.8912  0.8342 -0.9354
  141OSM   C17F15505   4.436   2.059   8.383  0.1465 -0.1679  0.3724
  141OSM   H17F15506   4.412   1.998   8.294  1.4655  1.6981 -1.3422
  141OSM   H17G15507   4.424   2.162   8.343  0.0808 -0.4374 -0.3120
  141OSM   C18F15508   4.327   2.033   8.491  0.2035  0.1326 -0.2770
  141OSM   H18F15509   4.347   1.927   8.516  3.7364  0.6435 -0.4482
  141OSM   H18G15510   4.227   2.041   8.443 -0.1951 -1.6703  0.1592
  141OSM   H18H15511   4.338   2.111   8.570  0.2442  2.8762 -2.8279
  142OSM      N15512   4.836   4.883   6.064  0.3224  0.0766  0.2161
  142OSM    C1515513   4.704   4.949   6.055 -0.1137  0.5012 -0.0799
  142OSM   H15A15514   4.675   4.981   5.956 -1.5733 -1.2236 -0.2492
  142OSM   H15B15515   4.685   5.027   6.127  0.3058 -0.2153  0.8196
  142OSM   H15C15516   4.626   4.879   6.079  0.8760 -0.9318 -0.9281
  142OSM    C1415517   4.841   4.767   5.970 -0.1057  0.1446 -0.1928
  142OSM   H14A15518   4.937   4.719   5.962 -0.4490 -0.2890 -2.9051
  142OSM   H14B15519   4.816   4.799   5.870 -0.4303  0.8575  0.1104
  142OSM   H14C15520   4.765   4.701   6.009 -1.3227  0.3134 -2.1435
  142OSM    C1315521   4.940   4.982   6.024  0.5409 -0.2061 -0.0211
  142OSM   H13A15522   4.940   5.019   5.923  1.6297 -0.0592  0.0213
  142OSM   H13B15523   5.034   4.930   6.041 -1.0107 -3.7558 -1.2968
  142OSM   H13C15524   4.949   5.063   6.094  0.2972 -0.7641  0.6685
  142OSM    C1215525   4.855   4.817   6.199  0.5115  0.6001 -0.1584
  142OSM   H12A15526   4.861   4.889   6.279 -1.9990  0.3337  0.3780
  142OSM   H12B15527   4.954   4.773   6.195  0.7577  0.6573  2.9204
  142OSM    C1115528   4.765   4.717   6.270  0.2366 -0.2514 -0.0878
  142OSM   H11A15529   4.825   4.697   6.361  1.1599  2.3570 -0.0535
  142OSM   H11B15530   4.753   4.629   6.204  1.3301 -0.0561 -0.5608
  142OSM      P15531   4.499   4.703   6.285 -0.6548 -0.2000  0.0070
  142OSM    O1315532   4.396   4.793   6.230 -0.0655  0.3527 -0.0310
  142OSM    O1415533   4.516   4.571   6.226  0.5174 -0.3075 -0.2641
  142OSM    O1115534   4.476   4.692   6.444 -0.0651 -0.3454 -0.5164
  142OSM    O1215535   4.641   4.777   6.291 -0.0175 -0.5761  0.4085
  142OSM    C1S15536   4.578   4.627   6.519  0.5823  0.2257 -0.4182
  142OSM    H1S15537   4.651   4.706   6.545 -1.1494  2.0021 -0.6874
  142OSM    H1T15538   4.624   4.539   6.470  0.1738 -0.5552  0.5705
  142OSM     NF15539   4.641   4.513   6.734 -0.2208 -0.2955 -0.4843
  142OSM    HNF15540   4.644   4.414   6.745  1.9981 -0.4132 -1.5777
  142OSM    C2S15541   4.525   4.570   6.662 -0.1863  0.3368 -0.0217
  142OSM    H2S15542   4.483   4.652   6.724  0.4947  2.0162 -1.6766
  142OSM    C3S15543   4.417   4.461   6.633  0.0611  0.2648 -0.0647
  142OSM    H3S15544   4.473   4.379   6.584  0.5777 -0.0834  1.0770
  142OSM     O315545   4.302   4.496   6.555 -0.0010 -0.6869  0.3513
  142OSM    HO315546   4.322   4.589   6.539 -2.7863  0.1197  0.9635
  142OSM    C4S15547   4.371   4.416   6.771  0.1068 -0.5222  0.2097
  142OSM    H4S15548   4.450   4.355   6.819  0.4051 -0.2964  0.0113
  142OSM    C5S15549   4.261   4.454   6.845  0.7232 -0.7298 -0.2103
  142OSM    H5S15550   4.195   4.535   6.810  3.2679  1.0630 -1.1173
  142OSM    C6S15551   4.219   4.383   6.969 -0.7508 -0.0073 -0.3623
  142OSM    H6S15552   4.245   4.276   6.951  0.1754  0.5893 -3.1044
  142OSM    H6T15553   4.108   4.387   6.980 -0.9933  0.2724 -2.3664
  142OSM    C7S15554   4.279   4.427   7.100  0.4353 -0.0997  0.1396
  142OSM    H7S15555   4.257   4.534   7.120 -0.5288 -0.4129  0.8096
  142OSM    H7T15556   4.390   4.426   7.103  0.4736  0.8216 -0.5112
  142OSM    C8S15557   4.220   4.350   7.218 -0.0666 -0.1587 -0.4258
  142OSM    H8S15558   4.264   4.248   7.214  2.7148  0.9606 -0.7991
  142OSM    H8T15559   4.109   4.347   7.214 -0.1689 -0.9541  1.7490
  142OSM    C9S15560   4.262   4.418   7.354  0.5672  0.1358 -0.4009
  142OSM    H9S15561   4.199   4.509   7.367 -0.3473 -0.4748 -0.5385
  142OSM    H9T15562   4.369   4.443   7.339 -0.1701  4.2568 -0.2178
  142OSM   C10S15563   4.210   4.330   7.471 -1.0022 -0.1993 -0.0905
  142OSM   H10S15564   4.265   4.235   7.453  0.9072  0.7728  0.2986
  142OSM   H10T15565   4.101   4.308   7.475 -0.4457 -3.1431  1.1985
  142OSM   C11S15566   4.239   4.387   7.608 -0.1298 -0.5395  0.0822
  142OSM   H11S15567   4.178   4.479   7.618  2.1505  0.8800  1.7091
  142OSM   H11T15568   4.344   4.422   7.606 -0.6046  0.9406 -0.9064
  142OSM   C12S15569   4.206   4.298   7.728 -0.1992  0.0261  1.2179
  142OSM   H12S15570   4.259   4.202   7.711  0.8611  0.4308  2.1174
  142OSM   H12T15571   4.099   4.268   7.721  0.2307 -1.3571 -0.0140
  142OSM   C13S15572   4.257   4.350   7.857 -1.0741 -0.4731 -0.0888
  142OSM   H13S15573   4.352   4.405   7.837 -1.6934  0.7483  0.2504
  142OSM   H13T15574   4.281   4.269   7.928  2.3350 -0.4235 -0.9831
  142OSM   C14S15575   4.153   4.442   7.924  0.5008 -0.6634  0.0592
  142OSM   H14S15576   4.051   4.397   7.926 -0.2898  0.9593 -1.1781
  142OSM   H14T15577   4.152   4.533   7.860  2.5107 -2.1209 -2.1794
  142OSM   C15S15578   4.207   4.493   8.059 -0.1257  0.9940 -0.5106
  142OSM   H15S15579   4.150   4.585   8.086 -2.4894 -0.2984 -0.8582
  142OSM   H15T15580   4.312   4.525   8.041 -0.2424  2.7179  1.3997
  142OSM   C16S15581   4.194   4.381   8.166  0.2260  0.3856 -0.5423
  142OSM   H16S15582   4.291   4.361   8.217  1.0334 -0.8434 -2.4662
  142OSM   H16T15583   4.177   4.275   8.138 -0.0739  0.0899  0.7033
  142OSM   C17S15584   4.082   4.410   8.264 -0.2102 -0.5048  0.5220
  142OSM   H17S15585   3.997   4.444   8.201  1.2641  1.4986 -0.4775
  142OSM   H17T15586   4.112   4.492   8.334  0.3084 -1.0629  0.9598
  142OSM   C18S15587   4.041   4.296   8.357 -0.5202  0.1485  0.1912
  142OSM   H18S15588   4.122   4.267   8.426  1.3324  3.4772 -0.3815
  142OSM   H18T15589   4.018   4.207   8.294  1.0505 -0.8816  1.0134
  142OSM   H18U15590   3.955   4.338   8.414  0.3561 -0.5057  2.0832
  142OSM    C1F15591   4.732   4.586   6.789 -0.2068  0.6385 -0.6693
  142OSM     OF15592   4.709   4.702   6.795 -0.0837 -0.4087  0.4977
  142OSM    C2F15593   4.853   4.531   6.840  0.4919 -0.3138  0.1946
  142OSM    H2F15594   4.933   4.539   6.763 -1.7756 -0.5898 -2.3227
  142OSM    H2G15595   4.839   4.421   6.848 -1.8001 -0.0326  0.5038
  142OSM    C3F15596   4.894   4.586   6.980 -0.0794 -0.5667  0.6573
  142OSM    H3F15597   4.901   4.697   6.982 -1.3882 -0.4271 -0.5237
  142OSM    H3G15598   4.992   4.539   7.004 -0.2598 -1.1291  0.3262
  142OSM    C4F15599   4.805   4.531   7.099  0.0906 -0.1691  0.0064
  142OSM    H4F15600   4.826   4.422   7.096  1.8852  0.0179  2.3526
  142OSM    H4G15601   4.697   4.552   7.086  0.0687  0.4531  1.0760
  142OSM    C5F15602   4.859   4.580   7.236 -0.1197  0.2604 -0.0043
  142OSM    H5F15603   4.848   4.690   7.240  1.1291  0.3690  1.8077
  142OSM    H5G15604   4.970   4.567   7.238  0.0375  1.4814  0.1797
  142OSM    C6F15605   4.801   4.509   7.357 -0.8540  0.3128 -0.4292
  142OSM    H6F15606   4.691   4.509   7.366 -0.7278  2.0459  2.2440
  142OSM    H6G15607   4.833   4.569   7.445  0.6334  0.0865 -0.7735
  142OSM    C7F15608   4.870   4.377   7.396  0.2368 -0.4199  0.4893
  142OSM    H7F15609   4.977   4.401   7.410 -0.2354  1.6513  0.8065
  142OSM    H7G15610   4.861   4.304   7.312 -1.4459  0.9554 -0.5853
  142OSM    C8F15611   4.815   4.305   7.524 -0.1240 -0.5216 -0.0495
  142OSM    H8F15612   4.837   4.366   7.614 -2.2684 -0.6993  0.6486
  142OSM    H8G15613   4.867   4.207   7.533 -0.1844 -0.8328 -2.3271
  142OSM    C9F15614   4.664   4.281   7.520 -0.3870  0.6029 -0.9493
  142OSM    H9F15615   4.624   4.265   7.419 -0.8122 -2.9128 -0.3380
  142OSM   C10F15616   4.583   4.276   7.629  0.3358  0.7389 -0.2611
  142OSM   H10F15617   4.475   4.260   7.614  0.4604 -2.0471  1.0449
  142OSM   C11F15618   4.632   4.300   7.777  0.3915 -0.6556 -0.2547
  142OSM   H11F15619   4.591   4.398   7.809  0.8179 -0.7785  0.7145
  142OSM   H11G15620   4.741   4.310   7.796  0.2400 -1.1133  1.0008
  142OSM   C12F15621   4.585   4.184   7.868  0.0284 -0.7129  0.0197
  142OSM   H12F15622   4.631   4.092   7.828 -0.5369 -0.0716 -2.2243
  142OSM   H12G15623   4.478   4.167   7.844 -0.0182  0.8289 -1.0335
  142OSM   C13F15624   4.589   4.206   8.019 -0.9346 -0.3426 -0.4861
  142OSM   H13F15625   4.547   4.305   8.050  0.7614  0.3141 -0.1426
  142OSM   H13G15626   4.696   4.197   8.049 -0.9363 -0.6236 -0.5704
  142OSM   C14F15627   4.528   4.092   8.098  0.4846 -0.7704 -0.6259
  142OSM   H14F15628   4.574   3.994   8.070  0.0445 -1.3459  0.5811
  142OSM   H14G15629   4.420   4.085   8.072 -0.1395  3.4169  0.2173
  142OSM   C15F15630   4.538   4.119   8.257  0.0740  0.3113 -0.2631
  142OSM   H15F15631   4.484   4.210   8.288 -1.0030 -0.2123 -0.5644
  142OSM   H15G15632   4.636   4.154   8.297  0.3723 -0.2827 -0.4574
  142OSM   C16F15633   4.492   4.006   8.347  0.6439  0.0870  0.3948
  142OSM   H16F15634   4.552   3.915   8.326 -1.6487 -1.4713  0.2440
  142OSM   H16G15635   4.392   3.979   8.306  0.2031  0.6547  1.0738
  142OSM   C17F15636   4.467   4.041   8.494  0.0614 -1.1560  0.0258
  142OSM   H17F15637   4.389   4.119   8.499 -1.0058 -2.1428 -0.6196
  142OSM   H17G15638   4.564   4.075   8.537  0.1300  1.0544 -1.6618
  142OSM   C18F15639   4.435   3.923   8.583  0.2898 -0.7430 -0.1434
  142OSM   H18F15640   4.327   3.902   8.571 -0.1108  1.1530 -0.2139
  142OSM   H18G15641   4.468   3.961   8.682  1.0566 -0.1326 -0.6208
  142OSM   H18H15642   4.501   3.840   8.550 -0.0110 -0.6840 -0.9112
  143OSM      N15643   5.788   5.699   5.981 -0.1108  0.0275  0.1420
  143OSM    C1515644   5.718   5.799   5.896 -0.0071 -0.4969 -0.3219
  143OSM   H15A15645   5.638   5.757   5.838  0.0392 -1.1589  0.0804
  143OSM   H15B15646   5.792   5.842   5.831 -2.7763  2.1167 -1.9717
  143OSM   H15C15647   5.681   5.881   5.954  2.1161 -0.0409  0.4796
  143OSM    C1415648   5.683   5.633   6.069  0.4595 -0.0110 -0.1101
  143OSM   H14A15649   5.651   5.698   6.149  0.6330  3.0729 -2.3455
  143OSM   H14B15650   5.717   5.540   6.112 -1.1101 -1.2502 -1.3924
  143OSM   H14C15651   5.597   5.620   6.004  0.3121  0.4547 -0.0116
  143OSM    C1315652   5.866   5.598   5.898 -0.4140 -0.6585 -0.7102
  143OSM   H13A15653   5.793   5.552   5.832 -1.5915 -3.4568  2.2492
  143OSM   H13B15654   5.892   5.515   5.963  0.0484 -0.0220 -0.0684
  143OSM   H13C15655   5.947   5.641   5.842 -1.0875 -0.0688 -1.2580
  143OSM    C1215656   5.891   5.772   6.070  0.5335  0.0617 -0.3770
  143OSM   H12A15657   5.969   5.822   6.014 -1.2137  1.8419 -1.3199
  143OSM   H12B15658   5.929   5.697   6.139 -3.2166 -0.9300  0.8605
  143OSM    C1115659   5.835   5.885   6.164  0.2432 -0.2523 -0.6343
  143OSM   H11A15660   5.908   5.909   6.244 -1.1276 -1.0084  0.8884
  143OSM   H11B15661   5.750   5.848   6.224  1.9886  1.2490  3.0689
  143OSM      P15662   5.884   6.109   6.036  0.1041  0.1984  0.3248
  143OSM    O1315663   5.991   6.045   5.958 -0.2240 -0.1292  0.4918
  143OSM    O1415664   5.800   6.215   5.977  0.1645  0.3201  0.0410
  143OSM    O1115665   5.955   6.179   6.154 -0.1948  0.4623 -0.4344
  143OSM    O1215666   5.794   5.998   6.091  0.0115  0.6796 -0.5947
  143OSM    C1S15667   5.894   6.248   6.267 -0.4205  0.7232  0.0631
  143OSM    H1S15668   5.787   6.218   6.265  0.0607 -1.1340 -0.5334
  143OSM    H1T15669   5.891   6.357   6.247  1.2883  0.7018 -0.5244
  143OSM     NF15670   5.924   6.315   6.501 -0.0304 -0.2937 -0.1635
  143OSM    HNF15671   5.982   6.393   6.518 -3.2633  1.6148  3.7462
  143OSM    C2S15672   5.978   6.225   6.401 -0.3781 -0.4925  0.5181
  143OSM    H2S15673   5.955   6.121   6.431 -3.0519 -0.1596 -0.0871
  143OSM    C3S15674   6.137   6.236   6.380  0.5970 -0.2233  0.0919
  143OSM    H3S15675   6.151   6.338   6.340 -0.4752 -0.3327 -0.6147
  143OSM     O315676   6.189   6.132   6.306  0.2710  0.1339  0.0483
  143OSM    HO315677   6.113   6.087   6.267  0.4061 -0.4034  0.3930
  143OSM    C4S15678   6.203   6.233   6.517 -0.0999 -0.9663 -0.7550
  143OSM    H4S15679   6.237   6.333   6.547 -1.0129 -0.8366 -0.1212
  143OSM    C5S15680   6.232   6.131   6.594 -0.5553 -0.0032  0.4444
  143OSM    H5S15681   6.210   6.028   6.561  2.1239 -0.1206 -1.2759
  143OSM    C6S15682   6.289   6.146   6.732  0.1153 -0.0214 -0.1545
  143OSM    H6S15683   6.395   6.113   6.736  0.4889  1.2008  0.7049
  143OSM    H6T15684   6.234   6.086   6.808 -0.9988  2.7302  1.3494
  143OSM    C7S15685   6.296   6.289   6.795 -0.5434 -0.4558  0.4615
  143OSM    H7S15686   6.201   6.345   6.785 -0.8223 -1.2246 -1.8535
  143OSM    H7T15687   6.370   6.350   6.739 -0.9154 -1.8565 -1.6984
  143OSM    C8S15688   6.347   6.299   6.943 -0.6243  0.3212 -0.5723
  143OSM    H8S15689   6.372   6.404   6.971 -1.6668  0.1216  1.3070
  143OSM    H8T15690   6.433   6.232   6.963 -1.4823 -0.2471  1.5829
  143OSM    C9S15691   6.238   6.235   7.035 -0.6680  0.1459 -0.3171
  143OSM    H9S15692   6.207   6.144   6.980  0.2064 -0.9689  0.9472
  143OSM    H9T15693   6.151   6.303   7.045 -0.7410 -0.1042  0.9347
  143OSM   C10S15694   6.290   6.193   7.175 -0.2408 -0.0369  0.0510
  143OSM   H10S15695   6.386   6.139   7.186 -1.1173 -1.4938  0.8996
  143OSM   H10T15696   6.221   6.120   7.224  0.8016 -0.2985  1.1885
  143OSM   C11S15697   6.301   6.317   7.272  0.7156  0.0389 -0.3523
  143OSM   H11S15698   6.203   6.369   7.283  0.0965 -1.2282  0.2796
  143OSM   H11T15699   6.367   6.395   7.230 -1.8210  1.5322 -1.8559
  143OSM   C12S15700   6.367   6.274   7.398  0.6847 -0.2053  0.1848
  143OSM   H12S15701   6.461   6.223   7.368 -0.7667 -2.1245 -1.3765
  143OSM   H12T15702   6.300   6.197   7.443  0.0848  1.8222  3.0227
  143OSM   C13S15703   6.404   6.381   7.505 -0.2834  0.0285 -0.3588
  143OSM   H13S15704   6.312   6.438   7.530  0.0961  0.7515 -0.5834
  143OSM   H13T15705   6.475   6.447   7.451 -0.6935  1.3075  0.6123
  143OSM   C14S15706   6.457   6.319   7.636 -0.1242  0.3887 -0.4622
  143OSM   H14S15707   6.533   6.241   7.613 -1.1139 -0.1031 -2.2190
  143OSM   H14T15708   6.374   6.269   7.689 -0.0814 -0.2405 -0.9677
  143OSM   C15S15709   6.508   6.420   7.743  0.2623  0.8218  0.2589
  143OSM   H15S15710   6.443   6.508   7.722 -0.8149 -0.1149 -0.4558
  143OSM   H15T15711   6.608   6.456   7.714  0.5498 -0.8063 -0.9170
  143OSM   C16S15712   6.499   6.379   7.888 -0.3673  0.3347  0.0084
  143OSM   H16S15713   6.546   6.279   7.896 -0.4408  0.3586  0.9389
  143OSM   H16T15714   6.394   6.359   7.920  0.2706 -0.6274  1.6186
  143OSM   C17S15715   6.560   6.486   7.973  0.3788 -0.2413 -0.5685
  143OSM   H17S15716   6.497   6.578   7.970 -2.3187 -1.9702 -0.2883
  143OSM   H17T15717   6.658   6.505   7.925 -0.9157 -1.0719 -3.7791
  143OSM   C18S15718   6.581   6.450   8.121  0.3699 -0.3301 -0.3991
  143OSM   H18S15719   6.485   6.418   8.167  0.3239 -0.1763 -0.3883
  143OSM   H18T15720   6.600   6.534   8.192 -1.6290 -0.5344  0.4380
  143OSM   H18U15721   6.643   6.359   8.136 -1.0134 -0.8606  3.0225
  143OSM    C1F15722   5.816   6.292   6.565  0.3000  0.1438 -0.3159
  143OSM     OF15723   5.749   6.196   6.536 -0.2734  0.0056  0.3867
  143OSM    C2F15724   5.766   6.392   6.670 -0.2286  0.0191  0.1840
  143OSM    H2F15725   5.658   6.414   6.655 -0.1273  1.1071  0.9709
  143OSM    H2G15726   5.816   6.491   6.672 -2.1469  1.0281  1.1927
  143OSM    C3F15727   5.775   6.338   6.817 -0.4404 -0.0927  0.1239
  143OSM    H3F15728   5.875   6.350   6.863 -1.3944  0.3484  2.1679
  143OSM    H3G15729   5.747   6.230   6.818 -1.8605  0.2013  3.3029
  143OSM    C4F15730   5.690   6.413   6.913 -0.3037 -0.8323 -0.3954
  143OSM    H4F15731   5.591   6.420   6.865 -1.4776  3.0639  2.0738
  143OSM    H4G15732   5.727   6.518   6.911 -2.2351 -0.1034  0.3549
  143OSM    C5F15733   5.705   6.344   7.050 -0.7756 -0.0445  0.5213
  143OSM    H5F15734   5.803   6.371   7.096 -0.2276 -0.8073 -0.1735
  143OSM    H5G15735   5.708   6.236   7.026 -0.5755  0.4391 -1.8714
  143OSM    C6F15736   5.596   6.390   7.145  0.3890 -1.0427  0.0404
  143OSM    H6F15737   5.498   6.376   7.095  0.0420  1.2023  0.0177
  143OSM    H6G15738   5.604   6.495   7.181  1.9379 -1.0163 -0.2902
  143OSM    C7F15739   5.585   6.307   7.272  0.0588  0.0483  0.5107
  143OSM    H7F15740   5.685   6.296   7.317  2.5347 -0.5057 -4.4760
  143OSM    H7G15741   5.577   6.204   7.231  0.9235  0.1032  0.1834
  143OSM    C8F15742   5.472   6.341   7.373 -0.1429 -0.0538 -0.3927
  143OSM    H8F15743   5.374   6.352   7.321 -0.8991  2.2430  1.3354
  143OSM    H8G15744   5.505   6.432   7.428  4.7732 -1.2347 -0.9887
  143OSM    C9F15745   5.463   6.223   7.467  0.1237 -0.3726  0.1526
  143OSM    H9F15746   5.503   6.132   7.421 -0.2476  0.6192 -2.2455
  143OSM   C10F15747   5.413   6.223   7.592 -0.0681 -0.0938 -0.6956
  143OSM   H10F15748   5.416   6.130   7.651 -0.2783 -0.2873 -0.9905
  143OSM   C11F15749   5.354   6.337   7.674 -0.5828  0.5767 -1.1245
  143OSM   H11F15750   5.253   6.319   7.717  0.5652  1.3603  2.2486
  143OSM   H11G15751   5.345   6.429   7.611  1.2587 -0.4254 -2.9554
  143OSM   C12F15752   5.442   6.358   7.803 -0.5547  0.6205 -0.0599
  143OSM   H12F15753   5.442   6.265   7.865 -0.8647  0.5106 -0.2256
  143OSM   H12G15754   5.384   6.439   7.853 -1.7619 -0.7082  0.7717
  143OSM   C13F15755   5.592   6.401   7.780 -0.2473  0.6812 -0.0631
  143OSM   H13F15756   5.595   6.507   7.746  1.7309  0.2402 -1.4344
  143OSM   H13G15757   5.644   6.339   7.704 -0.9631 -0.9770  0.7746
  143OSM   C14F15758   5.672   6.385   7.910 -0.0505 -0.6043  0.4625
  143OSM   H14F15759   5.779   6.394   7.880 -0.7048 -0.5953 -2.1271
  143OSM   H14G15760   5.640   6.290   7.958 -0.5839 -0.1145  1.0963
  143OSM   C15F15761   5.651   6.484   8.024  0.4241  0.1108  0.5568
  143OSM   H15F15762   5.543   6.507   8.020  1.0069  3.4439  0.5699
  143OSM   H15G15763   5.701   6.580   7.997  1.2083 -0.1902  0.9044
  143OSM   C16F15764   5.692   6.436   8.167 -0.0431 -0.1056 -0.0023
  143OSM   H16F15765   5.651   6.336   8.192 -0.5296 -0.2737 -1.3530
  143OSM   H16G15766   5.644   6.511   8.234 -0.1382  0.8468 -1.1004
  143OSM   C17F15767   5.844   6.425   8.181 -0.0564 -0.1816 -0.0210
  143OSM   H17F15768   5.885   6.528   8.172 -0.8259  0.1169 -0.1750
  143OSM   H17G15769   5.878   6.358   8.100 -1.0612 -0.6606 -0.0646
  143OSM   C18F15770   5.883   6.360   8.309  0.0272  0.0474 -0.2983
  143OSM   H18F15771   5.844   6.257   8.297 -2.1586  0.4421  2.4836
  143OSM   H18G15772   5.844   6.409   8.400 -0.1709 -0.3130 -0.1874
  143OSM   H18H15773   5.993   6.358   8.323 -0.1974 -0.7235  1.5211
  144OSM      N15774   4.717   0.626   6.291 -0.2239  0.0755 -0.2716
  144OSM    C1515775   4.578   0.576   6.278 -0.2486 -0.2408 -0.2589
  144OSM   H15A15776   4.579   0.472   6.249 -1.9028 -0.7333  1.2452
  144OSM   H15B15777   4.525   0.642   6.210 -1.9492  0.1841  1.3965
  144OSM   H15C15778   4.529   0.568   6.374  0.1900  1.0643  0.0913
  144OSM    C1415779   4.771   0.665   6.161  0.3325  0.1324 -0.1662
  144OSM   H14A15780   4.793   0.582   6.096  0.5643  0.7823 -0.9374
  144OSM   H14B15781   4.861   0.723   6.172 -0.0057  0.8937 -1.2479
  144OSM   H14C15782   4.703   0.723   6.100  0.6383  0.0040 -0.6293
  144OSM    C1315783   4.710   0.750   6.372  0.0381 -0.6416  0.6987
  144OSM   H13A15784   4.799   0.806   6.396 -1.1007 -0.0084  4.0163
  144OSM   H13B15785   4.653   0.729   6.461 -3.2514 -4.3554 -1.9306
  144OSM   H13C15786   4.641   0.817   6.323 -1.3211 -1.7918  0.9494
  144OSM    C1215787   4.796   0.534   6.369  0.0903  0.2032 -0.7868
  144OSM   H12A15788   4.740   0.497   6.454  0.3931 -1.1746 -1.1607
  144OSM   H12B15789   4.890   0.579   6.397 -0.0173 -0.3128  0.4620
  144OSM    C1115790   4.845   0.405   6.289  0.5192 -0.5417 -0.0135
  144OSM   H11A15791   4.923   0.362   6.355  1.6034  1.8424  0.3678
  144OSM   H11B15792   4.900   0.449   6.203 -0.2791  0.7738  0.1293
  144OSM      P15793   4.710   0.185   6.328  0.0071 -0.3202  0.2752
  144OSM    O1315794   4.565   0.141   6.321 -0.5660 -0.0639  0.2147
  144OSM    O1415795   4.815   0.098   6.267 -0.9775 -0.4987 -0.1876
  144OSM    O1115796   4.750   0.201   6.478  0.3976 -0.0567  0.8906
  144OSM    O1215797   4.728   0.326   6.256  0.4822 -0.6092  0.0957
  144OSM    C1S15798   4.656   0.179   6.587 -0.7978  0.6127 -0.1612
  144OSM    H1S15799   4.554   0.143   6.562 -0.2856 -1.6535  0.7829
  144OSM    H1T15800   4.646   0.272   6.647  0.9125  1.2762 -0.8306
  144OSM     NF15801   4.607   0.029   6.779  0.1688  0.2115 -0.4032
  144OSM    HNF15802   4.649   0.050   6.867  1.2720  1.6430 -1.2306
  144OSM    C2S15803   4.707   0.050   6.673  0.5923  0.4827  0.0893
  144OSM    H2S15804   4.702  -0.039   6.605  0.9472 -1.1780  2.1406
  144OSM    C3S15805   4.846   0.088   6.726  0.5908  0.6905  0.2450
  144OSM    H3S15806   4.826   0.163   6.805 -0.1332 -0.7163  1.4483
  144OSM     O315807   4.936   0.141   6.629  0.4508 -0.5239  0.2621
  144OSM    HO315808   4.880   0.174   6.558  0.6620 -0.6283  0.0438
  144OSM    C4S15809   4.911  -0.027   6.792  0.2498  0.4748  0.6177
  144OSM    H4S15810   4.933  -0.122   6.742 -2.1845 -0.7650  1.7165
  144OSM    C5S15811   4.959  -0.020   6.914 -0.3925 -0.0866 -0.4792
  144OSM    H5S15812   4.965   0.068   6.980  1.2317 -1.5536  1.4674
  144OSM    C6S15813   5.027  -0.136   6.985 -0.4365  0.5353 -0.1275
  144OSM    H6S15814   5.137  -0.125   6.980 -0.2876 -1.0539 -1.2504
  144OSM    H6T15815   5.000  -0.230   6.931 -0.0315  0.5116 -0.2954
  144OSM    C7S15816   4.989  -0.140   7.133 -0.0633 -0.3899  0.2293
  144OSM    H7S15817   4.883  -0.170   7.151 -0.8947  2.2908  0.2914
  144OSM    H7T15818   4.993  -0.035   7.168 -0.5961 -0.2138 -0.2134
  144OSM    C8S15819   5.078  -0.218   7.229 -0.1599  0.2520 -0.5505
  144OSM    H8S15820   5.185  -0.192   7.213 -0.3858  0.6184 -1.4557
  144OSM    H8T15821   5.065  -0.325   7.203  1.2161  0.1929 -1.0751
  144OSM    C9S15822   5.051  -0.192   7.375  0.4047 -0.1453  0.2335
  144OSM    H9S15823   5.020  -0.086   7.387  2.1899  0.4210  0.1552
  144OSM    H9T15824   5.134  -0.206   7.447  1.0169  0.6544 -0.2939
  144OSM   C10S15825   4.934  -0.273   7.432 -0.4278  0.0233  0.0137
  144OSM   H10S15826   4.950  -0.383   7.442  0.0010  0.0779 -0.0250
  144OSM   H10T15827   4.863  -0.244   7.352  0.2388 -0.3381 -0.7320
  144OSM   C11S15828   4.886  -0.236   7.579  0.0766 -0.3880 -0.5285
  144OSM   H11S15829   4.782  -0.272   7.599 -0.6619  1.4339 -0.8929
  144OSM   H11T15830   4.886  -0.125   7.574  1.0883 -0.3106  0.7523
  144OSM   C12S15831   4.982  -0.269   7.694  0.0562  0.1069 -0.4984
  144OSM   H12S15832   5.089  -0.257   7.666  0.1706 -2.3876 -1.3092
  144OSM   H12T15833   4.975  -0.378   7.708  1.1379  0.1525  0.5557
  144OSM   C13S15834   4.961  -0.179   7.817  0.9430  0.1111  0.1381
  144OSM   H13S15835   4.856  -0.189   7.852  0.5586 -1.6000 -1.3237
  144OSM   H13T15836   4.979  -0.073   7.790  1.2761 -0.1587 -0.7540
  144OSM   C14S15837   5.055  -0.222   7.931  0.3119  0.4891 -0.1081
  144OSM   H14S15838   5.163  -0.215   7.907  0.5265 -0.7560  0.3865
  144OSM   H14T15839   5.031  -0.330   7.946 -1.3683  0.7422 -0.7672
  144OSM   C15S15840   5.041  -0.149   8.059 -0.4865  0.4109 -0.5908
  144OSM   H15S15841   4.938  -0.175   8.090 -0.0026 -0.4682  0.3575
  144OSM   H15T15842   5.059  -0.040   8.061 -1.9569  0.6626  0.8462
  144OSM   C16S15843   5.127  -0.206   8.169 -0.4046 -0.0724 -0.3451
  144OSM   H16S15844   5.233  -0.175   8.158 -0.0374 -1.0052  0.3664
  144OSM   H16T15845   5.117  -0.316   8.168 -0.4232 -0.0708 -1.8463
  144OSM   C17S15846   5.068  -0.161   8.306  0.4229 -0.1333  0.0768
  144OSM   H17S15847   4.962  -0.194   8.312  0.7478 -1.3425 -0.5492
  144OSM   H17T15848   5.065  -0.051   8.322 -0.1394  0.1572 -1.7728
  144OSM   C18S15849   5.143  -0.220   8.429  0.0329 -0.5692 -0.4705
  144OSM   H18S15850   5.152  -0.330   8.419 -1.5760 -0.8057  0.4834
  144OSM   H18T15851   5.092  -0.189   8.522 -0.1943 -0.9413 -0.4697
  144OSM   H18U15852   5.243  -0.173   8.440 -0.5323  0.4582  0.5003
  144OSM    C1F15853   4.476   0.004   6.767 -0.3171  0.2189 -0.3150
  144OSM     OF15854   4.420  -0.033   6.659  0.8099  0.0793  0.7658
  144OSM    C2F15855   4.405   0.027   6.898 -0.0322  0.4794 -1.2803
  144OSM    H2F15856   4.425   0.129   6.936  0.7568 -0.2123  0.2421
  144OSM    H2G15857   4.444  -0.047   6.971 -0.5175  0.7833 -0.7093
  144OSM    C3F15858   4.254   0.004   6.879 -0.0711  0.6894  0.1909
  144OSM    H3F15859   4.236  -0.098   6.838 -1.6264  0.7946  0.5373
  144OSM    H3G15860   4.212   0.065   6.797 -0.4538 -0.3487 -0.4115
  144OSM    C4F15861   4.157   0.011   7.005  0.4214 -0.9811  0.6994
  144OSM    H4F15862   4.069  -0.050   6.977 -2.4699  2.6524  1.1063
  144OSM    H4G15863   4.128   0.118   7.006  2.3775 -0.3085 -2.1816
  144OSM    C5F15864   4.221  -0.043   7.137  0.7749 -0.0723  0.6472
  144OSM    H5F15865   4.298   0.034   7.159  0.7559 -0.1026  0.8234
  144OSM    H5G15866   4.276  -0.139   7.140  2.9954  1.0942 -0.3906
  144OSM    C6F15867   4.119  -0.025   7.256 -0.1383  0.4998  0.2430
  144OSM    H6F15868   4.046  -0.105   7.232  2.3563 -1.6013 -0.8681
  144OSM    H6G15869   4.064   0.072   7.261 -1.5640 -0.2382 -0.3754
  144OSM    C7F15870   4.198  -0.049   7.387 -0.5977 -0.2076  0.3610
  144OSM    H7F15871   4.286   0.019   7.383 -0.9900  0.2910 -0.0468
  144OSM    H7G15872   4.256  -0.143   7.396 -0.2601  0.0681  1.1206
  144OSM    C8F15873   4.128  -0.016   7.520 -0.1334  0.1122  0.0565
  144OSM    H8F15874   4.095   0.090   7.518  2.2449  1.1905  4.5153
  144OSM    H8G15875   4.198  -0.016   7.606 -2.5194  2.1111  2.1364
  144OSM    C9F15876   4.020  -0.115   7.552 -0.2452  0.3983 -0.2160
  144OSM    H9F15877   3.961  -0.150   7.466 -0.0992 -3.0479  0.9425
  144OSM   C10F15878   3.999  -0.180   7.669  0.4376 -0.1765  0.7126
  144OSM   H10F15879   3.918  -0.254   7.662 -0.0815  0.3740  0.8530
  144OSM   C11F15880   4.072  -0.173   7.797  0.9138  0.7701 -0.0919
  144OSM   H11F15881   4.163  -0.113   7.779  0.1870  1.8006 -0.4215
  144OSM   H11G15882   4.094  -0.275   7.836 -0.8234  1.3115  2.6182
  144OSM   C12F15883   3.979  -0.118   7.911 -0.3501 -0.5818  0.0364
  144OSM   H12F15884   3.911  -0.043   7.864  1.3781  1.3716  0.4680
  144OSM   H12G15885   4.032  -0.070   7.995 -0.1627  0.2100 -0.5189
  144OSM   C13F15886   3.885  -0.225   7.967  0.2822 -0.0550  0.3827
  144OSM   H13F15887   3.941  -0.312   8.009  1.4646  0.9968  1.0599
  144OSM   H13G15888   3.833  -0.275   7.882  1.2803 -0.4403 -0.0104
  144OSM   C14F15889   3.781  -0.155   8.052  0.3334 -0.4910 -0.4130
  144OSM   H14F15890   3.697  -0.225   8.072 -0.2743  0.4008  0.2225
  144OSM   H14G15891   3.737  -0.069   7.997  0.3581  0.4930  1.0442
  144OSM   C15F15892   3.836  -0.105   8.186 -0.2017 -0.3234  0.4507
  144OSM   H15F15893   3.860   0.003   8.176 -0.9709 -0.1766  0.0619
  144OSM   H15G15894   3.932  -0.159   8.203  0.1448 -0.3765 -1.4617
  144OSM   C16F15895   3.742  -0.121   8.305  0.1014 -0.3262  0.3328
  144OSM   H16F15896   3.705  -0.226   8.299  0.4079 -0.4235  0.1300
  144OSM   H16G15897   3.658  -0.053   8.277  1.4665  0.7917 -1.1743
  144OSM   C17F15898   3.807  -0.088   8.439  0.0807  0.2232 -1.2019
  144OSM   H17F15899   3.817   0.022   8.443  1.4768  0.0946  1.2192
  144OSM   H17G15900   3.908  -0.133   8.452 -0.4124 -0.3941  0.9433
  144OSM   C18F15901   3.730  -0.128   8.566  0.4618 -0.8383  0.2560
  144OSM   H18F15902   3.717  -0.236   8.587 -0.6661 -1.1149 -1.6425
  144OSM   H18G15903   3.636  -0.074   8.540  1.2164 -0.2639 -1.4577
  144OSM   H18H15904   3.774  -0.081   8.656  0.9362 -0.0159 -0.3929
  145SAPE     N15905   3.152   2.126  11.149  0.6149 -0.0665  1.1937
  145SAPE   HN115906   3.107   2.091  11.062 -1.6770  2.7092  1.0956
  145SAPE   HN215907   3.201   2.216  11.131 -1.4939  0.6989 -1.3976
  145SAPE   HN315908   3.225   2.066  11.192  2.6300  2.7250  1.9657
  145SAPE   C1215909   3.030   2.153  11.232  0.0640  0.2421  0.6626
  145SAPE  H12A15910   3.062   2.164  11.337  1.0486 -1.3774  0.5675
  145SAPE  H12B15911   2.960   2.067  11.236  0.4108 -0.1895 -1.3568
  145SAPE   C1115912   2.953   2.279  11.180 -0.9699  0.5299 -0.7556
  145SAPE  H11A15913   2.857   2.282  11.235 -2.0768 -2.8846 -2.2183
  145SAPE  H11B15914   2.941   2.244  11.075  0.3201 -2.8721  0.0924
  145SAPE     P15915   2.951   2.529  11.108 -0.4123 -0.0853  0.1660
  145SAPE   O1315916   2.823   2.549  11.172 -0.7840  0.4817 -0.1039
  145SAPE   O1415917   3.045   2.649  11.100  0.2838 -0.0644  0.3106
  145SAPE   O1215918   3.030   2.402  11.175 -0.0508 -0.0728 -0.2388
  145SAPE   O1115919   2.925   2.467  10.961 -0.2822  0.0612 -0.5515
  145SAPE    C115920   3.029   2.401  10.879  0.1420 -0.8203 -0.2146
  145SAPE    HA15921   3.119   2.465  10.866  0.0138 -0.8414 -1.2797
  145SAPE    HB15922   3.068   2.309  10.927  1.7973 -0.3748 -0.6359
  145SAPE    C215923   2.987   2.364  10.734  0.3069  0.6908 -0.3631
  145SAPE    HS15924   3.074   2.307  10.697  0.6271  1.3357 -0.6148
  145SAPE   O2115925   2.974   2.480  10.651 -0.0413 -0.2210  0.4751
  145SAPE   C2115926   2.998   2.458  10.519  0.2958  0.5302 -0.1907
  145SAPE   O2215927   3.035   2.350  10.475  0.0352  0.0244 -1.2882
  145SAPE   C2215928   2.980   2.581  10.434  0.0167  0.0839  0.4129
  145SAPE   H2R15929   2.870   2.594  10.432  0.1692  1.5572 -0.3447
  145SAPE   H2S15930   3.019   2.670  10.488 -1.3825  0.1575  1.3441
  145SAPE    C315931   2.854   2.286  10.730  0.1850 -0.3494 -0.6901
  145SAPE    HX15932   2.779   2.362  10.760  1.3463  0.3751  0.4752
  145SAPE    HY15933   2.857   2.210  10.810  1.2844 -0.0344 -0.4248
  145SAPE   O3115934   2.818   2.229  10.604 -0.1310 -0.4450  0.3867
  145SAPE   C3115935   2.886   2.124  10.568  0.1461 -0.2369  0.3403
  145SAPE   O3215936   2.974   2.075  10.630 -0.2931  0.6081 -0.7578
  145SAPE   C3215937   2.813   2.063  10.433 -0.0217 -0.1951  0.3975
  145SAPE   H2X15938   2.724   2.127  10.414 -1.0242 -1.5526  0.3541
  145SAPE   H2Y15939   2.774   1.962  10.458 -2.0665  0.9530  2.1089
  145SAPE   C2315940   3.045   2.570  10.293 -0.1353 -0.6937  0.2452
  145SAPE   H3R15941   3.156   2.564  10.303  0.1955  1.6090 -1.3349
  145SAPE   H3S15942   3.039   2.671  10.248  0.7191 -0.5112  0.5170
  145SAPE   C2415943   2.989   2.462  10.195  0.2088  0.1096 -0.4562
  145SAPE   H4R15944   2.991   2.361  10.242  0.0923  0.8454  1.2021
  145SAPE   H4S15945   3.051   2.466  10.103  1.0565  0.5249  0.1111
  145SAPE   C2515946   2.844   2.488  10.157  0.9525 -0.6847  0.1820
  145SAPE   H5R15947   2.786   2.544  10.232  1.2046  0.4901 -0.4577
  145SAPE   C2615948   2.787   2.477  10.038 -0.1692  0.6350  0.4947
  145SAPE   H6R15949   2.679   2.485  10.022 -0.2074 -1.6740 -0.9609
  145SAPE   C2715950   2.855   2.412   9.919  0.4205  0.0741  0.3149
  145SAPE   H7R15951   2.795   2.341   9.857 -2.9494  0.7998  2.4717
  145SAPE   H7S15952   2.940   2.353   9.960  0.3374 -0.0455  0.3167
  145SAPE   C2815953   2.906   2.526   9.831  0.6020 -0.0974 -0.2670
  145SAPE   H8R15954   2.956   2.607   9.885  0.4284  0.5852 -1.1228
  145SAPE   C2915955   2.910   2.534   9.692  0.5315  0.4160  0.2052
  145SAPE   H9R15956   2.959   2.619   9.644  1.2827  0.5600  1.1848
  145SAPE  C21015957   2.862   2.421   9.600 -1.0433  0.4274 -0.2495
  145SAPE  H10R15958   2.850   2.325   9.653  0.8012  0.6496  0.6310
  145SAPE  H10S15959   2.945   2.391   9.532  1.2514 -0.9965  2.9341
  145SAPE  C21115960   2.730   2.443   9.529  0.0135  0.2820 -0.0860
  145SAPE  H11R15961   2.643   2.435   9.596 -1.8566 -2.6351 -2.5729
  145SAPE  C21215962   2.709   2.492   9.405  0.4671  0.4468 -0.8477
  145SAPE  H12R15963   2.602   2.503   9.383  0.3498 -0.3460 -0.7049
  145SAPE  C21315964   2.817   2.541   9.311  0.5982  1.0436 -0.2151
  145SAPE  H13R15965   2.821   2.463   9.232  1.3441  0.2598  0.5781
  145SAPE  H13S15966   2.919   2.541   9.356  1.2920  1.2293 -1.7214
  145SAPE  C21415967   2.793   2.674   9.253  0.4513 -0.5494  0.4307
  145SAPE  H14R15968   2.765   2.749   9.328 -0.4251 -1.1626  0.7189
  145SAPE  C21515969   2.789   2.727   9.126  0.0791 -0.5691  0.0280
  145SAPE  H15R15970   2.768   2.830   9.094  0.6352 -0.9400 -1.6645
  145SAPE  C21615971   2.813   2.650   8.998 -0.0172  0.2821  0.1350
  145SAPE  H16R15972   2.892   2.575   9.021 -1.7091 -0.8974  2.4664
  145SAPE  H16S15973   2.863   2.711   8.920 -1.3508 -2.4185 -3.0538
  145SAPE  C21715974   2.702   2.554   8.943 -0.8340  0.0879  0.0670
  145SAPE  H17R15975   2.689   2.467   9.010  1.0922  0.6853  1.3007
  145SAPE  H17S15976   2.731   2.519   8.843  1.4977  0.1735  0.6637
  145SAPE  C21815977   2.558   2.622   8.930  0.8532  0.5853  0.0960
  145SAPE  H18R15978   2.571   2.718   8.876  0.4836 -0.0225 -1.0813
  145SAPE  H18S15979   2.529   2.634   9.037  0.1239  1.5434 -0.2001
  145SAPE  C21915980   2.461   2.538   8.846 -0.4792  0.8797 -0.3618
  145SAPE  H19R15981   2.475   2.431   8.874  0.6726  2.2053  5.3210
  145SAPE  H19S15982   2.500   2.536   8.742 -0.7261 -1.0223 -0.4546
  145SAPE  C22015983   2.318   2.567   8.845 -0.0052 -0.4359 -1.2626
  145SAPE  H20R15984   2.285   2.533   8.945  1.8309 -0.1043 -0.5148
  145SAPE  H20S15985   2.270   2.512   8.761 -0.3991  3.1758 -3.6274
  145SAPE  H20T15986   2.294   2.676   8.843  1.4487 -0.0679 -0.4564
  145SAPE   C3315987   2.908   2.068  10.310  0.5196 -0.1522 -0.0697
  145SAPE   H3X15988   3.003   2.124  10.325  0.6124 -0.7632  1.8280
  145SAPE   H3Y15989   2.856   2.123  10.228  2.0414  0.1124 -0.8972
  145SAPE   C3415990   2.938   1.923  10.250  0.2946 -0.1490 -0.7660
  145SAPE   H4X15991   2.849   1.875  10.205  0.9732 -1.8561 -0.3451
  145SAPE   H4Y15992   2.991   1.862  10.326  0.0314  1.0651  0.4215
  145SAPE   C3515993   3.035   1.926  10.132 -0.8899 -0.1140  0.0042
  145SAPE   H5X15994   3.078   1.826  10.110  1.8694  1.0473 -0.2409
  145SAPE   H5Y15995   3.124   1.977  10.175  0.4441 -2.5533  0.3339
  145SAPE   C3615996   2.991   1.998   9.999  0.4016  0.6537 -0.4212
  145SAPE   H6X15997   2.963   2.104  10.020 -1.8599 -0.4626  2.8933
  145SAPE   H6Y15998   2.896   1.953   9.965  0.1073 -0.5663  1.8780
  145SAPE   C3715999   3.090   1.988   9.883  0.0654 -0.3601 -0.8845
  145SAPE   H7X16000   3.097   1.881   9.857 -1.3299 -1.1503  1.6151
  145SAPE   H7Y16001   3.189   2.027   9.916  0.4449 -1.3421 -0.8425
  145SAPE   C3816002   3.040   2.065   9.761  0.3840 -0.1732  0.3005
  145SAPE   H8X16003   3.041   2.173   9.784  0.4107 -0.7050  3.0698
  145SAPE   H8Y16004   2.938   2.022   9.747  0.1228  0.5172  0.0681
  145SAPE   C3916005   3.118   2.025   9.628  0.3746 -0.5960 -0.2001
  145SAPE   H9X16006   3.092   1.919   9.606 -0.1822 -0.6677  0.7552
  145SAPE   H9Y16007   3.224   2.040   9.655 -0.7516 -0.7610  5.3858
  145SAPE  C31016008   3.058   2.105   9.517 -0.1959 -0.0478  0.3667
  145SAPE  H10X16009   3.083   2.211   9.537 -3.6985  0.5902  1.9938
  145SAPE  H10Y16010   2.951   2.078   9.518  0.1077 -1.3318 -0.0091
  145SAPE  C31116011   3.114   2.069   9.379 -0.0038 -0.1467 -0.1461
  145SAPE  H11X16012   3.063   2.136   9.307  2.0338  1.0533 -0.5145
  145SAPE  H11Y16013   3.116   1.961   9.352  1.3004 -0.2959  0.5187
  145SAPE  C31216014   3.268   2.102   9.369 -0.0517 -0.0121 -0.1849
  145SAPE  H12X16015   3.304   2.062   9.466  0.6025  1.0343  0.0157
  145SAPE  H12Y16016   3.283   2.212   9.364 -0.3842 -0.0075 -1.6078
  145SAPE  C31316017   3.338   2.037   9.245  0.4280  0.0769  0.1003
  145SAPE  H13X16018   3.333   1.926   9.245 -1.5076  0.1096  1.5122
  145SAPE  H13Y16019   3.443   2.073   9.241 -0.1845  2.0527  0.6820
  145SAPE  C31416020   3.270   2.083   9.107 -0.2756  0.5783  0.4584
  145SAPE  H14X16021   3.277   2.194   9.115  0.9874  0.7173 -1.8868
  145SAPE  H14Y16022   3.162   2.057   9.098  0.0688 -0.4625 -0.9319
  145SAPE  C31516023   3.356   2.046   8.980 -0.0626  0.3078  0.4667
  145SAPE  H15X16024   3.366   1.936   8.990 -1.2148  0.1508  0.1255
  145SAPE  H15Y16025   3.458   2.089   8.983 -0.0938  0.3286  1.4781
  145SAPE  C31616026   3.290   2.088   8.851  1.0982 -0.8534  0.0714
  145SAPE  H16X16027   3.297   2.197   8.826 -1.0391 -1.5151 -4.3972
  145SAPE  H16Y16028   3.182   2.081   8.877  0.9239 -0.5936 -0.5567
  145SAPE  C31716029   3.325   2.003   8.726  0.0450  0.0196 -0.0028
  145SAPE  H17X16030   3.301   1.900   8.760  0.5231  0.0453  0.4426
  145SAPE  H17Y16031   3.431   2.005   8.693 -0.2944 -1.7917 -1.3207
  145SAPE  C31816032   3.236   2.034   8.609 -0.1926 -0.4168 -0.2123
  145SAPE  H18X16033   3.265   2.138   8.583  2.1932 -1.1876 -0.8892
  145SAPE  H18Y16034   3.129   2.036   8.641  0.3915  0.8983  1.8839
  145SAPE  H18Z16035   3.246   1.958   8.529 -0.0927  1.9022 -2.5347
  146SAPE     N16036   5.798   5.168  10.699  0.2244 -0.0503  0.3370
  146SAPE   HN116037   5.731   5.247  10.687  1.9137  2.0265  3.2479
  146SAPE   HN216038   5.805   5.164  10.803 -2.1580  3.3782  0.8001
  146SAPE   HN316039   5.883   5.212  10.658 -0.6799  2.6189  1.0858
  146SAPE   C1216040   5.754   5.033  10.640  0.8094 -0.4075 -1.0639
  146SAPE  H12A16041   5.666   5.047  10.574  0.8980 -0.8867 -1.2903
  146SAPE  H12B16042   5.714   4.970  10.722  0.7195  0.8355 -0.1142
  146SAPE   C1116043   5.870   4.970  10.561 -0.1531  0.2071  0.1132
  146SAPE  H11A16044   5.894   5.045  10.483  0.1094 -0.0913 -0.0986
  146SAPE  H11B16045   5.826   4.880  10.513  1.2803  0.0021 -0.8805
  146SAPE     P16046   6.115   5.007  10.633 -0.2255 -0.2464  0.3865
  146SAPE   O1316047   6.108   5.155  10.642 -0.5424  0.6374 -0.0329
  146SAPE   O1416048   6.220   4.948  10.716 -0.5291 -0.6307 -0.2450
  146SAPE   O1216049   5.977   4.936  10.651 -0.2384  0.5405  0.2725
  146SAPE   O1116050   6.149   4.978  10.483 -0.0851  0.4411  0.0042
  146SAPE    C116051   6.256   4.888  10.448 -0.0666 -0.4816  1.0144
  146SAPE    HA16052   6.352   4.941  10.465 -0.5422  0.1632  1.7437
  146SAPE    HB16053   6.261   4.796  10.510  0.8368 -1.1476 -0.0059
  146SAPE    C216054   6.252   4.852  10.298 -0.5829 -0.1054 -0.6380
  146SAPE    HS16055   6.311   4.760  10.277  2.2329  1.3578  0.4362
  146SAPE   O2116056   6.310   4.958  10.214 -0.4497 -0.2407 -0.4225
  146SAPE   C2116057   6.439   4.961  10.229 -0.2079 -0.2065 -0.2275
  146SAPE   O2216058   6.513   4.886  10.284 -0.2365  0.0436 -0.1192
  146SAPE   C2216059   6.500   5.077  10.151  1.0152  0.6355  0.0187
  146SAPE   H2R16060   6.420   5.147  10.120  0.7651  0.1451 -0.4436
  146SAPE   H2S16061   6.559   5.138  10.224  1.2620  0.1679  0.2127
  146SAPE    C316062   6.107   4.824  10.240 -0.1179  0.0357 -0.1688
  146SAPE    HX16063   6.040   4.900  10.287 -1.1532  0.3529 -2.0453
  146SAPE    HY16064   6.068   4.722  10.259 -3.2885  1.3839  1.4539
  146SAPE   O3116065   6.102   4.857  10.098  0.9018  0.3809 -0.5605
  146SAPE   C3116066   6.153   4.758  10.020  0.8711 -0.6408 -0.0971
  146SAPE   O3216067   6.193   4.653  10.061 -0.2816  0.4737  0.3633
  146SAPE   C3216068   6.125   4.795   9.872 -0.6022  0.3211  0.2305
  146SAPE   H2X16069   6.178   4.891   9.852 -0.9075  0.5812  0.6599
  146SAPE   H2Y16070   6.018   4.822   9.864 -0.0334  2.4331 -1.0055
  146SAPE   C2316071   6.589   5.033  10.034 -0.5952  0.5568 -0.1029
  146SAPE   H3R16072   6.666   4.960  10.066  3.6715  3.6348 -2.2814
  146SAPE   H3S16073   6.668   5.107  10.007  1.5627 -0.8418  1.9436
  146SAPE   C2416074   6.508   4.978   9.913 -0.3730 -0.2417 -0.1705
  146SAPE   H4R16075   6.413   4.929   9.943 -0.2144  0.3915  1.5019
  146SAPE   H4S16076   6.567   4.896   9.869 -0.7249  0.5046 -2.1369
  146SAPE   C2516077   6.473   5.091   9.814  0.0700  0.8251 -0.5991
  146SAPE   H5R16078   6.378   5.147   9.815 -0.8372 -0.6042 -1.9299
  146SAPE   C2616079   6.552   5.120   9.713 -0.2865 -0.1750  0.5674
  146SAPE   H6R16080   6.530   5.213   9.659  0.4821 -0.6542 -0.6018
  146SAPE   C2716081   6.687   5.056   9.674 -0.0478 -0.2499  0.4241
  146SAPE   H7R16082   6.675   4.992   9.584  0.9232  1.4881 -1.0094
  146SAPE   H7S16083   6.720   4.986   9.753 -2.0011 -0.3608  1.1899
  146SAPE   C2816084   6.787   5.168   9.651 -0.2577  0.3091  0.6573
  146SAPE   H8R16085   6.827   5.216   9.742  0.8727 -0.3900  0.5468
  146SAPE   C2916086   6.847   5.198   9.536 -0.8189 -0.2790 -0.4612
  146SAPE   H9R16087   6.923   5.278   9.542 -0.0708 -1.0044 -0.0919
  146SAPE  C21016088   6.826   5.134   9.397 -0.6059 -0.1043  0.2251
  146SAPE  H10R16089   6.798   5.030   9.422 -1.8700  0.4896  1.3941
  146SAPE  H10S16090   6.915   5.142   9.331 -0.6688  2.4837  0.3279
  146SAPE  C21116091   6.709   5.190   9.322  0.4010 -0.5536  0.8727
  146SAPE  H11R16092   6.616   5.133   9.331 -0.9376  1.3259 -0.3004
  146SAPE  C21216093   6.699   5.300   9.240  0.4587  0.2900 -0.1242
  146SAPE  H12R16094   6.602   5.316   9.190  0.7204 -0.5244 -0.9158
  146SAPE  C21316095   6.811   5.399   9.219  0.1350 -0.8303 -0.2962
  146SAPE  H13R16096   6.906   5.355   9.182  3.1139  3.2134  1.7680
  146SAPE  H13S16097   6.848   5.434   9.318 -1.8914  2.8178 -0.6546
  146SAPE  C21416098   6.777   5.508   9.127  0.0453 -1.1448  1.2254
  146SAPE  H14R16099   6.671   5.535   9.135 -0.1994 -1.3337 -0.7779
  146SAPE  C21516100   6.856   5.580   9.034  1.0634 -1.1609  0.0695
  146SAPE  H15R16101   6.824   5.669   8.977  0.1314 -2.2385 -1.1182
  146SAPE  C21616102   7.005   5.554   9.011 -0.6461  0.2245 -0.0105
  146SAPE  H16R16103   7.043   5.499   9.100 -0.8570 -1.6640 -1.0382
  146SAPE  H16S16104   7.054   5.653   9.008 -1.7966  0.7960 -0.6065
  146SAPE  C21716105   7.027   5.459   8.888 -0.2122 -0.1326 -0.1556
  146SAPE  H17R16106   6.980   5.496   8.794 -0.1610 -1.5420 -0.7681
  146SAPE  H17S16107   6.992   5.357   8.915 -2.7098  0.6036 -0.3458
  146SAPE  C21816108   7.178   5.445   8.860  0.2922 -0.3577 -0.4361
  146SAPE  H18R16109   7.230   5.410   8.953 -0.4542  1.5142  0.7405
  146SAPE  H18S16110   7.218   5.549   8.857 -0.6242  0.1137  1.5722
  146SAPE  C21916111   7.214   5.366   8.731  0.4601 -0.5659 -0.5833
  146SAPE  H19R16112   7.174   5.431   8.651  1.1886  0.7913  0.1210
  146SAPE  H19S16113   7.167   5.265   8.726 -0.5860 -0.0514 -3.5406
  146SAPE  C22016114   7.361   5.363   8.717  0.3468 -0.3007  0.0393
  146SAPE  H20R16115   7.404   5.464   8.700  1.3802 -0.9679 -1.5880
  146SAPE  H20S16116   7.400   5.304   8.631  4.1211 -0.2806  1.5755
  146SAPE  H20T16117   7.409   5.310   8.802 -0.9510  0.3261  1.2048
  146SAPE   C3316118   6.188   4.695   9.774  0.2019  0.6079 -0.6130
  146SAPE   H3X16119   6.134   4.598   9.790  0.7584  0.3907  0.0041
  146SAPE   H3Y16120   6.295   4.680   9.800 -0.1830 -0.9054  0.2392
  146SAPE   C3416121   6.169   4.734   9.630  0.7332 -0.3027  0.2644
  146SAPE   H4X16122   6.077   4.792   9.605  1.2229 -0.6644 -2.6814
  146SAPE   H4Y16123   6.184   4.636   9.581 -0.8814 -1.3815  1.8034
  146SAPE   C3516124   6.280   4.831   9.568 -0.5144 -0.0581 -0.9766
  146SAPE   H5X16125   6.375   4.774   9.571 -0.4964 -0.0055 -0.1668
  146SAPE   H5Y16126   6.299   4.920   9.631 -0.0050 -0.1232 -1.0382
  146SAPE   C3616127   6.251   4.880   9.428  0.1737 -0.3291 -0.4818
  146SAPE   H6X16128   6.182   4.967   9.431  0.8433  0.1814  0.3874
  146SAPE   H6Y16129   6.199   4.794   9.380  1.1160 -0.6477 -0.9679
  146SAPE   C3716130   6.380   4.925   9.358  0.4763  0.7659  0.3731
  146SAPE   H7X16131   6.458   4.847   9.375 -0.2548  0.1715  1.1164
  146SAPE   H7Y16132   6.422   5.024   9.383  2.1553  0.1152  0.2723
  146SAPE   C3816133   6.353   4.918   9.208  0.1398  0.0513 -0.8323
  146SAPE   H8X16134   6.274   4.997   9.206  0.5570  0.4518 -2.0032
  146SAPE   H8Y16135   6.318   4.817   9.180 -2.6778  0.7627 -0.1793
  146SAPE   C3916136   6.479   4.950   9.129 -0.2689  0.1800  0.4153
  146SAPE   H9X16137   6.549   4.866   9.147 -1.4632 -0.6265  1.5424
  146SAPE   H9Y16138   6.518   5.052   9.151 -3.2389  2.1477 -2.3594
  146SAPE  C31016139   6.452   4.943   8.978  0.6202 -0.3725  0.4129
  146SAPE  H10X16140   6.413   4.843   8.948 -1.4918  0.9453 -1.5887
  146SAPE  H10Y16141   6.544   4.948   8.916  1.5429 -0.8154  1.7130
  146SAPE  C31116142   6.359   5.059   8.935 -0.4169 -0.9974 -0.5950
  146SAPE  H11X16143   6.393   5.152   8.986 -1.0287 -1.2193  0.2505
  146SAPE  H11Y16144   6.252   5.038   8.959 -0.4775 -1.1287 -0.9769
  146SAPE  C31216145   6.362   5.063   8.784  0.1275  0.2776  0.5180
  146SAPE  H12X16146   6.323   4.968   8.741 -0.5857  1.8444 -2.5729
  146SAPE  H12Y16147   6.461   5.072   8.734 -0.3444 -0.5443 -0.6114
  146SAPE  C31316148   6.275   5.183   8.727 -1.0365  0.0714  0.3404
  146SAPE  H13X16149   6.311   5.273   8.780 -1.7775  1.8497 -1.9970
  146SAPE  H13Y16150   6.169   5.168   8.755 -1.2053  0.4890 -0.0624
  146SAPE  C31416151   6.288   5.222   8.574 -0.3477 -0.0735 -0.0544
  146SAPE  H14X16152   6.253   5.133   8.517  1.4124 -0.5933 -0.3878
  146SAPE  H14Y16153   6.392   5.243   8.543  0.4683 -2.5396  0.7366
  146SAPE  C31516154   6.213   5.347   8.534  0.2999 -0.2805 -0.7986
  146SAPE  H15X16155   6.236   5.429   8.605 -0.1446 -1.0629  0.2755
  146SAPE  H15Y16156   6.103   5.332   8.545  0.0163  1.4922 -0.8644
  146SAPE  C31616157   6.214   5.387   8.382  0.0213 -0.4668  0.4234
  146SAPE  H16X16158   6.212   5.294   8.319 -1.1928  1.4110 -2.5404
  146SAPE  H16Y16159   6.313   5.435   8.364 -1.4388  3.4162  1.7701
  146SAPE  C31716160   6.103   5.485   8.343 -0.1291 -0.1658  0.7253
  146SAPE  H17X16161   6.097   5.564   8.422  0.2115  0.6070  0.0013
  146SAPE  H17Y16162   6.007   5.429   8.343 -0.3797  0.0962 -2.3590
  146SAPE  C31816163   6.127   5.558   8.203 -0.5661 -0.3948  0.0406
  146SAPE  H18X16164   6.216   5.624   8.206  0.1534 -1.2686 -1.2939
  146SAPE  H18Y16165   6.032   5.611   8.180 -1.4439 -1.2316  1.5461
  146SAPE  H18Z16166   6.146   5.472   8.136  2.1098  0.7164 -0.7381
  147SAPE     N16167   1.990   0.268  11.027 -0.3625  0.2487 -0.3188
  147SAPE   HN116168   2.065   0.202  11.001  0.3612  1.1001 -0.4249
  147SAPE   HN216169   2.029   0.348  11.080  1.5271  0.5786 -2.1159
  147SAPE   HN316170   1.920   0.221  11.088  0.7085 -1.4650 -0.3663
  147SAPE   C1216171   1.929   0.317  10.906  0.3324 -0.2390  0.1673
  147SAPE  H12A16172   1.846   0.383  10.940 -0.1629 -1.0741  0.6425
  147SAPE  H12B16173   1.892   0.225  10.855  1.5940  0.3901 -2.0085
  147SAPE   C1116174   2.022   0.392  10.804  0.0790  0.2505 -0.7099
  147SAPE  H11A16175   1.954   0.448  10.736  0.4539  1.4014 -0.1569
  147SAPE  H11B16176   2.072   0.315  10.742  0.0630  2.1979 -3.2841
  147SAPE     P16177   2.229   0.553  10.808 -0.6284 -0.2637 -0.3325
  147SAPE   O1316178   2.261   0.678  10.892 -0.3624 -0.3744  0.2226
  147SAPE   O1416179   2.340   0.465  10.774  0.2761  0.6188 -0.3836
  147SAPE   O1216180   2.117   0.467  10.879 -0.0291  0.3450  0.2073
  147SAPE   O1116181   2.160   0.590  10.670  0.5869  0.2725  0.2818
  147SAPE    C116182   2.250   0.597  10.554 -0.4483 -1.0066  0.4755
  147SAPE    HA16183   2.321   0.682  10.566 -1.2556 -0.0188 -1.3293
  147SAPE    HB16184   2.317   0.510  10.538  1.8308  0.6675  0.3938
  147SAPE    C216185   2.186   0.634  10.410 -0.1983  0.3231 -0.5997
  147SAPE    HS16186   2.204   0.743  10.403  1.0415  0.0887 -1.3196
  147SAPE   O2116187   2.044   0.617  10.408 -0.1034  0.6673  0.4198
  147SAPE   C2116188   1.960   0.676  10.488 -0.3586  0.0913 -0.0542
  147SAPE   O2216189   1.985   0.782  10.548  0.1084 -0.1424  0.0182
  147SAPE   C2216190   1.830   0.597  10.477  0.0922  0.4954  0.4850
  147SAPE   H2R16191   1.852   0.488  10.471 -2.2229 -0.0377  0.7257
  147SAPE   H2S16192   1.789   0.597  10.580  1.5606  3.6165  1.1790
  147SAPE    C316193   2.254   0.559  10.293  0.0390 -0.0180 -0.5078
  147SAPE    HX16194   2.228   0.456  10.322  0.1741  0.5125  1.6299
  147SAPE    HY16195   2.362   0.581  10.302  0.1324  0.1730 -1.8889
  147SAPE   O3116196   2.192   0.589  10.166  0.1940 -0.2662 -0.0103
  147SAPE   C3116197   2.238   0.698  10.117  0.4573 -1.0377 -0.1946
  147SAPE   O3216198   2.336   0.767  10.156 -0.2185 -0.8812 -0.4715
  147SAPE   C3216199   2.165   0.736   9.983 -0.0876  0.0157 -0.1853
  147SAPE   H2X16200   2.090   0.818   9.994  2.0182  2.1114 -0.7182
  147SAPE   H2Y16201   2.115   0.648   9.938 -2.0136 -0.3605  2.4468
  147SAPE   C2316202   1.738   0.646  10.363 -0.1983 -0.5926  0.5875
  147SAPE   H3R16203   1.693   0.745  10.385 -0.1048 -0.8186  1.8559
  147SAPE   H3S16204   1.657   0.571  10.352 -0.7226  0.0315  0.0932
  147SAPE   C2416205   1.807   0.644  10.225 -0.0460 -0.4057  0.5972
  147SAPE   H4R16206   1.861   0.548  10.213 -0.7528 -0.4924 -2.4711
  147SAPE   H4S16207   1.880   0.728  10.220 -1.4289  0.8026  0.1215
  147SAPE   C2516208   1.706   0.675  10.123 -0.4229 -0.4089  0.8202
  147SAPE   H5R16209   1.645   0.760  10.157  0.5227  1.0440 -0.9452
  147SAPE   C2616210   1.684   0.618  10.009  0.3800  0.5869  0.1119
  147SAPE   H6R16211   1.621   0.675   9.939  3.0922  0.9655 -2.2070
  147SAPE   C2716212   1.736   0.487   9.952  0.2642 -0.2789 -0.3103
  147SAPE   H7R16213   1.809   0.430  10.013  0.8735 -0.3642 -1.0974
  147SAPE   H7S16214   1.805   0.509   9.867 -0.1762 -0.6155 -0.7655
  147SAPE   C2816215   1.619   0.403   9.902  0.4288  0.3987 -0.0011
  147SAPE   H8R16216   1.612   0.310   9.959  0.1652 -1.0682 -2.2752
  147SAPE   C2916217   1.532   0.415   9.793  0.2773  0.9090 -0.4880
  147SAPE   H9R16218   1.471   0.328   9.764  0.0753  0.4879  1.0823
  147SAPE  C21016219   1.533   0.526   9.692 -0.0881 -0.4302  0.6124
  147SAPE  H10R16220   1.595   0.615   9.717  1.0455 -1.2423  0.7570
  147SAPE  H10S16221   1.427   0.562   9.693 -0.5143 -1.6384  0.1581
  147SAPE  C21116222   1.589   0.471   9.560 -0.2476 -0.2242  0.1096
  147SAPE  H11R16223   1.683   0.414   9.564  0.8237  1.4828  0.8172
  147SAPE  C21216224   1.548   0.505   9.441 -0.2786 -0.2678 -0.1387
  147SAPE  H12R16225   1.603   0.461   9.356  1.1527  1.9466 -0.4105
  147SAPE  C21316226   1.427   0.596   9.415 -0.1953  0.3252  0.1476
  147SAPE  H13R16227   1.393   0.641   9.511  0.2698 -0.1892  0.5557
  147SAPE  H13S16228   1.343   0.534   9.377  0.3969 -1.2280  1.2813
  147SAPE  C21416229   1.469   0.712   9.325  0.0234 -0.3714 -0.0438
  147SAPE  H14R16230   1.570   0.755   9.339 -0.5845  1.1248 -0.0332
  147SAPE  C21516231   1.398   0.773   9.235  0.7356  0.3262  0.3369
  147SAPE  H15R16232   1.438   0.862   9.184 -0.9576  1.0796  0.2303
  147SAPE  C21616233   1.255   0.733   9.197 -0.2737  0.0638  0.1034
  147SAPE  H16R16234   1.182   0.757   9.277 -1.5170 -1.4429 -0.5002
  147SAPE  H16S16235   1.249   0.625   9.168 -0.0842 -0.0872  0.6227
  147SAPE  C21716236   1.204   0.809   9.071  0.2145  0.3634 -0.1582
  147SAPE  H17R16237   1.208   0.915   9.103 -0.0056  0.8442 -1.6193
  147SAPE  H17S16238   1.097   0.783   9.058 -0.1825  2.3479 -1.3104
  147SAPE  C21816239   1.277   0.777   8.935  0.9392  0.0749  0.3878
  147SAPE  H18R16240   1.228   0.689   8.889 -0.6108  0.5264  1.1202
  147SAPE  H18S16241   1.382   0.751   8.960  1.6246  0.3684 -1.8809
  147SAPE  C21916242   1.264   0.890   8.824  0.4409  0.3240 -0.5688
  147SAPE  H19R16243   1.308   0.982   8.868  0.2206 -0.6361  1.7934
  147SAPE  H19S16244   1.154   0.901   8.811 -0.3845 -2.6044  2.6143
  147SAPE  C22016245   1.328   0.857   8.692  0.5477  0.3084 -0.4957
  147SAPE  H20R16246   1.274   0.769   8.652 -1.7177  0.9117  1.0335
  147SAPE  H20S16247   1.437   0.836   8.689  0.3311 -0.8144 -1.9205
  147SAPE  H20T16248   1.313   0.934   8.613 -4.3526 -0.0347 -0.2180
  147SAPE   C3316249   2.262   0.793   9.875 -0.7884 -0.5746  0.4081
  147SAPE   H3X16250   2.337   0.724   9.832  0.8673  1.0419  0.5650
  147SAPE   H3Y16251   2.309   0.883   9.922 -1.3800  0.2700 -0.5678
  147SAPE   C3416252   2.181   0.853   9.753 -0.1132  0.0481 -1.0603
  147SAPE   H4X16253   2.256   0.913   9.697 -0.0190 -0.1089 -1.1035
  147SAPE   H4Y16254   2.112   0.933   9.786  1.1469  0.2311  1.3851
  147SAPE   C3516255   2.114   0.744   9.671 -0.2244 -0.2692 -0.6068
  147SAPE   H5X16256   2.034   0.702   9.736  1.3981  0.6654  2.2087
  147SAPE   H5Y16257   2.175   0.651   9.658 -1.6872 -1.2700 -0.5715
  147SAPE   C3616258   2.044   0.792   9.537 -0.2756  0.6177 -0.8724
  147SAPE   H6X16259   1.969   0.864   9.577  0.3013  0.5661  0.3359
  147SAPE   H6Y16260   1.987   0.703   9.502  1.8836 -1.0520 -0.3479
  147SAPE   C3716261   2.146   0.827   9.419  0.0296 -0.6646 -0.5378
  147SAPE   H7X16262   2.247   0.782   9.432  0.8324  1.0472 -0.6472
  147SAPE   H7Y16263   2.160   0.936   9.437  0.8454 -1.0557  1.4791
  147SAPE   C3816264   2.085   0.823   9.282  0.2330  0.9916  0.5225
  147SAPE   H8X16265   1.989   0.878   9.279 -0.1880  0.2499 -0.1196
  147SAPE   H8Y16266   2.056   0.718   9.259  1.3747  0.8460 -0.4233
  147SAPE   C3916267   2.176   0.874   9.164  0.1958  0.5125 -0.3621
  147SAPE   H9X16268   2.257   0.798   9.148  1.6949  1.4782  2.1023
  147SAPE   H9Y16269   2.219   0.966   9.208 -1.0279  0.9153  0.0124
  147SAPE  C31016270   2.101   0.903   9.035  0.1032  0.4782  0.2358
  147SAPE  H10X16271   2.039   0.992   9.060 -1.6003 -0.7001  0.3997
  147SAPE  H10Y16272   2.043   0.813   9.007  0.8302  1.0126 -3.5115
  147SAPE  C31116273   2.189   0.939   8.912  0.6092  0.1915 -0.0994
  147SAPE  H11X16274   2.244   0.847   8.884 -1.6114 -1.4911  0.7666
  147SAPE  H11Y16275   2.254   1.024   8.941  0.6852  0.2635 -0.4780
  147SAPE  C31216276   2.107   0.982   8.789 -0.0168  0.3646 -0.8039
  147SAPE  H12X16277   2.046   1.072   8.814 -3.1334 -2.1161  1.4001
  147SAPE  H12Y16278   2.036   0.901   8.761  1.7337 -0.9250 -1.6620
  147SAPE  C31316279   2.201   1.004   8.675  0.2637 -0.3829 -0.3517
  147SAPE  H13X16280   2.242   0.904   8.647  0.4421  0.7135 -4.7638
  147SAPE  H13Y16281   2.285   1.075   8.695 -0.5544  0.4752  0.0731
  147SAPE  C31416282   2.136   1.069   8.556  0.3242 -0.1381 -0.2894
  147SAPE  H14X16283   2.095   1.163   8.599  0.3854 -0.6500  0.9316
  147SAPE  H14Y16284   2.039   1.017   8.537 -0.3314 -0.2032  2.7510
  147SAPE  C31516285   2.237   1.085   8.444  0.2907 -0.0635 -0.2862
  147SAPE  H15X16286   2.266   0.987   8.400  3.5825  1.3069 -1.4785
  147SAPE  H15Y16287   2.331   1.126   8.486 -1.5667  2.0460  2.0703
  147SAPE  C31616288   2.183   1.185   8.336 -0.3786  0.3856 -0.2699
  147SAPE  H16X16289   2.145   1.275   8.389 -1.1780 -0.6091  0.9148
  147SAPE  H16Y16290   2.088   1.142   8.298 -0.4304 -0.2677  0.5800
  147SAPE  C31716291   2.281   1.241   8.218  0.0963  0.2302 -0.1557
  147SAPE  H17X16292   2.370   1.293   8.260  0.9121  0.5495 -2.1377
  147SAPE  H17Y16293   2.218   1.308   8.156  0.3242  1.1312  0.5655
  147SAPE  C31816294   2.335   1.123   8.137  0.0841  0.2795 -0.2414
  147SAPE  H18X16295   2.401   1.060   8.201 -0.6806  0.3620  0.6615
  147SAPE  H18Y16296   2.393   1.166   8.053 -2.0300  0.2058 -1.8273
  147SAPE  H18Z16297   2.246   1.063   8.109  0.0984  1.1244 -2.2368
  148SAPE     N16298   2.788   3.568  10.979 -0.0299  0.5921  0.1990
  148SAPE   HN116299   2.848   3.651  10.995  0.9040  0.2406 -1.2650
  148SAPE   HN216300   2.823   3.486  11.032 -0.4562 -0.7874 -1.5369
  148SAPE   HN316301   2.810   3.537  10.882  0.0376 -2.5503  1.1111
  148SAPE   C1216302   2.637   3.596  10.990  0.4602 -0.1501  0.9787
  148SAPE  H12A16303   2.613   3.684  10.926 -1.6102  0.6441  2.6944
  148SAPE  H12B16304   2.630   3.628  11.097  0.0821  2.2584  0.3020
  148SAPE   C1116305   2.549   3.480  10.956 -0.0117  0.1017  0.0513
  148SAPE  H11A16306   2.444   3.515  10.960  0.7064  2.3664  0.4863
  148SAPE  H11B16307   2.574   3.401  11.030 -1.4564 -0.6855 -0.2817
  148SAPE     P16308   2.525   3.292  10.779 -0.3164 -0.1204 -0.4627
  148SAPE   O1316309   2.639   3.223  10.713  0.1414 -0.4767  0.6541
  148SAPE   O1416310   2.456   3.236  10.902  0.0985 -0.0477  0.4123
  148SAPE   O1216311   2.576   3.432  10.826 -0.0952 -0.2952  0.9599
  148SAPE   O1116312   2.414   3.341  10.679  0.0877  0.0806 -0.2090
  148SAPE    C116313   2.376   3.473  10.652 -0.1434  0.7491  0.3241
  148SAPE    HA16314   2.265   3.474  10.645 -0.2087  4.1048  0.3391
  148SAPE    HB16315   2.405   3.546  10.731  0.6613 -0.1420  0.8735
  148SAPE    C216316   2.445   3.518  10.516  0.5062  0.0597 -0.1152
  148SAPE    HS16317   2.415   3.624  10.502  1.0620  0.0352 -1.6795
  148SAPE   O2116318   2.416   3.437  10.407 -0.6184 -0.4831 -0.3875
  148SAPE   C2116319   2.300   3.427  10.355  0.4663 -0.1644 -0.0940
  148SAPE   O2216320   2.198   3.489  10.387  0.4229 -0.2067  0.4537
  148SAPE   C2216321   2.302   3.322  10.243 -0.7062 -0.7371 -0.0649
  148SAPE   H2R16322   2.410   3.304  10.224 -0.3250  1.1144  0.1660
  148SAPE   H2S16323   2.238   3.235  10.268 -0.4366 -0.4226  1.8350
  148SAPE    C316324   2.600   3.523  10.522 -0.0360  0.5781  0.3332
  148SAPE    HX16325   2.634   3.418  10.514  1.9168  1.1503  0.7213
  148SAPE    HY16326   2.645   3.562  10.616 -0.9598 -0.9897  1.4698
  148SAPE   O3116327   2.653   3.602  10.415 -0.6102  0.0125 -0.0253
  148SAPE   C3116328   2.651   3.739  10.436 -0.8045  0.1635 -0.0090
  148SAPE   O3216329   2.599   3.787  10.532 -0.4329 -0.7400  0.2113
  148SAPE   C3216330   2.712   3.815  10.315 -0.1237  0.3324 -0.1609
  148SAPE   H2X16331   2.822   3.817  10.334 -0.2225  0.2035  0.4346
  148SAPE   H2Y16332   2.682   3.921  10.308 -0.5974  0.2674  0.8693
  148SAPE   C2316333   2.242   3.390  10.114 -0.4558 -0.7072 -0.4661
  148SAPE   H3R16334   2.135   3.419  10.122 -0.3052 -0.5223  1.3654
  148SAPE   H3S16335   2.248   3.320  10.028 -1.5042 -0.6758 -0.5721
  148SAPE   C2416336   2.326   3.516  10.074 -0.6302  0.0381 -0.3635
  148SAPE   H4R16337   2.324   3.594  10.154 -2.4465 -0.5081  0.1621
  148SAPE   H4S16338   2.277   3.575   9.994  0.5409  1.0057 -0.4060
  148SAPE   C2516339   2.472   3.480  10.033 -0.3108 -0.3558 -0.8359
  148SAPE   H5R16340   2.549   3.499  10.109  1.2237 -1.5610 -2.0325
  148SAPE   C2616341   2.514   3.434   9.914  0.0009 -0.3634  0.2864
  148SAPE   H6R16342   2.622   3.420   9.896  0.0858 -0.6554  0.9895
  148SAPE   C2716343   2.419   3.404   9.794 -0.5101 -0.4917 -0.4776
  148SAPE   H7R16344   2.313   3.433   9.811 -0.3517 -0.1013 -0.1467
  148SAPE   H7S16345   2.410   3.294   9.782 -0.6442 -0.3951 -1.3579
  148SAPE   C2816346   2.481   3.468   9.665  0.3229  0.1354 -0.8653
  148SAPE   H8R16347   2.441   3.562   9.624 -0.7410  0.5785  1.0388
  148SAPE   C2916348   2.580   3.407   9.598  0.1428 -0.2768  0.4922
  148SAPE   H9R16349   2.600   3.440   9.495  3.4842 -1.3713  0.6731
  148SAPE  C21016350   2.650   3.280   9.617 -0.2541 -0.2061  0.2170
  148SAPE  H10R16351   2.580   3.197   9.593 -0.1100  0.5630 -3.5849
  148SAPE  H10S16352   2.662   3.253   9.724  0.9701  1.3525  0.5037
  148SAPE  C21116353   2.765   3.256   9.523  0.0310  0.9983  0.2900
  148SAPE  H11R16354   2.863   3.282   9.567  0.6036  0.3933 -0.6088
  148SAPE  C21216355   2.767   3.205   9.396  0.3781  0.5270 -0.0119
  148SAPE  H12R16356   2.865   3.185   9.350  0.7950 -0.9317  1.4307
  148SAPE  C21316357   2.632   3.163   9.329 -0.3112  0.0363  0.0246
  148SAPE  H13R16358   2.656   3.205   9.228 -1.1226 -2.1870 -1.1671
  148SAPE  H13S16359   2.541   3.216   9.362  0.3592  0.0708  1.9233
  148SAPE  C21416360   2.589   3.019   9.316 -0.4386 -0.0076 -0.2187
  148SAPE  H14R16361   2.609   2.951   9.399  0.3969 -2.0386 -1.9978
  148SAPE  C21516362   2.524   2.965   9.215  0.3107 -1.1155 -0.9656
  148SAPE  H15R16363   2.504   2.857   9.207  0.2218 -1.0137 -2.2684
  148SAPE  C21616364   2.475   3.039   9.092 -0.4900  0.3735 -0.1374
  148SAPE  H16R16365   2.505   2.973   9.008 -0.2397 -0.0834  0.3094
  148SAPE  H16S16366   2.534   3.130   9.068  1.1390 -0.2508  1.3146
  148SAPE  C21716367   2.322   3.035   9.112  0.1273 -0.4639 -0.1535
  148SAPE  H17R16368   2.308   3.107   9.196  0.2067 -1.4657  0.7377
  148SAPE  H17S16369   2.282   2.938   9.148  1.6684 -1.0820 -0.0382
  148SAPE  C21816370   2.242   3.096   8.987 -0.1123  0.3039 -0.3561
  148SAPE  H18R16371   2.264   3.048   8.889 -1.2740  1.3767 -1.1731
  148SAPE  H18S16372   2.262   3.205   8.987 -3.8732  1.1618  1.2347
  148SAPE  C21916373   2.096   3.074   9.020  0.0421  0.5436 -0.2802
  148SAPE  H19R16374   2.073   3.128   9.114 -3.8697  0.8301 -1.2129
  148SAPE  H19S16375   2.079   2.967   9.041  0.9064  0.8175  2.0643
  148SAPE  C22016376   2.025   3.142   8.911  0.3148 -0.4425  0.3874
  148SAPE  H20R16377   1.915   3.149   8.926  0.4269  0.4294  0.9363
  148SAPE  H20S16378   2.059   3.094   8.817  0.7242 -0.5159  0.5686
  148SAPE  H20T16379   2.062   3.246   8.896 -2.3509  0.2571 -2.2026
  148SAPE   C3316380   2.695   3.747  10.177  0.2448 -0.1326  1.0595
  148SAPE   H3X16381   2.585   3.744  10.163  0.3004 -0.9622  0.7540
  148SAPE   H3Y16382   2.746   3.649  10.175  2.4323  0.9521 -0.2423
  148SAPE   C3416383   2.752   3.821  10.056 -0.0313 -0.6448 -0.4251
  148SAPE   H4X16384   2.863   3.831  10.063 -0.1804  0.4557  0.5708
  148SAPE   H4Y16385   2.722   3.927  10.050 -2.0252 -1.1223  0.3886
  148SAPE   C3516386   2.703   3.755   9.923 -0.0539 -0.6776 -0.6653
  148SAPE   H5X16387   2.592   3.762   9.925  0.0140  0.4571 -0.3123
  148SAPE   H5Y16388   2.727   3.647   9.930  0.7440 -0.4013  2.0309
  148SAPE   C3616389   2.752   3.830   9.792 -0.1140 -0.1291  0.3788
  148SAPE   H6X16390   2.858   3.862   9.802 -0.8891  3.0302 -0.2803
  148SAPE   H6Y16391   2.697   3.926   9.775  1.0353  0.4387 -0.2651
  148SAPE   C3716392   2.730   3.735   9.667  0.0178  0.5524  0.0709
  148SAPE   H7X16393   2.625   3.697   9.663  0.2477 -0.1246  0.2992
  148SAPE   H7Y16394   2.783   3.641   9.693  1.3557  1.3598  0.3482
  148SAPE   C3816395   2.786   3.779   9.536  0.1633  0.2536  0.2302
  148SAPE   H8X16396   2.895   3.799   9.544  0.5252 -1.5889  0.2149
  148SAPE   H8Y16397   2.729   3.865   9.493 -2.5434 -1.7999 -0.5929
  148SAPE   C3916398   2.758   3.669   9.431 -0.6234  0.0021 -0.0892
  148SAPE   H9X16399   2.648   3.653   9.428 -0.5249 -2.2751  3.0146
  148SAPE   H9Y16400   2.793   3.573   9.475  0.6189  1.0393  1.2910
  148SAPE  C31016401   2.824   3.697   9.298 -0.1892  0.4782 -0.1095
  148SAPE  H10X16402   2.777   3.618   9.236  0.0949 -1.9494  2.5527
  148SAPE  H10Y16403   2.933   3.684   9.315 -0.4732 -2.1686  0.2385
  148SAPE  C31116404   2.800   3.839   9.246  0.8662  0.1411  0.0206
  148SAPE  H11X16405   2.866   3.911   9.299 -0.0265  2.3485 -1.7205
  148SAPE  H11Y16406   2.691   3.860   9.252  1.2081  2.7281 -1.3924
  148SAPE  C31216407   2.839   3.859   9.100  0.0130 -0.3872  0.2080
  148SAPE  H12X16408   2.800   3.769   9.048  1.5215 -0.2696 -1.2094
  148SAPE  H12Y16409   2.950   3.858   9.092  0.0550  2.1548 -0.4219
  148SAPE  C31316410   2.779   3.977   9.026  0.0865 -0.2533  0.3880
  148SAPE  H13X16411   2.788   4.066   9.090 -1.7525  1.2845 -1.3638
  148SAPE  H13Y16412   2.669   3.969   9.021 -0.1528  2.6652 -0.9729
  148SAPE  C31416413   2.843   3.994   8.889  0.1657  0.2657  0.1056
  148SAPE  H14X16414   2.954   3.985   8.901  0.1187 -0.7435 -0.1590
  148SAPE  H14Y16415   2.829   4.096   8.847  0.6903  0.4508  0.3690
  148SAPE  C31516416   2.806   3.892   8.776  0.4773 -0.4533  0.7007
  148SAPE  H15X16417   2.696   3.875   8.775  0.5695 -1.5521 -2.4486
  148SAPE  H15Y16418   2.854   3.799   8.812 -0.0562  0.1689  3.2510
  148SAPE  C31616419   2.844   3.937   8.637 -0.3842  0.1734  0.6533
  148SAPE  H16X16420   2.838   4.048   8.632 -1.4365  0.1025 -0.0384
  148SAPE  H16Y16421   2.772   3.898   8.562  1.1456  2.7459 -2.3914
  148SAPE  C31716422   2.986   3.890   8.596  0.4638  0.2339  0.1695
  148SAPE  H17X16423   2.983   3.782   8.569  0.1573  0.3678 -0.3585
  148SAPE  H17Y16424   3.049   3.889   8.687  0.5150 -1.0236  0.1367
  148SAPE  C31816425   3.033   3.964   8.475 -0.4978  0.3697  0.3196
  148SAPE  H18X16426   3.045   4.072   8.495 -0.4626  0.7144 -1.4481
  148SAPE  H18Y16427   2.957   3.976   8.395 -0.6421  2.3361  0.7049
  148SAPE  H18Z16428   3.121   3.912   8.433 -1.5836 -3.0495  1.8708
  149SAPE     N16429   5.712   4.219  11.030 -0.4982  0.5519 -0.0463
  149SAPE   HN116430   5.659   4.268  11.106 -0.1006  4.1622 -1.8959
  149SAPE   HN216431   5.707   4.116  11.037  1.3878  0.3034 -1.6695
  149SAPE   HN316432   5.811   4.251  11.027 -0.5440  0.6859 -0.1375
  149SAPE   C1216433   5.631   4.253  10.906  0.6231  0.6260 -0.5277
  149SAPE  H12A16434   5.642   4.169  10.834 -0.9814  1.0955 -1.3869
  149SAPE  H12B16435   5.673   4.341  10.853  1.4077  0.3711 -0.3441
  149SAPE   C1116436   5.486   4.271  10.955  0.9795  0.1725  0.5578
  149SAPE  H11A16437   5.419   4.307  10.874 -1.4288  0.0457  2.3861
  149SAPE  H11B16438   5.471   4.352  11.030 -0.5919  1.3169 -0.9198
  149SAPE     P16439   5.284   4.089  10.976 -0.0764  0.7149  0.4670
  149SAPE   O1316440   5.295   3.947  11.018  0.0193 -0.1646  0.1417
  149SAPE   O1416441   5.180   4.158  11.052  0.1492  0.2171  0.3238
  149SAPE   O1216442   5.424   4.153  11.013 -1.1011  0.3283 -0.4622
  149SAPE   O1116443   5.264   4.093  10.819  0.6138  0.0389 -1.1029
  149SAPE    C116444   5.370   4.059  10.734  0.2970  0.8522 -0.0169
  149SAPE    HA16445   5.427   4.149  10.702  1.0801  0.0250 -1.0264
  149SAPE    HB16446   5.440   3.981  10.772  1.8905  1.1953 -2.0362
  149SAPE    C216447   5.297   3.993  10.604 -0.1031  0.3653 -0.3955
  149SAPE    HS16448   5.342   3.893  10.588  0.3638  1.0050 -3.6831
  149SAPE   O2116449   5.314   4.075  10.492  0.2797 -0.6922 -0.2217
  149SAPE   C2116450   5.431   4.077  10.437  0.0026  0.4160  0.4361
  149SAPE   O2216451   5.532   4.027  10.476  0.7994  0.0309 -0.1677
  149SAPE   C2216452   5.429   4.152  10.304 -0.0188 -0.5301  0.2084
  149SAPE   H2R16453   5.365   4.241  10.326 -0.7847 -1.1124  0.3904
  149SAPE   H2S16454   5.531   4.185  10.275 -0.6199  1.6146  0.3123
  149SAPE    C316455   5.141   3.965  10.626 -0.1117  0.4661  0.5172
  149SAPE    HX16456   5.083   4.047  10.673 -1.4434  0.0860 -0.4061
  149SAPE    HY16457   5.133   3.883  10.700 -0.3510 -1.4537 -1.5148
  149SAPE   O3116458   5.079   3.921  10.504 -0.3581  0.7854 -0.0491
  149SAPE   C3116459   5.015   4.016  10.433 -0.3472 -0.6070 -0.4625
  149SAPE   O3216460   5.001   4.131  10.478 -0.5435 -0.1732 -0.3098
  149SAPE   C3216461   4.950   3.959  10.313 -0.1309 -0.1271  0.2317
  149SAPE   H2X16462   4.843   3.929  10.319 -0.6638  1.7913  1.1227
  149SAPE   H2Y16463   5.003   3.864  10.292  1.9890  0.8514  0.8514
  149SAPE   C2316464   5.374   4.066  10.194 -0.1925  0.0404  0.7243
  149SAPE   H3R16465   5.272   4.023  10.207 -0.8530  0.9083 -1.1688
  149SAPE   H3S16466   5.435   3.973  10.187 -1.9488 -1.1199  0.0872
  149SAPE   C2416467   5.358   4.143  10.065 -0.4486  0.9369 -0.3181
  149SAPE   H4R16468   5.282   4.221  10.087 -1.4837  0.1548 -1.0106
  149SAPE   H4S16469   5.316   4.064   9.998 -0.6517 -0.0803  0.9511
  149SAPE   C2516470   5.475   4.213  10.005 -0.5413  0.1327 -0.3418
  149SAPE   H5R16471   5.569   4.162  10.034  1.3167  2.9808 -0.9473
  149SAPE   C2616472   5.467   4.309   9.908  0.5845 -0.1042  0.3444
  149SAPE   H6R16473   5.568   4.348   9.888  1.0382 -0.4282  1.8344
  149SAPE   C2716474   5.339   4.372   9.858 -0.3920  0.2874 -0.4168
  149SAPE   H7R16475   5.338   4.481   9.883  0.4838 -0.0359  1.1921
  149SAPE   H7S16476   5.253   4.324   9.909  0.0251  1.0824  1.0935
  149SAPE   C2816477   5.338   4.324   9.713 -0.0479 -0.0556 -0.6975
  149SAPE   H8R16478   5.324   4.215   9.710 -1.3783  0.0784 -0.1105
  149SAPE   C2916479   5.352   4.387   9.592  0.1707 -0.2574  0.2752
  149SAPE   H9R16480   5.346   4.328   9.500  0.8610 -0.8141  0.5758
  149SAPE  C21016481   5.389   4.537   9.568  0.3996  0.2094 -0.1394
  149SAPE  H10R16482   5.414   4.589   9.663 -1.9989 -0.9514  1.2000
  149SAPE  H10S16483   5.306   4.594   9.522  1.5579  3.9993  2.0205
  149SAPE  C21116484   5.513   4.571   9.484  0.1578  0.1899 -0.2287
  149SAPE  H11R16485   5.597   4.619   9.536  0.3658  0.0946 -0.4744
  149SAPE  C21216486   5.517   4.551   9.355  0.3274  0.0273  0.2883
  149SAPE  H12R16487   5.604   4.592   9.300 -1.4455  1.0612 -1.9498
  149SAPE  C21316488   5.410   4.492   9.260 -0.4156  0.4963 -0.4008
  149SAPE  H13R16489   5.365   4.579   9.207 -0.1470  1.1032  0.3396
  149SAPE  H13S16490   5.326   4.444   9.316 -1.4368  2.3764 -0.2333
  149SAPE  C21416491   5.472   4.381   9.173 -0.0163  0.0553  1.1405
  149SAPE  H14R16492   5.552   4.320   9.218 -1.2927 -0.8966  2.2097
  149SAPE  C21516493   5.448   4.360   9.042  0.2423  0.2372 -0.4351
  149SAPE  H15R16494   5.502   4.281   8.986  0.1943 -0.0634 -0.0629
  149SAPE  C21616495   5.345   4.434   8.956 -0.8131 -0.0533  0.5686
  149SAPE  H16R16496   5.284   4.518   8.997  0.9354  1.8329 -0.5278
  149SAPE  H16S16497   5.274   4.357   8.917  2.6024 -2.0343 -2.2957
  149SAPE  C21716498   5.394   4.501   8.826  0.7058  0.2396  0.2983
  149SAPE  H17R16499   5.437   4.429   8.753 -1.4014 -0.5263 -0.2487
  149SAPE  H17S16500   5.456   4.589   8.853  1.3052 -0.2346  0.4846
  149SAPE  C21816501   5.278   4.561   8.752  1.2380  0.5186 -0.6983
  149SAPE  H18R16502   5.226   4.643   8.806  1.0486  0.0280 -0.1245
  149SAPE  H18S16503   5.207   4.476   8.745  0.9558  0.8553 -2.0567
  149SAPE  C21916504   5.299   4.616   8.618  0.2393 -0.8588 -0.1194
  149SAPE  H19R16505   5.368   4.554   8.556  0.7008 -0.8446  0.3715
  149SAPE  H19S16506   5.349   4.715   8.623  1.4222 -1.4949  1.5786
  149SAPE  C22016507   5.170   4.656   8.543 -0.0558  0.5222  0.4049
  149SAPE  H20R16508   5.100   4.574   8.515  1.1253  0.5995 -3.3360
  149SAPE  H20S16509   5.190   4.695   8.441  0.2206  1.5314  0.8310
  149SAPE  H20T16510   5.117   4.734   8.601  0.9665  0.5145  1.3888
  149SAPE   C3316511   4.959   4.054  10.192 -0.3688 -0.2036  0.1501
  149SAPE   H3X16512   5.058   4.105  10.189  0.5144 -1.8178  0.8146
  149SAPE   H3Y16513   4.883   4.132  10.213 -1.2643 -1.1338  0.4165
  149SAPE   C3416514   4.939   3.985  10.055  0.2538 -0.0296 -0.7310
  149SAPE   H4X16515   4.836   3.943  10.061 -0.7014  2.2512 -0.4362
  149SAPE   H4Y16516   5.008   3.898  10.053  0.3863  0.0607 -0.1661
  149SAPE   C3516517   4.953   4.078   9.935 -0.1061  0.0986 -0.1904
  149SAPE   H5X16518   5.050   4.131   9.938  0.0270 -0.0167 -1.4962
  149SAPE   H5Y16519   4.879   4.160   9.948  1.0036  1.5106 -2.1533
  149SAPE   C3616520   4.939   4.016   9.800  0.7919  0.2743  0.3274
  149SAPE   H6X16521   4.839   3.971   9.783  0.7052  0.2764  0.8081
  149SAPE   H6Y16522   5.015   3.938   9.783 -0.4497 -0.8553 -0.2443
  149SAPE   C3716523   4.955   4.129   9.695 -0.0162  0.2983  0.0874
  149SAPE   H7X16524   5.051   4.177   9.723  1.1612 -2.0391  0.2224
  149SAPE   H7Y16525   4.871   4.203   9.691  1.0342  1.5145 -0.3184
  149SAPE   C3816526   4.971   4.073   9.551  0.9692 -0.3140 -0.3593
  149SAPE   H8X16527   4.889   4.001   9.529  0.0210  1.0195 -1.3150
  149SAPE   H8Y16528   5.071   4.024   9.552  0.8395 -0.5859 -0.7387
  149SAPE   C3916529   4.946   4.186   9.453  0.1791  0.0438  0.6986
  149SAPE   H9X16530   5.022   4.266   9.470 -0.2528  0.6264 -0.0877
  149SAPE   H9Y16531   4.842   4.220   9.467 -0.5661  0.3408 -4.0394
  149SAPE  C31016532   4.974   4.144   9.305 -0.2267  0.2853 -0.2703
  149SAPE  H10X16533   4.934   4.221   9.235  1.3976 -0.2069 -1.8255
  149SAPE  H10Y16534   4.910   4.057   9.278  0.5907 -0.0960 -1.0306
  149SAPE  C31116535   5.120   4.116   9.269  0.4787  0.2891 -0.6247
  149SAPE  H11X16536   5.158   4.029   9.327  1.5665  0.3148 -1.2713
  149SAPE  H11Y16537   5.177   4.207   9.298  0.2305  0.8076 -1.7306
  149SAPE  C31216538   5.136   4.088   9.120  0.1527 -0.3584 -0.2198
  149SAPE  H12X16539   5.246   4.069   9.112  1.0635  0.4144  5.6985
  149SAPE  H12Y16540   5.106   4.174   9.056  0.0011  1.2022  1.8530
  149SAPE  C31316541   5.070   3.962   9.065 -0.2562 -0.1048 -0.7456
  149SAPE  H13X16542   4.965   3.979   9.033 -0.6131  1.7067  1.1317
  149SAPE  H13Y16543   5.061   3.877   9.136  1.1547 -1.3073 -1.9414
  149SAPE  C31416544   5.133   3.906   8.931 -0.5289  0.2758 -0.3506
  149SAPE  H14X16545   5.073   3.822   8.891 -1.5950  0.8688 -0.0378
  149SAPE  H14Y16546   5.236   3.875   8.957 -0.0199  0.9139 -1.5639
  149SAPE  C31516547   5.129   4.014   8.822 -0.9170  0.5788  0.3361
  149SAPE  H15X16548   5.197   3.988   8.738 -0.1780  2.9638  0.1149
  149SAPE  H15Y16549   5.152   4.118   8.856 -1.0101  1.5039 -2.1844
  149SAPE  C31616550   4.989   4.019   8.758 -0.2023 -0.3046 -0.1101
  149SAPE  H16X16551   4.914   4.034   8.839  1.3112 -0.1459  1.3202
  149SAPE  H16Y16552   4.972   3.921   8.709  1.3055 -0.9397  0.5716
  149SAPE  C31716553   4.972   4.120   8.646 -0.5585  0.2587 -0.5022
  149SAPE  H17X16554   4.869   4.106   8.606  0.0760 -2.2312 -1.4504
  149SAPE  H17Y16555   5.047   4.097   8.568  0.0046  1.0437 -0.2040
  149SAPE  C31816556   4.992   4.261   8.707 -0.4032  0.1925  0.2959
  149SAPE  H18X16557   4.975   4.341   8.632  2.1463  0.9099  0.3999
  149SAPE  H18Y16558   5.092   4.275   8.753 -0.4222  0.8989  0.1230
  149SAPE  H18Z16559   4.913   4.271   8.784 -2.7647  0.1735 -1.9678
  150SAPE     N16560   6.425   3.064  11.403  0.6041  0.5444  0.0067
  150SAPE   HN116561   6.388   3.057  11.500  2.3787 -0.2977  0.6855
  150SAPE   HN216562   6.485   2.981  11.385 -0.8513 -0.2230 -1.5101
  150SAPE   HN316563   6.491   3.145  11.409  3.2261 -1.4224 -0.3837
  150SAPE   C1216564   6.313   3.082  11.297  1.1634 -0.5410 -0.0987
  150SAPE  H12A16565   6.232   3.127  11.359  0.7859 -2.2641  0.7280
  150SAPE  H12B16566   6.281   2.982  11.260 -0.2591  0.2059 -0.9801
  150SAPE   C1116567   6.361   3.166  11.184  0.3600  0.6318 -0.2393
  150SAPE  H11A16568   6.377   3.272  11.215  0.5678  0.8092 -0.9500
  150SAPE  H11B16569   6.274   3.172  11.116 -0.7278  0.2824  1.0825
  150SAPE     P16570   6.549   3.192  11.015  0.1654 -0.2676 -0.2023
  150SAPE   O1316571   6.602   3.307  11.088  0.6702 -0.6215 -0.6409
  150SAPE   O1416572   6.648   3.107  10.947 -1.0736 -0.1396  0.5584
  150SAPE   O1216573   6.484   3.110  11.128 -0.3083 -0.6763  0.3668
  150SAPE   O1116574   6.434   3.233  10.914 -0.0244  0.3681  0.5802
  150SAPE    C116575   6.400   3.373  10.891  0.4253  0.3227  0.1058
  150SAPE    HA16576   6.298   3.396  10.928  0.6077  0.1417  0.7286
  150SAPE    HB16577   6.470   3.440  10.944  0.7181 -1.0043  1.4700
  150SAPE    C216578   6.405   3.412  10.745 -0.4714 -0.0570  0.1824
  150SAPE    HS16579   6.402   3.523  10.738 -1.8280 -0.0777  0.1753
  150SAPE   O2116580   6.299   3.353  10.671 -0.2464 -0.0001  0.0039
  150SAPE   C2116581   6.247   3.419  10.568 -0.4506  0.7138 -0.0955
  150SAPE   O2216582   6.253   3.539  10.543 -0.5236  0.4659 -0.1890
  150SAPE   C2216583   6.178   3.311  10.487  0.1794 -0.6789 -0.4477
  150SAPE   H2R16584   6.262   3.254  10.443 -0.0386 -1.2042 -0.2007
  150SAPE   H2S16585   6.123   3.240  10.553  1.8687 -0.8231  0.8600
  150SAPE    C316586   6.541   3.372  10.676  0.2537 -0.0390 -0.0391
  150SAPE    HX16587   6.551   3.261  10.677  0.9056 -0.0423 -1.9221
  150SAPE    HY16588   6.632   3.415  10.721  1.7129  1.4817 -3.9671
  150SAPE   O3116589   6.551   3.403  10.533 -0.1882 -0.6200 -0.0170
  150SAPE   C3116590   6.565   3.536  10.516  0.0909 -0.5146 -0.8919
  150SAPE   O3216591   6.566   3.622  10.604 -0.4857  0.1297  0.0935
  150SAPE   C3216592   6.577   3.568  10.372  0.5438 -0.3441 -0.2390
  150SAPE   H2X16593   6.533   3.484  10.314 -0.4552 -0.7357  1.0344
  150SAPE   H2Y16594   6.685   3.557  10.348  0.0580 -2.5977 -1.6777
  150SAPE   C2316595   6.079   3.368  10.384  0.8700  0.4427  0.3943
  150SAPE   H3R16596   6.002   3.433  10.431  2.0182  1.0175  1.5368
  150SAPE   H3S16597   6.030   3.274  10.349  1.3547  0.8918 -1.5532
  150SAPE   C2416598   6.142   3.427  10.262 -0.4134 -0.3334  0.4102
  150SAPE   H4R16599   6.215   3.354  10.221 -1.1863 -0.9900  0.1900
  150SAPE   H4S16600   6.196   3.521  10.289 -0.5864  0.6445 -2.3910
  150SAPE   C2516601   6.040   3.463  10.154  0.0194 -0.5197  0.1051
  150SAPE   H5R16602   5.950   3.497  10.207  1.0745 -0.0078  1.6042
  150SAPE   C2616603   6.043   3.429  10.024  0.6475 -0.0149  0.4636
  150SAPE   H6R16604   5.960   3.455   9.958  2.4719  1.4345 -1.3883
  150SAPE   C2716605   6.161   3.371   9.958 -0.5613  0.3772 -0.3211
  150SAPE   H7R16606   6.194   3.284  10.019 -2.6200  0.2809  0.7438
  150SAPE   H7S16607   6.245   3.444   9.959  0.5974 -0.8822  2.1309
  150SAPE   C2816608   6.130   3.327   9.820 -0.4220  0.0830  0.0759
  150SAPE   H8R16609   6.145   3.218   9.815 -0.6600  0.0481  0.1035
  150SAPE   C2916610   6.108   3.405   9.713 -0.0858 -0.9972  0.0395
  150SAPE   H9R16611   6.089   3.355   9.617  2.0303  0.4871 -1.2154
  150SAPE  C21016612   6.101   3.557   9.709 -0.7552 -0.6204 -0.2024
  150SAPE  H10R16613   6.110   3.599   9.811  2.0276 -3.9221  1.1057
  150SAPE  H10S16614   6.004   3.579   9.659 -1.9927  0.0434  2.2995
  150SAPE  C21116615   6.223   3.613   9.630 -0.4133  0.1651  0.1482
  150SAPE  H11R16616   6.315   3.625   9.689  0.1987 -0.7922 -0.5701
  150SAPE  C21216617   6.226   3.649   9.507  0.6205 -0.6483  0.5556
  150SAPE  H12R16618   6.327   3.670   9.469  0.3449 -1.6767 -0.8058
  150SAPE  C21316619   6.111   3.641   9.405  0.2275  0.0610 -0.1961
  150SAPE  H13R16620   6.116   3.720   9.327 -2.0329  1.5609  1.0363
  150SAPE  H13S16621   6.012   3.667   9.450 -1.1589 -0.3129 -2.8517
  150SAPE  C21416622   6.093   3.503   9.342  0.5064  0.2232 -0.8875
  150SAPE  H14R16623   6.143   3.420   9.394  0.2582 -0.0762 -1.1205
  150SAPE  C21516624   6.030   3.473   9.230  0.6735 -0.6046  0.3207
  150SAPE  H15R16625   6.007   3.367   9.211  0.0050 -1.0647  3.1873
  150SAPE  C21616626   5.965   3.569   9.135 -0.3118  0.3747 -0.1570
  150SAPE  H16R16627   6.037   3.651   9.115 -0.1193  0.5959  1.2919
  150SAPE  H16S16628   5.874   3.615   9.178 -0.4430 -1.1639  1.3220
  150SAPE  C21716629   5.945   3.506   8.998 -0.1538  0.0612  0.6074
  150SAPE  H17R16630   5.863   3.431   9.006  0.0249 -0.2254 -0.0972
  150SAPE  H17S16631   6.037   3.460   8.956 -0.1861  0.4378  0.1131
  150SAPE  C21816632   5.877   3.615   8.901  0.1776  0.1373  0.3776
  150SAPE  H18R16633   5.930   3.712   8.900  0.0730  0.2165 -1.6408
  150SAPE  H18S16634   5.776   3.629   8.944  0.0709  0.5120  0.0092
  150SAPE  C21916635   5.872   3.557   8.757  0.0804  0.1561  0.1077
  150SAPE  H19R16636   5.803   3.618   8.695 -1.8760  0.7387  2.6920
  150SAPE  H19S16637   5.831   3.454   8.763  0.7217 -0.0360  2.2128
  150SAPE  C22016638   6.015   3.539   8.692  0.4695  0.0153 -0.5318
  150SAPE  H20R16639   5.992   3.476   8.604 -0.7970 -1.0848  0.5458
  150SAPE  H20S16640   6.086   3.478   8.751  0.4492  0.6795  0.2127
  150SAPE  H20T16641   6.056   3.641   8.674  1.0937 -0.2220 -0.4815
  150SAPE   C3316642   6.521   3.707  10.332 -0.2794  0.0568  0.4537
  150SAPE   H3X16643   6.560   3.791  10.394  0.7928  0.2261 -0.4057
  150SAPE   H3Y16644   6.412   3.701  10.349 -0.0868  1.6679  2.7292
  150SAPE   C3416645   6.548   3.742  10.189 -0.2504  0.4737 -0.0562
  150SAPE   H4X16646   6.530   3.852  10.188  1.5042  0.9932  4.0148
  150SAPE   H4Y16647   6.479   3.700  10.113 -1.2209  4.0581 -1.3502
  150SAPE   C3516648   6.689   3.721  10.141 -0.1240 -0.3775  0.5220
  150SAPE   H5X16649   6.703   3.617  10.104  0.5784 -0.1640  0.1512
  150SAPE   H5Y16650   6.757   3.734  10.228  3.1442 -3.6844 -1.2601
  150SAPE   C3616651   6.713   3.822  10.028 -0.1466  0.2372 -0.1081
  150SAPE   H6X16652   6.822   3.833  10.006 -0.0896  1.6655  0.8208
  150SAPE   H6Y16653   6.696   3.917  10.082 -1.8614 -0.9388  1.5375
  150SAPE   C3716654   6.623   3.819   9.904 -0.6346  0.1344  0.4925
  150SAPE   H7X16655   6.669   3.901   9.845 -1.1887 -0.8837 -1.4214
  150SAPE   H7Y16656   6.517   3.844   9.925 -0.3917  0.2084  1.7359
  150SAPE   C3816657   6.634   3.685   9.824  0.2203 -0.3651  0.0849
  150SAPE   H8X16658   6.599   3.593   9.876 -0.4286 -1.1753 -1.7070
  150SAPE   H8Y16659   6.742   3.673   9.801  0.6916  0.1258  1.8423
  150SAPE   C3916660   6.576   3.691   9.681  0.3794  0.6999 -0.8082
  150SAPE   H9X16661   6.477   3.741   9.679  1.1620  2.2889 -1.3331
  150SAPE   H9Y16662   6.552   3.587   9.651 -1.6268  0.9885 -0.3713
  150SAPE  C31016663   6.657   3.771   9.578 -0.3037  0.6696 -0.7657
  150SAPE  H10X16664   6.745   3.707   9.557 -0.7777 -0.5319  0.7615
  150SAPE  H10Y16665   6.671   3.875   9.617  0.0205  0.0141  0.9432
  150SAPE  C31116666   6.590   3.778   9.438  0.0566  0.1605 -0.2463
  150SAPE  H11X16667   6.494   3.830   9.457 -0.9781 -0.3220 -3.4570
  150SAPE  H11Y16668   6.578   3.670   9.414 -0.1457  0.3254 -0.9071
  150SAPE  C31216669   6.673   3.837   9.323 -0.5025  0.5562 -0.5130
  150SAPE  H12X16670   6.765   3.778   9.305 -1.4746 -0.8218 -1.1313
  150SAPE  H12Y16671   6.701   3.943   9.344  0.8370 -0.1162  1.3790
  150SAPE  C31316672   6.585   3.833   9.200 -0.3925  0.2022 -0.7925
  150SAPE  H13X16673   6.488   3.883   9.220 -0.2148  0.2934 -0.1050
  150SAPE  H13Y16674   6.552   3.729   9.180 -0.6447  0.4632 -1.7600
  150SAPE  C31416675   6.645   3.898   9.078 -0.3376 -0.1395 -0.7665
  150SAPE  H14X16676   6.742   3.847   9.058  1.0510  2.0800 -0.0895
  150SAPE  H14Y16677   6.674   4.005   9.091  1.2467 -0.7153  0.8294
  150SAPE  C31516678   6.546   3.893   8.963  0.4319  0.3641  0.0027
  150SAPE  H15X16679   6.457   3.955   8.984 -0.3969 -0.2586 -1.4607
  150SAPE  H15Y16680   6.494   3.800   8.933 -0.5030  0.9222 -0.1486
  150SAPE  C31616681   6.614   3.952   8.837  0.3088  0.1679  0.4821
  150SAPE  H16X16682   6.674   3.866   8.801 -1.1192 -0.5566 -0.2360
  150SAPE  H16Y16683   6.674   4.040   8.869  2.4987 -0.7315 -0.9143
  150SAPE  C31716684   6.505   3.995   8.737 -0.0889  0.4007  0.8160
  150SAPE  H17X16685   6.474   4.100   8.754 -2.3800  0.2128 -1.6580
  150SAPE  H17Y16686   6.412   3.935   8.744 -1.1303  2.0403  1.7774
  150SAPE  C31816687   6.563   3.991   8.596 -0.4350 -0.2910  0.1045
  150SAPE  H18X16688   6.563   3.881   8.583 -0.6360 -0.1021 -1.7813
  150SAPE  H18Y16689   6.668   4.022   8.615  0.3990 -1.9672 -1.4959
  150SAPE  H18Z16690   6.509   4.038   8.511  0.3271 -1.3707 -0.9904
  151SAPE     N16691   5.582   0.447  10.674  0.0727 -0.5027 -0.3352
  151SAPE   HN116692   5.685   0.436  10.680  0.4966  2.6627 -0.2035
  151SAPE   HN216693   5.569   0.503  10.761  2.8101 -2.5790  1.6141
  151SAPE   HN316694   5.521   0.362  10.677 -3.4473  1.8364 -0.5349
  151SAPE   C1216695   5.543   0.507  10.540  0.6527  0.1292  0.1819
  151SAPE  H12A16696   5.596   0.456  10.457  0.5833 -0.8683  0.7369
  151SAPE  H12B16697   5.564   0.616  10.543  0.0238  0.2479  0.3558
  151SAPE   C1116698   5.390   0.493  10.508  0.4386  0.3281 -0.2226
  151SAPE  H11A16699   5.368   0.535  10.408 -2.7072 -0.6527 -0.0494
  151SAPE  H11B16700   5.338   0.563  10.577  1.3130  1.7087 -0.9213
  151SAPE     P16701   5.358   0.239  10.427  0.0086 -0.3056 -0.8196
  151SAPE   O1316702   5.504   0.244  10.399 -0.0542 -0.0973  0.6244
  151SAPE   O1416703   5.298   0.115  10.475  0.2263  0.0786  0.1796
  151SAPE   O1216704   5.337   0.358  10.529 -0.3105 -0.0161 -0.6142
  151SAPE   O1116705   5.280   0.296  10.301  0.6987 -0.4760 -0.2935
  151SAPE    C116706   5.134   0.289  10.289 -0.1726  0.1125  0.1558
  151SAPE    HA16707   5.088   0.210  10.352 -0.2851  0.9212  1.0991
  151SAPE    HB16708   5.087   0.388  10.307  0.0679  0.6177 -1.7886
  151SAPE    C216709   5.089   0.247  10.142  0.1496 -0.3415 -0.5187
  151SAPE    HS16710   5.000   0.182  10.157 -0.8789  1.0539 -0.2453
  151SAPE   O2116711   5.196   0.180  10.072  0.0064 -0.5103  0.3599
  151SAPE   C2116712   5.216   0.055  10.098  0.1920  0.0790  0.4635
  151SAPE   O2216713   5.143  -0.022  10.162 -0.4916 -0.1213  0.4438
  151SAPE   C2216714   5.344   0.002  10.040  0.1558  0.5855  0.4805
  151SAPE   H2R16715   5.417   0.084  10.023  2.7515 -1.3312  1.5671
  151SAPE   H2S16716   5.394  -0.054  10.122 -0.7466  0.9415  1.3016
  151SAPE    C316717   5.042   0.379  10.072  0.3267  0.4478  0.1874
  151SAPE    HX16718   5.127   0.450  10.072  1.2861 -0.6668  0.0288
  151SAPE    HY16719   4.958   0.422  10.131 -0.7468  1.1165 -1.7300
  151SAPE   O3116720   4.998   0.336   9.946 -0.2183 -0.9040 -0.2227
  151SAPE   C3116721   4.985   0.444   9.866  0.4800 -0.1459 -0.3387
  151SAPE   O3216722   4.993   0.558   9.909  0.2604 -0.5842  0.3431
  151SAPE   C3216723   4.970   0.393   9.722 -0.5589 -0.8527 -0.5035
  151SAPE   H2X16724   4.904   0.304   9.715 -0.5015 -0.8356 -1.4747
  151SAPE   H2Y16725   5.073   0.370   9.685  0.1769  0.8118  0.4002
  151SAPE   C2316726   5.325  -0.077   9.913 -0.0570  0.2123 -0.0953
  151SAPE   H3R16727   5.263  -0.168   9.932  0.1139 -0.0982 -0.9528
  151SAPE   H3S16728   5.423  -0.106   9.869 -0.8298  0.8082 -2.3411
  151SAPE   C2416729   5.245   0.004   9.805 -0.3020  0.6980  0.5089
  151SAPE   H4R16730   5.146   0.039   9.840 -0.4986 -0.3468  1.0352
  151SAPE   H4S16731   5.222  -0.061   9.717  2.2703 -0.5183  0.6354
  151SAPE   C2516732   5.327   0.127   9.762 -0.8333 -0.4686  0.4892
  151SAPE   H5R16733   5.327   0.209   9.836  1.5429  1.8280 -1.8366
  151SAPE   C2616734   5.400   0.142   9.647  0.0611  0.2229 -0.0731
  151SAPE   H6R16735   5.473   0.224   9.643  1.4750 -0.7123  3.1022
  151SAPE   C2716736   5.398   0.048   9.525  0.3748  0.1508  0.1393
  151SAPE   H7R16737   5.482   0.073   9.457 -0.8925 -0.2761 -1.6453
  151SAPE   H7S16738   5.305   0.066   9.467 -0.2014 -1.2071  0.5994
  151SAPE   C2816739   5.439  -0.095   9.547  0.5890  0.0692  0.5475
  151SAPE   H8R16740   5.538  -0.114   9.590  1.8726 -0.6238 -2.4402
  151SAPE   C2916741   5.407  -0.200   9.472  0.4475  0.2676  0.3951
  151SAPE   H9R16742   5.433  -0.298   9.515  2.5053 -0.0228 -1.3216
  151SAPE  C21016743   5.309  -0.196   9.351 -0.0148 -0.3994 -0.4982
  151SAPE  H10R16744   5.221  -0.134   9.377  0.7959 -0.4575  2.9253
  151SAPE  H10S16745   5.248  -0.289   9.344 -1.8873  0.7510 -0.1623
  151SAPE  C21116746   5.370  -0.156   9.215  0.6693  0.4727  0.1657
  151SAPE  H11R16747   5.446  -0.077   9.220 -1.4709  2.6027  2.8501
  151SAPE  C21216748   5.337  -0.202   9.094 -0.0255 -0.2570 -0.7061
  151SAPE  H12R16749   5.386  -0.157   9.006  0.9976 -0.3929 -0.2175
  151SAPE  C21316750   5.229  -0.296   9.058 -0.3636  0.3965 -0.4048
  151SAPE  H13R16751   5.161  -0.249   8.984 -1.2355  0.1823  0.2429
  151SAPE  H13S16752   5.166  -0.336   9.139 -1.3674  0.3738 -1.1860
  151SAPE  C21416753   5.306  -0.416   9.001  0.2147  0.4079  0.6054
  151SAPE  H14R16754   5.404  -0.436   9.048  1.8883 -0.1928 -2.7970
  151SAPE  C21516755   5.285  -0.478   8.884 -0.0144 -0.2286  0.7148
  151SAPE  H15R16756   5.356  -0.555   8.852 -0.4111  0.5235 -2.2936
  151SAPE  C21616757   5.183  -0.439   8.780 -0.7297  0.0493 -0.5202
  151SAPE  H16R16758   5.228  -0.405   8.684  1.2721 -1.9766 -0.3856
  151SAPE  H16S16759   5.136  -0.345   8.817  1.1854  0.4696  0.9796
  151SAPE  C21716760   5.077  -0.552   8.758  0.2015  0.4479  0.4240
  151SAPE  H17R16761   5.130  -0.648   8.738  2.4331  1.1666  2.4282
  151SAPE  H17S16762   5.026  -0.516   8.666  0.0157  3.5469  1.6461
  151SAPE  C21816763   4.969  -0.562   8.860  0.1524 -0.3915 -0.0130
  151SAPE  H18R16764   4.907  -0.470   8.859 -0.4227 -0.6982  2.1602
  151SAPE  H18S16765   5.010  -0.559   8.963 -1.5814  0.4751  0.7000
  151SAPE  C21916766   4.880  -0.693   8.844 -0.1116  0.0147 -0.3982
  151SAPE  H19R16767   4.944  -0.783   8.859 -0.9114 -0.5229 -0.1297
  151SAPE  H19S16768   4.830  -0.702   8.746 -0.9816  1.4843 -0.1224
  151SAPE  C22016769   4.775  -0.693   8.956 -0.4262  0.0451  0.6108
  151SAPE  H20R16770   4.712  -0.604   8.936  2.1857  1.5065 -1.7949
  151SAPE  H20S16771   4.824  -0.705   9.054  0.2687 -0.2943  0.2298
  151SAPE  H20T16772   4.705  -0.780   8.948 -0.5731  0.2718 -0.9317
  151SAPE   C3316773   4.931   0.498   9.619 -0.3366 -0.3578  0.8278
  151SAPE   H3X16774   5.016   0.569   9.633  0.0191 -1.2136  3.5282
  151SAPE   H3Y16775   4.836   0.551   9.644  0.1609  0.0035  2.0260
  151SAPE   C3416776   4.924   0.457   9.469  0.2197  0.4507  0.3130
  151SAPE   H4X16777   4.863   0.365   9.456  1.4214 -0.1060 -1.8423
  151SAPE   H4Y16778   5.024   0.428   9.431 -0.1210  0.3025 -0.4829
  151SAPE   C3516779   4.858   0.568   9.379 -0.0683 -0.6630 -0.5453
  151SAPE   H5X16780   4.929   0.646   9.343 -0.5914  0.1687  0.1781
  151SAPE   H5Y16781   4.792   0.630   9.443 -1.7858 -1.8191 -1.1137
  151SAPE   C3616782   4.769   0.520   9.261 -0.0101 -0.3645 -0.1548
  151SAPE   H6X16783   4.833   0.521   9.171  0.2986  1.3126  0.0609
  151SAPE   H6Y16784   4.695   0.600   9.242  1.3902  0.7242 -1.2053
  151SAPE   C3716785   4.694   0.387   9.274  0.2558 -0.1041 -0.3610
  151SAPE   H7X16786   4.651   0.389   9.377  0.9846  1.3286 -0.0603
  151SAPE   H7Y16787   4.771   0.307   9.274 -0.1080 -0.5827  2.4576
  151SAPE   C3816788   4.605   0.357   9.155 -0.0691  0.3577 -0.0285
  151SAPE   H8X16789   4.523   0.432   9.144 -0.0602  0.5440  1.0746
  151SAPE   H8Y16790   4.551   0.267   9.192  0.4359 -0.3765 -1.0191
  151SAPE   C3916791   4.681   0.325   9.026  0.1772  0.2343 -0.6594
  151SAPE   H9X16792   4.767   0.258   9.048 -0.6165 -1.2310 -1.8123
  151SAPE   H9Y16793   4.714   0.417   8.973  4.0083  0.2527  1.3665
  151SAPE  C31016794   4.604   0.246   8.920 -0.0780 -0.6135  0.0106
  151SAPE  H10X16795   4.567   0.157   8.974 -0.2888 -0.4727  0.0988
  151SAPE  H10Y16796   4.676   0.211   8.842 -1.6495 -3.3303 -0.3439
  151SAPE  C31116797   4.504   0.337   8.860 -0.2562  0.1481  0.3628
  151SAPE  H11X16798   4.539   0.439   8.830  0.7459  0.5764  2.7639
  151SAPE  H11Y16799   4.423   0.348   8.934 -1.0793 -1.2446 -0.3012
  151SAPE  C31216800   4.444   0.272   8.731  0.4731 -0.2833 -0.2165
  151SAPE  H12X16801   4.383   0.182   8.755  1.0938 -0.4905  0.6573
  151SAPE  H12Y16802   4.526   0.234   8.666  0.7049 -0.1541  0.0005
  151SAPE  C31316803   4.367   0.365   8.645 -0.0514 -0.1904  0.4617
  151SAPE  H13X16804   4.435   0.414   8.573 -0.0240  0.7922  1.1491
  151SAPE  H13Y16805   4.324   0.454   8.694 -0.7500 -0.0806 -0.3137
  151SAPE  C31416806   4.253   0.292   8.566 -0.3369 -0.2193  0.2446
  151SAPE  H14X16807   4.181   0.273   8.649 -0.4442 -0.5393  0.0770
  151SAPE  H14Y16808   4.283   0.195   8.521 -0.3597 -0.2740  0.3481
  151SAPE  C31516809   4.195   0.375   8.451  0.2020  0.8572  0.1285
  151SAPE  H15X16810   4.095   0.330   8.433  0.0038  2.0436 -2.0753
  151SAPE  H15Y16811   4.260   0.371   8.360 -0.0963 -0.7600 -0.0389
  151SAPE  C31616812   4.171   0.525   8.476  0.3314  0.2533 -0.4713
  151SAPE  H16X16813   4.256   0.575   8.529 -1.5472  0.8846  2.1713
  151SAPE  H16Y16814   4.087   0.533   8.548 -0.2714 -1.1694 -0.9970
  151SAPE  C31716815   4.148   0.608   8.342  0.3808 -0.2313  0.2309
  151SAPE  H17X16816   4.108   0.705   8.377 -0.2578  0.2698 -1.7401
  151SAPE  H17Y16817   4.066   0.559   8.287  0.5131  0.0531 -0.2312
  151SAPE  C31816818   4.272   0.637   8.262 -0.1159 -0.4848  0.3244
  151SAPE  H18X16819   4.333   0.547   8.239 -0.4014 -0.4133 -0.7503
  151SAPE  H18Y16820   4.336   0.718   8.303 -0.8085  0.9398 -1.3047
  151SAPE  H18Z16821   4.231   0.686   8.171  0.1438 -1.1214 -0.1493
  152SAPE     N16822   6.297   5.334  10.600  0.2534 -0.3285 -0.1903
  152SAPE   HN116823   6.362   5.279  10.540 -1.7883 -0.1654 -2.7605
  152SAPE   HN216824   6.353   5.342  10.687  0.7686  0.9419 -0.6181
  152SAPE   HN316825   6.218   5.267  10.610  1.5648 -2.0258 -0.6374
  152SAPE   C1216826   6.262   5.468  10.529  0.0573 -0.6435 -0.4625
  152SAPE  H12A16827   6.189   5.522  10.593 -0.0785  2.0380 -2.6925
  152SAPE  H12B16828   6.209   5.454  10.432 -0.2406  1.6490 -0.6895
  152SAPE   C1116829   6.383   5.570  10.489  0.0966  0.6226  0.1664
  152SAPE  H11A16830   6.336   5.644  10.422 -1.1199  0.8936  1.2660
  152SAPE  H11B16831   6.448   5.514  10.418 -0.7881  1.5618 -1.4339
  152SAPE     P16832   6.557   5.542  10.674  0.3251 -0.0138  0.0845
  152SAPE   O1316833   6.655   5.633  10.741  0.3764  0.1270  0.1639
  152SAPE   O1416834   6.480   5.449  10.759 -0.2598  0.0632  0.7393
  152SAPE   O1216835   6.454   5.631  10.599 -0.2031  0.4287  0.5010
  152SAPE   O1116836   6.627   5.464  10.552  0.4086  0.1665  0.3735
  152SAPE    C116837   6.748   5.525  10.504 -0.7297 -0.0207  0.1835
  152SAPE    HA16838   6.748   5.635  10.490  2.1653 -0.1124 -1.2490
  152SAPE    HB16839   6.828   5.509  10.579 -0.1231 -2.8148 -0.9362
  152SAPE    C216840   6.814   5.456  10.376  0.3181  0.4010  0.3781
  152SAPE    HS16841   6.884   5.536  10.342 -0.2753  0.6219 -0.3522
  152SAPE   O2116842   6.718   5.441  10.276 -0.4052 -0.4746  0.4086
  152SAPE   C2116843   6.650   5.551  10.226 -0.4276  0.3537  0.6533
  152SAPE   O2216844   6.671   5.668  10.257 -1.1311  0.9971  0.0652
  152SAPE   C2216845   6.575   5.501  10.107 -0.2673 -0.1781 -0.0728
  152SAPE   H2R16846   6.524   5.408  10.142 -0.5366  0.5787  1.6736
  152SAPE   H2S16847   6.493   5.572  10.084 -0.5593  0.0525  1.5155
  152SAPE    C316848   6.883   5.322  10.394  0.1321  0.0910  0.0584
  152SAPE    HX16849   6.806   5.247  10.419  0.7670 -0.1494  1.4467
  152SAPE    HY16850   6.959   5.322  10.476  0.3323  1.7891 -0.0829
  152SAPE   O3116851   6.958   5.303  10.269 -0.0332 -0.2997 -0.2803
  152SAPE   C3116852   6.948   5.173  10.219 -0.7957  1.1481 -0.7555
  152SAPE   O3216853   6.888   5.082  10.271  0.7294 -0.0373 -0.1825
  152SAPE   C3216854   7.027   5.162  10.092  0.0325 -0.2758  0.3977
  152SAPE   H2X16855   7.125   5.207  10.118 -0.0235  0.4081 -0.5120
  152SAPE   H2Y16856   6.986   5.237  10.020 -0.5203 -0.5891  0.3800
  152SAPE   C2316857   6.657   5.464   9.982 -0.5425 -0.4602 -0.7003
  152SAPE   H3R16858   6.598   5.397   9.916 -3.5418  0.1797  1.1315
  152SAPE   H3S16859   6.749   5.410  10.013  0.9797  0.9616 -2.4788
  152SAPE   C2416860   6.701   5.595   9.907  0.5922 -0.5956  0.0945
  152SAPE   H4R16861   6.746   5.664   9.982  0.2780 -0.1052 -0.1652
  152SAPE   H4S16862   6.612   5.652   9.874  1.4372 -0.0647 -1.3062
  152SAPE   C2516863   6.803   5.573   9.801 -0.8003 -0.6918 -0.2742
  152SAPE   H5R16864   6.909   5.560   9.829 -1.2191 -3.2332  0.4040
  152SAPE   C2616865   6.772   5.580   9.669  0.0627  0.3695 -0.2017
  152SAPE   H6R16866   6.849   5.559   9.593  0.4812 -0.4864  0.4340
  152SAPE   C2716867   6.636   5.604   9.611  0.1026  0.2883 -0.8476
  152SAPE   H7R16868   6.559   5.554   9.674  0.7524 -1.2706 -1.2348
  152SAPE   H7S16869   6.622   5.571   9.506 -0.8208  1.8226 -1.2275
  152SAPE   C2816870   6.605   5.752   9.605 -0.1669 -0.0491 -0.6712
  152SAPE   H8R16871   6.601   5.798   9.704 -0.2866  0.6789 -1.0078
  152SAPE   C2916872   6.577   5.827   9.497 -0.3204 -0.6808 -0.4797
  152SAPE   H9R16873   6.555   5.934   9.508  1.5511 -0.4910  2.5548
  152SAPE  C21016874   6.562   5.771   9.358  0.1846 -0.1285 -0.0560
  152SAPE  H10R16875   6.472   5.705   9.349  0.2327 -0.4598  1.7013
  152SAPE  H10S16876   6.649   5.705   9.336 -1.7664 -1.9235 -3.2659
  152SAPE  C21116877   6.565   5.866   9.239  0.0115  0.0261  0.2964
  152SAPE  H11R16878   6.657   5.858   9.179 -0.1800  2.0164 -0.3226
  152SAPE  C21216879   6.476   5.961   9.202  0.0671 -0.1088  0.5487
  152SAPE  H12R16880   6.505   6.029   9.121  2.6224 -1.0961  0.5495
  152SAPE  C21316881   6.350   5.993   9.283 -0.0385  0.0146  0.2723
  152SAPE  H13R16882   6.317   5.901   9.335 -1.3534 -0.0010 -0.5350
  152SAPE  H13S16883   6.267   6.022   9.215 -0.8030 -0.1644  1.1143
  152SAPE  C21416884   6.365   6.113   9.375 -0.0365  0.0945 -0.1029
  152SAPE  H14R16885   6.429   6.194   9.337  2.1936 -1.5406 -0.0675
  152SAPE  C21516886   6.309   6.129   9.496 -0.0137 -0.2351  0.5460
  152SAPE  H15R16887   6.336   6.222   9.548  2.0084 -0.5576  0.1405
  152SAPE  C21616888   6.212   6.036   9.564 -0.5524 -0.1590 -0.1263
  152SAPE  H16R16889   6.215   5.942   9.505  0.8345 -0.0545 -0.2654
  152SAPE  H16S16890   6.111   6.081   9.562 -1.6016 -2.4280 -1.6867
  152SAPE  C21716891   6.243   6.001   9.710 -0.8959  1.3130 -0.8100
  152SAPE  H17R16892   6.241   6.092   9.774 -0.4431  0.3683  0.6111
  152SAPE  H17S16893   6.346   5.959   9.720 -0.0043  3.1461 -1.7943
  152SAPE  C21816894   6.144   5.900   9.772  1.1638 -0.2122 -0.8905
  152SAPE  H18R16895   6.167   5.806   9.717 -0.3523 -1.9531  1.2794
  152SAPE  H18S16896   6.039   5.934   9.763  1.2680 -0.2800 -2.9029
  152SAPE  C21916897   6.172   5.873   9.919  0.7263 -1.2817  0.4339
  152SAPE  H19R16898   6.081   5.822   9.956 -1.3052  0.2406 -2.1290
  152SAPE  H19S16899   6.173   5.974   9.965 -3.2841 -0.3820 -1.0469
  152SAPE  C22016900   6.302   5.804   9.955 -0.2618  0.5806 -0.1036
  152SAPE  H20R16901   6.303   5.762  10.058 -3.4057  0.2699 -0.0902
  152SAPE  H20S16902   6.391   5.866   9.930 -1.1933  1.2643 -1.9595
  152SAPE  H20T16903   6.307   5.710   9.896 -1.8967  0.3885  0.0088
  152SAPE   C3316904   7.025   5.024  10.020  0.5049  0.0625 -0.3634
  152SAPE   H3X16905   6.920   4.994   9.997  0.7053  1.2247 -3.1275
  152SAPE   H3Y16906   7.067   4.947  10.089  0.9221 -1.2417 -2.0002
  152SAPE   C3416907   7.085   5.023   9.878  0.2776  0.4494  0.9101
  152SAPE   H4X16908   7.191   5.056   9.887  0.5109  0.0678 -0.2913
  152SAPE   H4Y16909   7.044   5.102   9.812 -1.3939 -0.3770  0.9246
  152SAPE   C3516910   7.078   4.882   9.801  0.2136  0.0611  0.3952
  152SAPE   H5X16911   6.976   4.841   9.819  0.6170 -0.8329  0.7281
  152SAPE   H5Y16912   7.137   4.809   9.860  1.1988  0.8009  0.3403
  152SAPE   C3616913   7.135   4.893   9.665  0.1572 -0.0182  0.2392
  152SAPE   H6X16914   7.244   4.918   9.666  0.5484 -1.6415 -0.1717
  152SAPE   H6Y16915   7.082   4.970   9.604  1.7031  1.9896  1.3097
  152SAPE   C3716916   7.120   4.762   9.584 -0.6549 -0.1293 -0.3138
  152SAPE   H7X16917   7.017   4.770   9.543 -0.4827  0.1485 -0.7010
  152SAPE   H7Y16918   7.120   4.673   9.651 -1.3908  1.4653  1.9199
  152SAPE   C3816919   7.224   4.756   9.484  0.0158  0.5223  0.1390
  152SAPE   H8X16920   7.321   4.778   9.534 -0.3170 -0.2895  1.1584
  152SAPE   H8Y16921   7.204   4.839   9.413 -0.5832 -0.7767 -1.2742
  152SAPE   C3916922   7.236   4.617   9.418  0.0302 -0.0839 -0.3300
  152SAPE   H9X16923   7.137   4.576   9.390 -0.0978  0.1898 -0.2794
  152SAPE   H9Y16924   7.280   4.544   9.489 -2.6494 -0.8659  0.6219
  152SAPE  C31016925   7.343   4.620   9.308 -0.1767 -0.0125  0.3730
  152SAPE  H10X16926   7.438   4.625   9.366 -0.1461  0.7423  0.2677
  152SAPE  H10Y16927   7.340   4.719   9.257  0.0961  1.0388  2.3046
  152SAPE  C31116928   7.362   4.507   9.210 -0.0054 -0.3699 -0.2598
  152SAPE  H11X16929   7.383   4.405   9.249  2.2491 -0.5181 -1.6533
  152SAPE  H11Y16930   7.449   4.536   9.147 -0.4739  2.2307  0.1989
  152SAPE  C31216931   7.238   4.508   9.118  0.9144  0.3778  0.2230
  152SAPE  H12X16932   7.161   4.583   9.146 -1.5548 -1.1757 -1.8040
  152SAPE  H12Y16933   7.185   4.413   9.145  1.8960 -0.3016 -0.1891
  152SAPE  C31316934   7.276   4.519   8.967 -0.1321 -0.5545  0.7880
  152SAPE  H13X16935   7.337   4.429   8.942  2.8716  1.1632  1.4577
  152SAPE  H13Y16936   7.341   4.609   8.969  1.1344 -1.4401  1.4169
  152SAPE  C31416937   7.158   4.528   8.871 -0.2063 -0.6031  0.6014
  152SAPE  H14X16938   7.095   4.613   8.906  1.5379  0.2475  1.7952
  152SAPE  H14Y16939   7.109   4.429   8.878  1.0592 -1.4342 -1.3992
  152SAPE  C31516940   7.184   4.537   8.721 -0.0765  0.2945 -0.4462
  152SAPE  H15X16941   7.264   4.466   8.695 -1.2051 -1.4474  0.6344
  152SAPE  H15Y16942   7.208   4.644   8.699 -1.5633  0.2393 -2.6679
  152SAPE  C31616943   7.065   4.498   8.629 -0.2837  0.8762  0.0782
  152SAPE  H16X16944   7.006   4.419   8.680 -0.9177  0.4549 -1.2684
  152SAPE  H16Y16945   7.115   4.455   8.540  1.0161 -2.1789  2.0752
  152SAPE  C31716946   6.969   4.616   8.593  0.3379 -0.3549  0.6372
  152SAPE  H17X16947   7.029   4.694   8.542  0.7570 -0.5140  0.8783
  152SAPE  H17Y16948   6.938   4.663   8.689  3.0393 -0.7011  1.7867
  152SAPE  C31816949   6.844   4.575   8.514 -1.0385  0.8011 -0.1015
  152SAPE  H18X16950   6.858   4.579   8.404  2.9128 -2.4035  0.0714
  152SAPE  H18Y16951   6.760   4.641   8.546 -0.5315  0.8971  1.0633
  152SAPE  H18Z16952   6.814   4.474   8.550 -0.8728  1.6349  2.5368
  153SAPE     N16953   3.857   2.116  10.832 -0.2902 -0.5013  0.0860
  153SAPE   HN116954   3.830   2.212  10.861  0.5209 -0.1895 -0.1401
  153SAPE   HN216955   3.770   2.060  10.829 -0.5595 -0.2121  1.7566
  153SAPE   HN316956   3.904   2.075  10.915 -0.2719  0.2245  0.4382
  153SAPE   C1216957   3.942   2.119  10.702  0.6664  0.8797  0.2614
  153SAPE  H12A16958   4.032   2.173  10.739  0.9657 -0.9583  2.4012
  153SAPE  H12B16959   3.887   2.177  10.624 -0.4949 -1.2035 -0.5542
  153SAPE   C1116960   3.979   1.975  10.650  0.1431  0.4404  0.3581
  153SAPE  H11A16961   4.045   1.989  10.562  1.6795 -0.4231  1.3274
  153SAPE  H11B16962   3.888   1.918  10.620  1.8374 -1.3455 -1.7094
  153SAPE     P16963   4.211   1.893  10.754 -0.0830 -0.0606  0.1873
  153SAPE   O1316964   4.252   2.031  10.761 -0.4696 -0.5012  0.8906
  153SAPE   O1416965   4.268   1.801  10.853 -0.5843  0.1607  0.3061
  153SAPE   O1216966   4.051   1.889  10.740 -0.4740 -0.0153  0.2591
  153SAPE   O1116967   4.248   1.845  10.608  0.0683  0.4391  0.8675
  153SAPE    C116968   4.245   1.701  10.583 -0.2399  0.4086 -0.6421
  153SAPE    HA16969   4.159   1.649  10.630  0.4025 -2.2575 -2.2128
  153SAPE    HB16970   4.220   1.679  10.477 -1.0101  0.3748 -0.4598
  153SAPE    C216971   4.381   1.631  10.610  0.5692  0.0733  0.4525
  153SAPE    HS16972   4.416   1.678  10.704 -1.0181  0.6196  0.7988
  153SAPE   O2116973   4.471   1.664  10.505 -0.3520  0.0922 -0.0797
  153SAPE   C2116974   4.457   1.598  10.382 -1.2853  0.8328 -0.9008
  153SAPE   O2216975   4.372   1.516  10.360  0.3136  0.3701 -0.9507
  153SAPE   C2216976   4.569   1.638  10.286 -0.0558 -0.2129  0.3047
  153SAPE   H2R16977   4.623   1.725  10.328  1.5296 -1.0815  0.1730
  153SAPE   H2S16978   4.646   1.558  10.288  0.5805  0.2897 -1.7018
  153SAPE    C316979   4.356   1.474  10.650 -0.0541 -0.3628  0.1190
  153SAPE    HX16980   4.296   1.419  10.575  0.2022 -1.4259  0.6720
  153SAPE    HY16981   4.292   1.473  10.740  0.0744 -0.2742  0.2119
  153SAPE   O3116982   4.480   1.405  10.655  0.3799 -0.0943 -0.2191
  153SAPE   C3116983   4.554   1.432  10.765  0.8140  1.2699 -0.1050
  153SAPE   O3216984   4.520   1.493  10.862  0.6000 -0.2297 -0.6345
  153SAPE   C3216985   4.681   1.350  10.760  0.9012 -0.5167  0.0556
  153SAPE   H2X16986   4.671   1.274  10.680 -0.0477  0.2340 -0.5628
  153SAPE   H2Y16987   4.694   1.313  10.864 -0.7925  2.2363  1.3609
  153SAPE   C2316988   4.516   1.684  10.150  0.1671 -0.3299  0.1253
  153SAPE   H3R16989   4.438   1.763  10.162  2.7558  2.3087  0.8473
  153SAPE   H3S16990   4.470   1.594  10.104 -2.2931  1.3538 -0.9696
  153SAPE   C2416991   4.621   1.754  10.068 -0.1120  0.0518 -0.3508
  153SAPE   H4R16992   4.711   1.688  10.069 -0.3422 -0.3229 -1.6770
  153SAPE   H4S16993   4.651   1.849  10.116 -1.2041 -0.5088  1.5405
  153SAPE   C2516994   4.570   1.774   9.933  0.6041 -0.7235  0.4958
  153SAPE   H5R16995   4.481   1.839   9.924  1.4845  0.3267 -0.9388
  153SAPE   C2616996   4.636   1.742   9.819 -0.1950 -0.1513  0.0100
  153SAPE   H6R16997   4.578   1.769   9.730  0.0336  2.1807  0.4847
  153SAPE   C2716998   4.775   1.677   9.799  0.1039 -0.6741  0.6886
  153SAPE   H7R16999   4.806   1.609   9.881  1.8782  0.7613  1.2872
  153SAPE   H7S17000   4.854   1.753   9.783  0.6954 -1.8240 -2.5527
  153SAPE   C2817001   4.770   1.591   9.676 -0.2285 -0.0912  0.2197
  153SAPE   H8R17002   4.671   1.584   9.628  0.3833  3.1629 -1.8745
  153SAPE   C2917003   4.883   1.532   9.619  0.2932 -0.4607  0.0150
  153SAPE   H9R17004   4.880   1.467   9.530  2.0278 -0.2600 -0.2228
  153SAPE  C21017005   5.020   1.564   9.661 -1.1247 -0.1997  0.4926
  153SAPE  H10R17006   5.027   1.612   9.760  1.9324  0.9066 -0.1610
  153SAPE  H10S17007   5.063   1.623   9.577  1.8494 -0.8667  1.4281
  153SAPE  C21117008   5.113   1.435   9.661 -0.1404 -0.6456  0.2152
  153SAPE  H11R17009   5.115   1.398   9.764  2.4516  0.8563  0.7745
  153SAPE  C21217010   5.186   1.383   9.554  0.2503  0.5183 -0.8802
  153SAPE  H12R17011   5.245   1.294   9.581  1.6405  2.0112  1.3182
  153SAPE  C21317012   5.197   1.434   9.412 -0.0436 -0.1880 -0.1072
  153SAPE  H13R17013   5.297   1.480   9.400  0.2299 -0.9955 -1.0628
  153SAPE  H13S17014   5.116   1.507   9.389 -1.1604 -1.2313  0.4547
  153SAPE  C21417015   5.188   1.309   9.329 -0.1663  0.6782 -0.5461
  153SAPE  H14R17016   5.240   1.223   9.374 -1.4104  0.4889  0.5919
  153SAPE  C21517017   5.127   1.302   9.208 -0.0152  0.0600 -0.0384
  153SAPE  H15R17018   5.114   1.199   9.171 -1.4151 -2.2076  5.6012
  153SAPE  C21617019   5.076   1.420   9.129 -1.0253  0.5987 -0.0078
  153SAPE  H16R17020   5.087   1.509   9.194  2.6290  0.8873 -0.7718
  153SAPE  H16S17021   4.973   1.386   9.106 -0.2684 -3.1408  1.3499
  153SAPE  C21717022   5.145   1.437   8.999 -0.3765 -0.3141 -0.3333
  153SAPE  H17R17023   5.116   1.527   8.940  2.5164  0.7943 -0.2121
  153SAPE  H17S17024   5.129   1.347   8.936  4.2419 -2.4352  1.1418
  153SAPE  C21817025   5.294   1.471   8.999 -0.2843  0.4600  0.3204
  153SAPE  H18R17026   5.335   1.368   8.989 -0.2134  0.5920 -0.8002
  153SAPE  H18S17027   5.316   1.516   9.098 -1.5272 -1.0889  1.3484
  153SAPE  C21917028   5.340   1.551   8.877 -0.2436  0.1482  1.1144
  153SAPE  H19R17029   5.284   1.643   8.852  1.3489  0.1755 -3.3240
  153SAPE  H19S17030   5.327   1.483   8.789  2.5508  0.8333  0.0712
  153SAPE  C22017031   5.483   1.587   8.897  0.0369 -0.0728 -0.0093
  153SAPE  H20R17032   5.558   1.506   8.912  0.2461  0.4295  2.1212
  153SAPE  H20S17033   5.488   1.645   8.992  1.0762 -0.6358  0.3011
  153SAPE  H20T17034   5.522   1.655   8.818 -1.5080  1.9733  0.9042
  153SAPE   C3317035   4.810   1.435  10.738  0.2743  0.6421  0.5358
  153SAPE   H3X17036   4.808   1.523  10.806  1.3981  0.3297  0.9928
  153SAPE   H3Y17037   4.830   1.468  10.634  0.5175 -2.3377 -0.4351
  153SAPE   C3417038   4.928   1.348  10.776  0.6067  0.7831  0.4663
  153SAPE   H4X17039   4.915   1.252  10.722 -0.6050  0.8500  0.6108
  153SAPE   H4Y17040   4.922   1.330  10.886 -1.8087 -2.1443  0.0050
  153SAPE   C3517041   5.056   1.399  10.722 -0.0436  0.4275  0.0403
  153SAPE   H5X17042   5.077   1.498  10.767  1.9379 -0.3929  1.0720
  153SAPE   H5Y17043   5.054   1.403  10.611 -0.4663 -0.7551 -0.0077
  153SAPE   C3617044   5.173   1.304  10.760  0.5913 -0.3070  0.3352
  153SAPE   H6X17045   5.141   1.202  10.732 -0.1421 -0.3700  1.3505
  153SAPE   H6Y17046   5.177   1.293  10.871 -1.0522  2.7269  0.8188
  153SAPE   C3717047   5.307   1.328  10.692 -0.0045 -0.3948  0.3889
  153SAPE   H7X17048   5.386   1.268  10.741 -0.1071  0.1937  1.3093
  153SAPE   H7Y17049   5.344   1.429  10.719 -2.5904  0.8674 -0.5064
  153SAPE   C3817050   5.297   1.314  10.538  0.0997  0.4598  0.4859
  153SAPE   H8X17051   5.250   1.405  10.497 -0.6951 -0.6183 -1.1328
  153SAPE   H8Y17052   5.245   1.220  10.510  0.3858  0.4208  0.0783
  153SAPE   C3917053   5.438   1.312  10.474 -0.4808  0.0830 -0.0149
  153SAPE   H9X17054   5.506   1.254  10.540 -1.1602 -0.1127  0.5307
  153SAPE   H9Y17055   5.474   1.417  10.475 -0.1743 -0.0226  1.4402
  153SAPE  C31017056   5.439   1.265  10.330  0.9745  0.4222  0.0781
  153SAPE  H10X17057   5.378   1.337  10.271 -0.9206 -1.2250 -0.0663
  153SAPE  H10Y17058   5.392   1.165  10.318  2.2868 -0.1318 -0.7741
  153SAPE  C31117059   5.579   1.248  10.272  0.3762  0.2932  0.5170
  153SAPE  H11X17060   5.561   1.219  10.166 -0.7160  0.9322  0.5092
  153SAPE  H11Y17061   5.617   1.152  10.315  0.8364  0.2668  0.0588
  153SAPE  C31217062   5.662   1.377  10.278 -0.7688  0.2712 -0.6434
  153SAPE  H12X17063   5.729   1.381  10.367  0.9733 -1.0492 -1.8276
  153SAPE  H12Y17064   5.603   1.471  10.279 -2.0018 -0.4695  0.6056
  153SAPE  C31317065   5.753   1.378  10.149  0.3540  0.0214  0.0346
  153SAPE  H13X17066   5.688   1.407  10.064 -0.4744 -2.0855 -0.1091
  153SAPE  H13Y17067   5.773   1.273  10.117 -0.1308  0.2558 -1.0719
  153SAPE  C31417068   5.876   1.465  10.168 -0.4773 -0.6005 -0.1742
  153SAPE  H14X17069   5.960   1.404  10.208  0.0833 -0.4797 -1.1350
  153SAPE  H14Y17070   5.839   1.550  10.229  0.4655  2.6177 -3.6385
  153SAPE  C31517071   5.922   1.534  10.035  0.4806  0.2399  0.4691
  153SAPE  H15X17072   6.028   1.566  10.031 -0.0582  2.1090 -2.5718
  153SAPE  H15Y17073   5.859   1.626  10.032  1.8721  1.2146 -0.0919
  153SAPE  C31617074   5.906   1.463   9.899  0.2819  0.0180  0.6922
  153SAPE  H16X17075   5.917   1.552   9.833  3.1036  1.0932  2.4449
  153SAPE  H16Y17076   5.803   1.420   9.899 -1.0577  2.7139  4.1506
  153SAPE  C31717077   6.022   1.365   9.856  0.3464 -0.1702  0.5355
  153SAPE  H17X17078   6.040   1.287   9.933  2.3677 -0.3083 -0.0088
  153SAPE  H17Y17079   6.122   1.414   9.855 -1.0403  2.8620  0.8449
  153SAPE  C31817080   5.987   1.299   9.718  0.2580 -0.7087 -0.1641
  153SAPE  H18X17081   5.965   1.376   9.640  3.5078  1.3030  0.7442
  153SAPE  H18Y17082   5.896   1.236   9.727 -0.7094  0.2097 -2.4900
  153SAPE  H18Z17083   6.068   1.232   9.682 -0.3786 -2.6448  1.7959
  154SAPE     N17084   6.294   3.885  10.833  0.0244  0.4426 -0.8480
  154SAPE   HN117085   6.364   3.932  10.772 -0.1280  1.9841  0.0998
  154SAPE   HN217086   6.242   3.951  10.895  1.3332  1.3332 -0.6591
  154SAPE   HN317087   6.349   3.818  10.891 -0.1418  1.5488  0.6511
  154SAPE   C1217088   6.199   3.814  10.743 -0.0782 -0.3424  0.3129
  154SAPE  H12A17089   6.251   3.724  10.704 -1.3744 -1.5027  1.1688
  154SAPE  H12B17090   6.183   3.888  10.662 -0.3144  2.1107  2.4692
  154SAPE   C1117091   6.062   3.783  10.803 -0.1932  0.3795 -0.4553
  154SAPE  H11A17092   6.003   3.737  10.721  2.4243 -1.1242 -1.6338
  154SAPE  H11B17093   6.014   3.875  10.843 -1.1654 -0.4016  0.2117
  154SAPE     P17094   5.954   3.611  10.973  0.6823 -0.3716  0.3280
  154SAPE   O1317095   5.990   3.484  11.042 -0.1966 -0.2192 -0.1418
  154SAPE   O1417096   5.872   3.697  11.061  0.3226 -0.3751 -0.2214
  154SAPE   O1217097   6.078   3.691  10.912 -0.4232  0.6259  0.2580
  154SAPE   O1117098   5.863   3.579  10.850 -0.5520  0.4391 -0.0472
  154SAPE    C117099   5.911   3.491  10.750 -0.2891  0.5498  0.2430
  154SAPE    HA17100   5.892   3.538  10.652 -0.3074  0.6239  0.2825
  154SAPE    HB17101   6.022   3.486  10.755 -0.1357  1.3640 -1.7981
  154SAPE    C217102   5.845   3.348  10.750 -0.7333  0.2691 -0.3994
  154SAPE    HS17103   5.853   3.305  10.853 -0.1077 -0.1521 -0.6118
  154SAPE   O2117104   5.920   3.255  10.669 -0.1043 -0.4852  0.1737
  154SAPE   C2117105   5.891   3.123  10.686  0.2202  0.3470 -0.0417
  154SAPE   O2217106   5.810   3.076  10.759 -0.1232  0.0305  0.3509
  154SAPE   C2217107   5.954   3.030  10.575  0.3815 -0.2314 -0.5752
  154SAPE   H2R17108   6.062   3.056  10.565  1.1956 -2.5486  1.3881
  154SAPE   H2S17109   5.945   2.930  10.622 -0.3086  0.5521  1.0003
  154SAPE    C317110   5.695   3.345  10.718  0.1405 -0.2482  0.1944
  154SAPE    HX17111   5.648   3.425  10.780 -1.1338  1.2532 -2.5083
  154SAPE    HY17112   5.651   3.248  10.749 -1.1753 -0.8342 -3.1023
  154SAPE   O3117113   5.669   3.372  10.575 -0.0422  0.6194 -0.0253
  154SAPE   C3117114   5.648   3.263  10.504 -0.3099 -0.2706 -0.1454
  154SAPE   O3217115   5.615   3.153  10.547  0.2261  0.1277  0.9035
  154SAPE   C3217116   5.687   3.287  10.347 -0.2722  0.7151 -0.3086
  154SAPE   H2X17117   5.797   3.286  10.337 -0.1698 -0.4588  0.7181
  154SAPE   H2Y17118   5.642   3.382  10.312  0.8084  1.2442 -0.2971
  154SAPE   C2317119   5.890   3.017  10.438 -0.7935  0.1023  0.0916
  154SAPE   H3R17120   5.898   3.119  10.394 -1.3823  0.6159  1.1634
  154SAPE   H3S17121   5.787   2.977  10.448 -0.3247 -1.1796 -0.0294
  154SAPE   C2417122   5.952   2.908  10.349  1.0411  0.2085 -0.0659
  154SAPE   H4R17123   5.896   2.890  10.255  1.3498 -0.7541 -0.0818
  154SAPE   H4S17124   5.952   2.818  10.414  0.7428  1.6238  1.9874
  154SAPE   C2517125   6.092   2.936  10.315 -0.3913 -0.1352  0.5724
  154SAPE   H5R17126   6.150   2.986  10.394 -1.3866  1.2578  0.4542
  154SAPE   C2617127   6.157   2.911  10.200  0.7887  0.3978  0.2356
  154SAPE   H6R17128   6.257   2.957  10.192  0.0903  2.3704  2.0054
  154SAPE   C2717129   6.092   2.840  10.085 -0.7713 -0.6647 -0.0623
  154SAPE   H7R17130   6.025   2.759  10.121  0.0910 -1.5881 -0.4576
  154SAPE   H7S17131   6.170   2.788  10.024 -1.2099 -0.6497 -0.6402
  154SAPE   C2817132   6.009   2.933  10.002 -0.3860 -0.1187  0.6747
  154SAPE   H8R17133   5.975   3.023  10.057  0.0029  1.4464 -1.5259
  154SAPE   C2917134   5.976   2.918   9.871 -0.3038 -0.0298  0.1764
  154SAPE   H9R17135   5.911   2.998   9.832  1.7017  2.6184  1.8835
  154SAPE  C21017136   6.011   2.799   9.782 -0.0936  0.0887 -0.2566
  154SAPE  H10R17137   6.001   2.714   9.851  0.9754 -0.4629 -0.7513
  154SAPE  H10S17138   6.120   2.798   9.759  0.1760 -0.9947  1.0198
  154SAPE  C21117139   5.918   2.781   9.668 -0.4175 -0.0060 -0.0655
  154SAPE  H11R17140   5.835   2.710   9.681 -0.8654  0.6931  1.0010
  154SAPE  C21217141   5.920   2.841   9.551  0.3705 -0.4017  0.3914
  154SAPE  H12R17142   5.841   2.819   9.478 -0.1560 -0.5902  1.0074
  154SAPE  C21317143   6.019   2.940   9.507 -0.2741 -0.4876  0.7661
  154SAPE  H13R17144   6.079   2.902   9.422 -0.4543  0.6642  0.0943
  154SAPE  H13S17145   6.090   2.951   9.592  1.2038 -1.5088 -0.2990
  154SAPE  C21417146   5.954   3.073   9.473 -0.0667  0.2545  0.0716
  154SAPE  H14R17147   5.894   3.115   9.556 -0.6844  2.2597 -1.3337
  154SAPE  C21517148   5.975   3.141   9.361 -0.6582  0.6652 -0.3471
  154SAPE  H15R17149   5.911   3.229   9.344 -0.2764  1.1109  0.4800
  154SAPE  C21617150   6.055   3.095   9.238 -0.4563 -0.7197  0.0103
  154SAPE  H16R17151   6.120   3.006   9.247 -0.9054 -0.9971  0.5353
  154SAPE  H16S17152   6.116   3.178   9.196 -0.7717  0.1347  1.1925
  154SAPE  C21717153   5.948   3.040   9.134 -0.7366  0.5151  0.4043
  154SAPE  H17R17154   5.878   2.969   9.184  0.4211 -0.0866  1.2139
  154SAPE  H17S17155   6.009   2.983   9.062  0.0242 -0.0889  1.4946
  154SAPE  C21817156   5.857   3.148   9.064 -0.0874 -0.2382  0.0573
  154SAPE  H18R17157   5.920   3.232   9.027  0.7899  0.0735  2.1219
  154SAPE  H18S17158   5.785   3.188   9.138 -0.5408  0.3480 -0.6837
  154SAPE  C21917159   5.789   3.084   8.943  0.1210  0.3537  0.3829
  154SAPE  H19R17160   5.728   2.992   8.960  0.0863  0.4498  0.7819
  154SAPE  H19S17161   5.873   3.051   8.878 -0.1740  1.0660 -0.3901
  154SAPE  C22017162   5.702   3.185   8.857 -0.1526 -0.1392 -0.4115
  154SAPE  H20R17163   5.695   3.281   8.912 -0.9862  0.4432 -1.4892
  154SAPE  H20S17164   5.602   3.140   8.841 -0.1769 -0.4711  0.6675
  154SAPE  H20T17165   5.748   3.207   8.758  1.5247  0.9823  0.5735
  154SAPE   C3317166   5.632   3.175  10.246  0.2682 -0.0428 -0.5825
  154SAPE   H3X17167   5.523   3.181  10.226  0.2158  2.6264  0.1024
  154SAPE   H3Y17168   5.656   3.071  10.276 -2.6000 -0.8610 -0.7517
  154SAPE   C3417169   5.698   3.177  10.108  0.2846  0.0804 -0.0327
  154SAPE   H4X17170   5.654   3.095  10.047  0.3227  0.6766 -0.8733
  154SAPE   H4Y17171   5.809   3.170  10.114  0.1101 -3.3277  2.1707
  154SAPE   C3517172   5.673   3.300  10.020 -0.6116  0.3929  0.1361
  154SAPE   H5X17173   5.740   3.384  10.052  2.4317 -1.5992 -0.5681
  154SAPE   H5Y17174   5.567   3.331  10.031  0.5275  4.5537  1.4289
  154SAPE   C3617175   5.706   3.262   9.871 -0.2356  0.0068 -0.2047
  154SAPE   H6X17176   5.669   3.159   9.853  1.0068 -0.9387  2.1470
  154SAPE   H6Y17177   5.816   3.254   9.859 -0.3142  0.2245 -1.0730
  154SAPE   C3717178   5.652   3.363   9.769  0.1820 -0.2512  0.5449
  154SAPE   H7X17179   5.669   3.469   9.796  0.7714 -0.5872  1.5640
  154SAPE   H7Y17180   5.542   3.347   9.762  0.3184 -0.7564 -0.6187
  154SAPE   C3817181   5.721   3.342   9.629  0.2921 -0.1011  0.3423
  154SAPE   H8X17182   5.688   3.241   9.598  1.1478 -0.6109  1.0331
  154SAPE   H8Y17183   5.832   3.340   9.639  0.3246  0.9909  0.2380
  154SAPE   C3917184   5.679   3.446   9.522  0.1364 -0.1548 -0.4554
  154SAPE   H9X17185   5.776   3.500   9.513  0.7419 -1.1157  0.0964
  154SAPE   H9Y17186   5.603   3.518   9.559 -1.3616  0.0863 -3.6536
  154SAPE  C31017187   5.627   3.393   9.394 -0.0170 -0.1099  0.0330
  154SAPE  H10X17188   5.538   3.330   9.414 -0.8194  1.0011  0.0431
  154SAPE  H10Y17189   5.703   3.332   9.340 -0.2974 -1.0751  0.6856
  154SAPE  C31117190   5.586   3.500   9.288  0.1909  0.7984 -0.2134
  154SAPE  H11X17191   5.670   3.573   9.282 -0.4779  1.6749  0.7682
  154SAPE  H11Y17192   5.503   3.565   9.325  0.1968  1.1174 -0.7474
  154SAPE  C31217193   5.555   3.447   9.149 -0.0506 -0.3606 -0.5271
  154SAPE  H12X17194   5.490   3.357   9.146  0.3274 -0.6997  0.6954
  154SAPE  H12Y17195   5.643   3.416   9.088  0.7221 -0.4596  0.6028
  154SAPE  C31317196   5.463   3.549   9.074 -0.5147 -0.9022  0.3108
  154SAPE  H13X17197   5.527   3.636   9.096  0.4829 -2.0056  1.9925
  154SAPE  H13Y17198   5.365   3.564   9.124 -1.2421 -0.9879 -1.0334
  154SAPE  C31417199   5.450   3.524   8.916 -0.3522  0.2138  0.5451
  154SAPE  H14X17200   5.423   3.418   8.896  0.3523  0.1944 -0.3275
  154SAPE  H14Y17201   5.555   3.542   8.886 -0.5546  0.8665  0.2141
  154SAPE  C31517202   5.363   3.622   8.840  0.4300  0.2499 -0.4407
  154SAPE  H15X17203   5.367   3.724   8.885 -0.9107  0.2006 -0.1478
  154SAPE  H15Y17204   5.261   3.582   8.858  0.8218  0.5734  3.3861
  154SAPE  C31617205   5.400   3.617   8.691  0.5506  0.2621  0.9550
  154SAPE  H16X17206   5.375   3.515   8.654 -1.6450  0.0812  2.7020
  154SAPE  H16Y17207   5.509   3.638   8.683  0.7909 -0.9017  1.0443
  154SAPE  C31717208   5.326   3.726   8.613  0.2431 -0.5104  0.6800
  154SAPE  H17X17209   5.350   3.823   8.662 -0.7343  0.5395 -0.8205
  154SAPE  H17Y17210   5.218   3.702   8.615 -0.4825  2.1193 -1.1927
  154SAPE  C31817211   5.381   3.710   8.467 -0.3215 -0.3114 -0.0256
  154SAPE  H18X17212   5.378   3.608   8.425  0.1989 -0.2341 -0.2641
  154SAPE  H18Y17213   5.490   3.733   8.474 -0.5874  0.7113  1.1239
  154SAPE  H18Z17214   5.336   3.777   8.390  0.8912  0.9044  0.2730
  155SAPE     N17215   1.522   1.240  10.936 -0.1374  0.7040  0.0109
  155SAPE   HN117216   1.424   1.206  10.930 -0.2111  1.1544 -2.1783
  155SAPE   HN217217   1.539   1.289  11.026 -0.0195 -0.9172  0.9125
  155SAPE   HN317218   1.529   1.310  10.859  0.5196  0.7762  0.1313
  155SAPE   C1217219   1.625   1.133  10.922 -0.0991 -0.0829  0.9521
  155SAPE  H12A17220   1.726   1.180  10.931 -0.0506  0.2948 -1.0810
  155SAPE  H12B17221   1.606   1.093  10.820 -1.0081  1.0965  0.6380
  155SAPE   C1117222   1.609   1.031  11.023  0.3727 -0.1866  1.0609
  155SAPE  H11A17223   1.604   1.068  11.128 -0.2643 -1.4003  1.4788
  155SAPE  H11B17224   1.701   0.969  11.022 -0.0615 -0.9529  3.0253
  155SAPE     P17225   1.487   0.816  10.909 -0.0074 -0.1354 -0.0859
  155SAPE   O1317226   1.602   0.735  10.947 -0.0005  0.0396 -0.3675
  155SAPE   O1417227   1.352   0.762  10.920  0.6633  0.1536 -0.1058
  155SAPE   O1217228   1.492   0.955  10.998 -0.0242 -0.0307 -0.4686
  155SAPE   O1117229   1.510   0.877  10.765  0.6733  0.0681 -0.1669
  155SAPE    C117230   1.414   0.944  10.684 -0.1463 -0.1450  0.4804
  155SAPE    HA17231   1.318   0.954  10.739 -1.3438  2.2429 -1.7620
  155SAPE    HB17232   1.459   1.042  10.655  0.5076 -0.4086  0.5987
  155SAPE    C217233   1.384   0.876  10.542 -0.0672 -0.2237 -0.9320
  155SAPE    HS17234   1.282   0.900  10.506 -0.4990 -0.7000 -0.0433
  155SAPE   O2117235   1.379   0.734  10.559 -0.2172  0.1250 -0.2104
  155SAPE   C2117236   1.269   0.685  10.596  0.1309 -0.2312  0.3779
  155SAPE   O2217237   1.165   0.744  10.625 -0.0064  0.0901  0.0478
  155SAPE   C2217238   1.286   0.533  10.602 -0.0038 -1.0936  0.3065
  155SAPE   H2R17239   1.336   0.514  10.700  0.3601 -0.8386  0.1704
  155SAPE   H2S17240   1.189   0.482  10.620  1.0740 -3.3732  0.0231
  155SAPE    C317241   1.493   0.925  10.435  0.7113  0.0619  0.8713
  155SAPE    HX17242   1.596   0.901  10.469  0.5128 -0.7344  0.9219
  155SAPE    HY17243   1.493   1.035  10.421 -0.4995 -0.0754 -0.3599
  155SAPE   O3117244   1.485   0.868  10.305  0.5779  0.3577  0.0698
  155SAPE   C3117245   1.372   0.881  10.235  0.5796  0.7092 -0.6384
  155SAPE   O3217246   1.273   0.940  10.279  0.6941  0.3752 -0.3483
  155SAPE   C3217247   1.392   0.828  10.090 -0.3443  0.1901 -0.0431
  155SAPE   H2X17248   1.451   0.734  10.090  1.2393  1.0900  1.7541
  155SAPE   H2Y17249   1.455   0.910  10.048  1.4617 -0.3704  1.4452
  155SAPE   C2317250   1.354   0.465  10.480 -0.3386  0.3964  0.0349
  155SAPE   H3R17251   1.366   0.357  10.505 -0.3715 -0.3659 -2.8997
  155SAPE   H3S17252   1.453   0.513  10.461 -1.2765  3.0125  1.3705
  155SAPE   C2417253   1.264   0.483  10.350 -0.6765  0.2426 -0.6014
  155SAPE   H4R17254   1.253   0.591  10.325  2.3251  0.2750 -2.2258
  155SAPE   H4S17255   1.165   0.440  10.373 -1.4058  2.2020  0.1663
  155SAPE   C2517256   1.341   0.416  10.242  0.5568  0.6054 -0.3094
  155SAPE   H5R17257   1.439   0.462  10.223  0.3205  1.5776  0.7237
  155SAPE   C2617258   1.300   0.303  10.169 -0.0347 -0.2197  0.0285
  155SAPE   H6R17259   1.362   0.270  10.084 -2.3696  3.4340 -3.4389
  155SAPE   C2717260   1.179   0.220  10.183  0.0331  0.5761  0.1323
  155SAPE   H7R17261   1.096   0.294  10.196 -0.3835  0.2348 -0.5277
  155SAPE   H7S17262   1.189   0.168  10.280 -0.1387  0.9436  0.3484
  155SAPE   C2817263   1.135   0.112  10.081  0.0256 -0.4107 -0.2722
  155SAPE   H8R17264   1.105   0.015  10.123 -0.3059 -1.0613 -1.9191
  155SAPE   C2917265   1.135   0.121   9.945 -0.1282  0.0179  0.0833
  155SAPE   H9R17266   1.088   0.039   9.888 -1.5757 -0.4169  1.8191
  155SAPE  C21017267   1.194   0.221   9.852 -0.0598 -0.8006  0.2223
  155SAPE  H10R17268   1.207   0.180   9.750 -0.6481  1.6271 -0.9116
  155SAPE  H10S17269   1.299   0.246   9.881  0.7559 -0.8269 -2.4564
  155SAPE  C21117270   1.121   0.350   9.843 -1.0348 -0.4376  0.3376
  155SAPE  H11R17271   1.112   0.404   9.939 -0.9082  1.2327 -0.5567
  155SAPE  C21217272   1.078   0.400   9.724  0.1547  0.0726  0.0192
  155SAPE  H12R17273   1.022   0.495   9.726 -1.0326 -0.5997  0.2231
  155SAPE  C21317274   1.084   0.328   9.584 -1.0156  0.4264 -0.3480
  155SAPE  H13R17275   1.010   0.366   9.511  0.8189  2.4210 -1.3165
  155SAPE  H13S17276   1.065   0.222   9.609  1.9121 -0.0535  0.2407
  155SAPE  C21417277   1.220   0.328   9.518  0.0030  0.1416 -0.1564
  155SAPE  H14R17278   1.298   0.397   9.553  0.5462 -0.1455 -0.7802
  155SAPE  C21517279   1.241   0.263   9.399  0.7157 -0.5177 -0.1099
  155SAPE  H15R17280   1.334   0.294   9.349  1.6392  2.3521  2.9681
  155SAPE  C21617281   1.138   0.193   9.314  0.6663  0.0592  0.2767
  155SAPE  H16R17282   1.099   0.260   9.234 -0.2913 -1.0254 -0.1892
  155SAPE  H16S17283   1.052   0.155   9.372  0.0955 -2.0279 -1.7570
  155SAPE  C21717284   1.206   0.075   9.250 -0.3013  0.0020  0.3137
  155SAPE  H17R17285   1.219  -0.003   9.328 -0.1451 -0.1038  0.1838
  155SAPE  H17S17286   1.307   0.095   9.210 -0.5473 -2.4466 -1.8196
  155SAPE  C21817287   1.133   0.018   9.127  0.1415  0.8587 -0.7590
  155SAPE  H18R17288   1.196  -0.057   9.074  2.0920  0.9482  1.2895
  155SAPE  H18S17289   1.114   0.103   9.058  0.8239  0.5714 -1.3137
  155SAPE  C21917290   0.989  -0.034   9.153 -0.9305  0.7034  0.4023
  155SAPE  H19R17291   0.942   0.048   9.211 -1.0952  1.6640 -1.0434
  155SAPE  H19S17292   0.995  -0.128   9.213 -0.5857 -0.3475 -1.2351
  155SAPE  C22017293   0.908  -0.074   9.028  0.1399  0.7301 -0.6156
  155SAPE  H20R17294   0.811  -0.124   9.050 -1.8519  3.8904 -1.5470
  155SAPE  H20S17295   0.956  -0.153   8.966 -2.3820 -1.7242  0.3361
  155SAPE  H20T17296   0.883   0.008   8.957 -1.0936  0.6012 -0.3600
  155SAPE   C3317297   1.267   0.820  10.003 -0.1944  0.2852  0.4878
  155SAPE   H3X17298   1.188   0.879  10.052 -1.2030 -1.1691  0.6689
  155SAPE   H3Y17299   1.230   0.716  10.014  1.3608 -0.4755 -0.8968
  155SAPE   C3417300   1.294   0.848   9.855 -0.7782  0.3690  0.0116
  155SAPE   H4X17301   1.376   0.782   9.819 -0.6659 -0.5130  1.7984
  155SAPE   H4Y17302   1.336   0.948   9.835  1.4577 -0.6579 -0.8035
  155SAPE   C3517303   1.168   0.835   9.765 -0.3837 -0.1201  0.6314
  155SAPE   H5X17304   1.082   0.895   9.802 -1.8701 -0.5875 -1.8039
  155SAPE   H5Y17305   1.128   0.731   9.768 -1.7898  0.3931  0.4132
  155SAPE   C3617306   1.195   0.876   9.621  0.0820 -0.0808 -0.1509
  155SAPE   H6X17307   1.283   0.822   9.580 -0.6381 -0.3534 -1.3628
  155SAPE   H6Y17308   1.247   0.974   9.628 -0.3529  0.0451  2.9361
  155SAPE   C3717309   1.066   0.875   9.539 -0.1977 -0.1721 -1.0311
  155SAPE   H7X17310   1.082   0.920   9.439 -0.5967  2.3282 -0.0384
  155SAPE   H7Y17311   0.984   0.931   9.590  0.9317 -0.0288  0.7061
  155SAPE   C3817312   1.014   0.729   9.509 -0.6346  0.5727 -0.4240
  155SAPE   H8X17313   0.986   0.682   9.606 -0.2679  1.8949  0.3522
  155SAPE   H8Y17314   1.098   0.665   9.474 -0.9994  1.0174 -2.2289
  155SAPE   C3917315   0.899   0.713   9.409  0.1624  0.4945 -0.1061
  155SAPE   H9X17316   0.921   0.763   9.312  2.8192 -0.3593 -0.0123
  155SAPE   H9Y17317   0.808   0.756   9.456 -1.3824 -0.7350 -1.7712
  155SAPE  C31017318   0.861   0.559   9.381 -0.3172 -0.4196 -1.0010
  155SAPE  H10X17319   0.841   0.511   9.479 -0.4569  0.1220 -0.7601
  155SAPE  H10Y17320   0.953   0.509   9.344 -0.6454 -0.5789 -1.6240
  155SAPE  C31117321   0.735   0.532   9.293 -0.1102  0.2073 -0.0247
  155SAPE  H11X17322   0.652   0.589   9.341 -0.9583 -0.4971 -0.6284
  155SAPE  H11Y17323   0.700   0.427   9.301 -0.1613 -0.1061 -3.1446
  155SAPE  C31217324   0.757   0.571   9.147  0.7891  0.2198  0.0742
  155SAPE  H12X17325   0.791   0.677   9.139 -3.8683  1.9048 -0.4589
  155SAPE  H12Y17326   0.660   0.565   9.092  0.6663 -2.2837  0.4756
  155SAPE  C31317327   0.859   0.480   9.074  0.3989  0.5914 -0.7240
  155SAPE  H13X17328   0.830   0.373   9.078 -0.8060  0.9312  0.0306
  155SAPE  H13Y17329   0.954   0.483   9.132 -1.1981  0.8094  2.0279
  155SAPE  C31417330   0.890   0.536   8.932 -0.2320  0.3354 -0.4897
  155SAPE  H14X17331   0.916   0.644   8.942  0.2830  0.0145  2.9298
  155SAPE  H14Y17332   0.801   0.541   8.865  0.8551  2.4512 -1.8750
  155SAPE  C31517333   1.012   0.457   8.870 -0.3375  0.0935  0.3148
  155SAPE  H15X17334   1.093   0.462   8.947  0.6697  0.8036 -0.7633
  155SAPE  H15Y17335   1.045   0.493   8.771  0.3325 -1.8114 -0.1901
  155SAPE  C31617336   0.982   0.303   8.850 -0.8781  0.7684  0.1868
  155SAPE  H16X17337   0.873   0.288   8.864 -1.1282 -1.3319 -3.0805
  155SAPE  H16Y17338   1.028   0.232   8.922  0.2568 -3.7651 -4.4222
  155SAPE  C31717339   1.026   0.251   8.715  0.4878 -0.4633 -0.2241
  155SAPE  H17X17340   1.136   0.268   8.712  0.0732  2.7717 -1.8698
  155SAPE  H17Y17341   0.984   0.311   8.631  1.0189 -0.4734 -0.4976
  155SAPE  C31817342   1.006   0.105   8.701 -0.0192 -0.7012 -0.1330
  155SAPE  H18X17343   0.905   0.079   8.739 -0.0538  2.2371  2.1689
  155SAPE  H18Y17344   1.090   0.054   8.753  0.6445 -0.9126 -1.3669
  155SAPE  H18Z17345   1.011   0.076   8.594 -1.3587 -1.4436 -0.0064
  156SAPE     N17346   5.740   0.149  10.402  0.0895  1.0609 -0.8733
  156SAPE   HN117347   5.755   0.092  10.317 -1.5399 -0.3083 -0.2936
  156SAPE   HN217348   5.652   0.205  10.403 -0.1247  0.7458 -1.4721
  156SAPE   HN317349   5.820   0.216  10.407 -2.3475  4.2409 -1.3904
  156SAPE   C1217350   5.755   0.059  10.526 -0.5542 -0.4724  0.4584
  156SAPE  H12A17351   5.838  -0.013  10.507  0.8105  1.0754  0.2832
  156SAPE  H12B17352   5.657   0.010  10.545 -1.4186  1.5657  1.4780
  156SAPE   C1117353   5.792   0.134  10.647  0.5290  0.1651  1.1477
  156SAPE  H11A17354   5.787   0.055  10.725 -3.3715 -0.5746  0.3579
  156SAPE  H11B17355   5.710   0.207  10.663  0.0024 -0.1521 -0.0088
  156SAPE     P17356   5.941   0.349  10.621 -0.2262  0.0117  0.3569
  156SAPE   O1317357   5.834   0.427  10.690 -0.1895 -0.2975  0.4675
  156SAPE   O1417358   6.081   0.393  10.651  0.2919  0.3569  0.5857
  156SAPE   O1217359   5.919   0.194  10.644 -0.0359  0.6305  0.1413
  156SAPE   O1117360   5.906   0.345  10.469 -0.6263  0.1755  0.1941
  156SAPE    C117361   5.939   0.468  10.406  0.4338  0.0843 -0.3263
  156SAPE    HA17362   5.869   0.549  10.437  0.4886 -0.3276  0.9126
  156SAPE    HB17363   6.042   0.506  10.421 -0.5475  3.1872 -0.6635
  156SAPE    C217364   5.919   0.443  10.255  0.1547  0.3832  0.5019
  156SAPE    HS17365   5.913   0.547  10.217 -3.4563 -0.0032 -0.3846
  156SAPE   O2117366   5.794   0.379  10.229  0.4413 -0.3350 -0.3914
  156SAPE   C2117367   5.728   0.413  10.117 -0.4439  0.4121  1.0356
  156SAPE   O2217368   5.767   0.497  10.031 -0.8483  0.0482 -0.3436
  156SAPE   C2217369   5.585   0.351  10.117  0.1941 -0.1471 -0.4725
  156SAPE   H2R17370   5.592   0.248  10.157  0.8531 -0.6720 -1.8870
  156SAPE   H2S17371   5.527   0.407  10.194  0.1128  1.3490 -1.5752
  156SAPE    C317372   6.033   0.355  10.198 -0.0429  0.1319  0.4065
  156SAPE    HX17373   6.006   0.260  10.248  1.1147 -0.2117  0.4119
  156SAPE    HY17374   6.133   0.390  10.232 -0.0722  1.3480 -0.6667
  156SAPE   O3117375   6.035   0.353  10.055 -0.8242  0.6515  0.0831
  156SAPE   C3117376   6.068   0.462   9.999  0.3172  0.2494  0.2764
  156SAPE   O3217377   6.100   0.565  10.058 -0.4563  0.6123  0.1724
  156SAPE   C3217378   6.063   0.451   9.851  0.5362 -0.0888  0.5240
  156SAPE   H2X17379   5.975   0.513   9.825  1.4715  1.6555  1.3544
  156SAPE   H2Y17380   6.049   0.345   9.820  2.3853  0.0460 -0.9698
  156SAPE   C2317381   5.500   0.358   9.989 -0.1166  0.4628  0.3501
  156SAPE   H3R17382   5.404   0.305  10.005  0.0952 -0.1605 -0.3930
  156SAPE   H3S17383   5.547   0.293   9.913 -1.7165 -0.8591  0.4307
  156SAPE   C2417384   5.465   0.494   9.941  0.2223 -0.3302 -0.4646
  156SAPE   H4R17385   5.546   0.570   9.948  0.3069 -0.4281 -0.3712
  156SAPE   H4S17386   5.394   0.530  10.019 -2.1561 -1.4783 -1.9608
  156SAPE   C2517387   5.398   0.508   9.806  0.2233  0.1931 -0.4379
  156SAPE   H5R17388   5.297   0.466   9.800 -0.4906  1.5759  1.1185
  156SAPE   C2617389   5.444   0.573   9.698  0.2811  0.5316  0.1186
  156SAPE   H6R17390   5.372   0.568   9.614  0.1157 -1.1145  0.3219
  156SAPE   C2717391   5.576   0.649   9.683  0.3804 -0.0332 -0.3786
  156SAPE   H7R17392   5.589   0.724   9.764 -3.6485 -0.2736  0.7069
  156SAPE   H7S17393   5.577   0.712   9.592  1.1977  1.4999  0.6575
  156SAPE   C2817394   5.687   0.547   9.681 -0.1178 -0.7163 -0.4463
  156SAPE   H8R17395   5.709   0.509   9.782 -0.1986 -0.3182 -0.2784
  156SAPE   C2917396   5.768   0.504   9.581  0.4013 -0.5998 -0.6064
  156SAPE   H9R17397   5.847   0.438   9.621  0.4147 -0.9802 -1.2549
  156SAPE  C21017398   5.776   0.535   9.434  0.0748 -0.5861 -0.0722
  156SAPE  H10R17399   5.881   0.529   9.398  0.1544 -0.6014  0.1596
  156SAPE  H10S17400   5.740   0.638   9.416 -2.0922 -1.4802 -1.1563
  156SAPE  C21117401   5.708   0.436   9.344  0.2614 -0.2542 -0.2841
  156SAPE  H11R17402   5.676   0.343   9.393  1.7371 -0.1363  0.9827
  156SAPE  C21217403   5.694   0.447   9.208  0.2537 -0.3467  0.0054
  156SAPE  H12R17404   5.634   0.371   9.156  1.2539 -1.8126  0.9168
  156SAPE  C21317405   5.730   0.566   9.124 -0.2221 -0.4760  0.2138
  156SAPE  H13R17406   5.779   0.641   9.189  2.1345 -0.7509 -1.1159
  156SAPE  H13S17407   5.634   0.611   9.090  0.3484  1.3498  0.8708
  156SAPE  C21417408   5.817   0.524   9.006  0.5144 -0.0783  0.1874
  156SAPE  H14R17409   5.925   0.545   9.010  0.0060  2.6533  2.4933
  156SAPE  C21517410   5.767   0.478   8.889  0.8173 -0.6070 -0.0519
  156SAPE  H15R17411   5.825   0.462   8.796 -0.8315 -1.6606 -0.9672
  156SAPE  C21617412   5.618   0.462   8.862  0.4386  0.4892 -0.3341
  156SAPE  H16R17413   5.578   0.539   8.793  0.2185  2.0936  1.4767
  156SAPE  H16S17414   5.558   0.473   8.955  1.2366  2.8971 -0.0353
  156SAPE  C21717415   5.580   0.322   8.812  0.5909  0.0575 -0.3420
  156SAPE  H17R17416   5.619   0.325   8.708 -0.7402 -1.7562 -0.9651
  156SAPE  H17S17417   5.471   0.297   8.810  1.1571 -3.2282  1.4961
  156SAPE  C21817418   5.643   0.201   8.889  0.1919  0.1497  0.6171
  156SAPE  H18R17419   5.637   0.212   9.000 -0.3505  0.4587  0.5579
  156SAPE  H18S17420   5.750   0.195   8.859  0.5797 -0.9822  2.0767
  156SAPE  C21917421   5.572   0.070   8.855 -0.3529 -0.4461 -0.2715
  156SAPE  H19R17422   5.569   0.059   8.745 -0.9937  2.3710 -0.6132
  156SAPE  H19S17423   5.467   0.078   8.889  0.8571 -2.3696  5.0372
  156SAPE  C22017424   5.633  -0.058   8.918  0.2632  0.1628 -0.8487
  156SAPE  H20R17425   5.653  -0.044   9.027 -0.9639  0.9345 -0.7057
  156SAPE  H20S17426   5.728  -0.086   8.869 -0.3346 -2.4456 -0.6496
  156SAPE  H20T17427   5.572  -0.149   8.904  0.0604  0.0266  0.6826
  156SAPE   C3317428   6.182   0.507   9.770 -0.7912 -0.8988  0.1992
  156SAPE   H3X17429   6.277   0.455   9.796  0.6014  1.7759  0.7829
  156SAPE   H3Y17430   6.204   0.611   9.802 -2.2271 -0.9293  1.3715
  156SAPE   C3417431   6.146   0.499   9.621 -0.2308  0.0666 -0.5073
  156SAPE   H4X17432   6.067   0.575   9.606 -1.7195 -1.0945  1.0184
  156SAPE   H4Y17433   6.112   0.396   9.598  1.7792 -0.9365  0.6689
  156SAPE   C3517434   6.274   0.524   9.535  0.3250 -0.2284 -0.7530
  156SAPE   H5X17435   6.347   0.440   9.537 -0.9569 -1.4374 -2.1686
  156SAPE   H5Y17436   6.320   0.616   9.578 -0.3916 -0.5349  0.7162
  156SAPE   C3617437   6.242   0.557   9.386  0.9510 -0.2346  0.1008
  156SAPE   H6X17438   6.186   0.652   9.371  0.0774 -0.7553 -0.0102
  156SAPE   H6Y17439   6.164   0.488   9.349  0.1248  0.9911 -0.5071
  156SAPE   C3717440   6.362   0.563   9.304  0.0334  0.9504 -0.1194
  156SAPE   H7X17441   6.426   0.473   9.300  1.6708  2.0835 -0.1890
  156SAPE   H7Y17442   6.430   0.642   9.342 -1.2148  0.5222  3.3670
  156SAPE   C3817443   6.321   0.598   9.161 -0.2800  0.0788 -0.5613
  156SAPE   H8X17444   6.403   0.656   9.112 -0.9984  0.9089 -0.8054
  156SAPE   H8Y17445   6.240   0.674   9.170 -1.9078 -1.7887  2.0731
  156SAPE   C3917446   6.283   0.483   9.072 -0.4407  0.1304 -1.2305
  156SAPE   H9X17447   6.205   0.417   9.116  0.8310  1.4146  3.5054
  156SAPE   H9Y17448   6.358   0.404   9.053 -2.5027 -1.9575 -1.2216
  156SAPE  C31017449   6.236   0.536   8.941  0.3794  1.0328 -0.0259
  156SAPE  H10X17450   6.307   0.597   8.881  1.0034  1.8406  1.4614
  156SAPE  H10Y17451   6.154   0.608   8.956  0.0086  0.4000  1.1146
  156SAPE  C31117452   6.203   0.408   8.856  0.3896 -0.9045 -0.0053
  156SAPE  H11X17453   6.132   0.341   8.908  0.0331  0.1324  0.8867
  156SAPE  H11Y17454   6.302   0.365   8.830  1.7068  0.8754  1.7059
  156SAPE  C31217455   6.126   0.450   8.727  0.3276 -0.4885  0.2527
  156SAPE  H12X17456   6.186   0.536   8.690  1.4871 -0.2111  2.5693
  156SAPE  H12Y17457   6.027   0.495   8.752  0.9271 -0.1940  2.3206
  156SAPE  C31317458   6.118   0.345   8.616  0.2460 -0.0987 -0.2366
  156SAPE  H13X17459   6.210   0.287   8.592 -0.5491 -0.9187 -1.4298
  156SAPE  H13Y17460   6.096   0.401   8.523  0.8333 -1.4171 -1.1984
  156SAPE  C31417461   5.999   0.253   8.648  0.3689 -0.5875  0.2399
  156SAPE  H14X17462   5.910   0.316   8.666  0.8489 -0.3917  2.1746
  156SAPE  H14Y17463   6.013   0.196   8.743  0.9455 -2.0976 -0.7116
  156SAPE  C31517464   5.955   0.160   8.539  0.2603  0.0298  0.1261
  156SAPE  H15X17465   6.043   0.095   8.520  0.3273 -0.5903  2.2349
  156SAPE  H15Y17466   5.935   0.215   8.445 -0.7462  1.5703  1.1816
  156SAPE  C31617467   5.838   0.070   8.583 -0.1562  0.2965  0.5241
  156SAPE  H16X17468   5.738   0.118   8.589 -1.9896 -2.9877 -0.7301
  156SAPE  H16Y17469   5.852   0.010   8.676  1.9718  1.9656  1.3551
  156SAPE  C31717470   5.808  -0.031   8.468  0.2208  0.1486 -0.2088
  156SAPE  H17X17471   5.890  -0.105   8.458 -1.3696 -1.5445 -1.4131
  156SAPE  H17Y17472   5.799   0.017   8.368 -1.2732 -1.6854 -1.0114
  156SAPE  C31817473   5.683  -0.112   8.498  0.0950 -0.3218 -0.4065
  156SAPE  H18X17474   5.670  -0.178   8.410 -0.3830  0.4398 -0.9134
  156SAPE  H18Y17475   5.595  -0.047   8.515  0.3744  0.1161 -0.6293
  156SAPE  H18Z17476   5.685  -0.176   8.590 -1.7838  1.6973  1.1207
  157SAPE     N17477   0.070   2.477  10.648 -0.2747 -0.3637  0.0996
  157SAPE   HN117478   0.139   2.443  10.718  1.1470 -0.3797 -1.2392
  157SAPE   HN217479   0.090   2.443  10.551  2.5939 -0.6411  0.6976
  157SAPE   HN317480   0.069   2.581  10.646 -0.5629 -0.3624  0.2851
  157SAPE   C1217481  -0.066   2.425  10.691 -0.6159 -0.8419 -0.6051
  157SAPE  H12A17482  -0.147   2.481  10.640 -1.6560 -1.9406 -0.2038
  157SAPE  H12B17483  -0.074   2.440  10.801 -1.3229 -1.6279 -0.5332
  157SAPE   C1117484  -0.085   2.277  10.665 -0.7639  0.1927 -0.1705
  157SAPE  H11A17485   0.004   2.222  10.703 -0.5039  0.2470 -0.6946
  157SAPE  H11B17486  -0.088   2.251  10.557  0.5420  0.5528 -0.3203
  157SAPE     P17487  -0.273   2.102  10.717 -0.0717 -0.3719 -0.5948
  157SAPE   O1317488  -0.171   1.999  10.752 -0.3931  0.7265  0.2331
  157SAPE   O1417489  -0.400   2.102  10.789 -0.2227 -0.2919 -0.0390
  157SAPE   O1217490  -0.197   2.241  10.738  0.2203  0.6447 -0.4396
  157SAPE   O1117491  -0.306   2.093  10.560 -0.4444  0.0934  0.0052
  157SAPE    C117492  -0.373   2.186  10.482 -0.3921  0.6136  0.6904
  157SAPE    HA17493  -0.387   2.282  10.535  2.7717  1.1617  0.7473
  157SAPE    HB17494  -0.312   2.206  10.391  2.2938  0.4171  2.3156
  157SAPE    C217495  -0.514   2.139  10.442  0.6456 -0.3429 -0.4308
  157SAPE    HS17496  -0.562   2.096  10.532  2.4805 -0.9986  0.2833
  157SAPE   O2117497  -0.513   2.050  10.332  0.5044  0.4297 -0.3413
  157SAPE   C2117498  -0.627   1.976  10.320  0.1165  0.0632  0.4160
  157SAPE   O2217499  -0.722   1.970  10.395 -0.2508 -0.0681 -0.4819
  157SAPE   C2217500  -0.627   1.900  10.187  0.6308 -0.2956 -0.1958
  157SAPE   H2R17501  -0.525   1.876  10.150  1.0168  2.9414 -1.5498
  157SAPE   H2S17502  -0.689   1.808  10.193 -2.1542  1.4983  0.3195
  157SAPE    C317503  -0.588   2.270  10.396 -0.4147 -0.3395 -0.1689
  157SAPE    HX17504  -0.599   2.336  10.485 -1.9130 -2.1311  1.0551
  157SAPE    HY17505  -0.695   2.251  10.374 -1.0221  1.6799  0.7334
  157SAPE   O3117506  -0.525   2.326  10.288  0.0257 -0.0328  0.6027
  157SAPE   C3117507  -0.472   2.454  10.297 -0.6066 -0.5034 -0.3527
  157SAPE   O3217508  -0.491   2.527  10.394 -0.5050  1.5277  0.4281
  157SAPE   C3217509  -0.401   2.500  10.178  0.2610 -0.3267  0.5903
  157SAPE   H2X17510  -0.481   2.528  10.106  0.3488  2.2903  1.3949
  157SAPE   H2Y17511  -0.348   2.410  10.140 -0.2231  0.2584 -1.5868
  157SAPE   C2317512  -0.687   2.005  10.090  0.0284 -0.6053  0.3745
  157SAPE   H3R17513  -0.604   2.078  10.078  0.2998 -0.7892  1.1049
  157SAPE   H3S17514  -0.777   2.062  10.123  0.9274  1.1849 -0.1304
  157SAPE   C2417515  -0.715   1.944   9.952 -0.4846 -0.7841  0.6520
  157SAPE   H4R17516  -0.637   1.870   9.926  0.2112 -0.1681  0.9254
  157SAPE   H4S17517  -0.691   2.032   9.888  2.0271 -0.6041  1.7177
  157SAPE   C2517518  -0.852   1.886   9.926  0.2212 -0.3266  0.2004
  157SAPE   H5R17519  -0.916   1.887  10.016  0.0631  2.2008  0.1324
  157SAPE   C2617520  -0.916   1.864   9.811  0.1102 -0.9170 -0.1183
  157SAPE   H6R17521  -1.021   1.832   9.810  0.0694 -0.8119 -1.7500
  157SAPE   C2717522  -0.853   1.877   9.675  0.4248 -0.7390 -0.3556
  157SAPE   H7R17523  -0.743   1.866   9.691  0.1008 -2.7041  0.9001
  157SAPE   H7S17524  -0.869   1.983   9.647 -1.8867 -0.1218  2.7460
  157SAPE   C2817525  -0.894   1.783   9.562 -0.3573 -0.2158  0.4990
  157SAPE   H8R17526  -0.997   1.798   9.528 -0.4878  0.1656  1.0556
  157SAPE   C2917527  -0.824   1.686   9.516  0.4470  0.1027 -0.4757
  157SAPE   H9R17528  -0.873   1.630   9.435  0.1100 -1.7887  0.9787
  157SAPE  C21017529  -0.688   1.634   9.560 -0.0749  0.0056  0.3489
  157SAPE  H10R17530  -0.710   1.595   9.662 -1.5448  2.9076  1.2741
  157SAPE  H10S17531  -0.615   1.715   9.580  1.4296 -1.0489 -0.6507
  157SAPE  C21117532  -0.620   1.523   9.481 -0.0330 -0.5333  0.2809
  157SAPE  H11R17533  -0.587   1.436   9.539  1.5410  0.3457  0.7675
  157SAPE  C21217534  -0.605   1.508   9.345  1.0231 -0.3512 -0.2384
  157SAPE  H12R17535  -0.553   1.420   9.304 -1.2120 -1.4146 -0.9605
  157SAPE  C21317536  -0.656   1.597   9.233  0.3494  0.5618 -0.2473
  157SAPE  H13R17537  -0.560   1.607   9.178  0.8235 -1.9934  0.0178
  157SAPE  H13S17538  -0.684   1.702   9.259  0.2854  2.0687 -5.2473
  157SAPE  C21417539  -0.772   1.530   9.164  0.2855  0.6968 -1.2070
  157SAPE  H14R17540  -0.821   1.452   9.224  0.9154  3.2851  3.0302
  157SAPE  C21517541  -0.827   1.563   9.048  0.1393 -0.3389 -0.3766
  157SAPE  H15R17542  -0.914   1.508   9.009  0.4577 -0.8736 -0.3383
  157SAPE  C21617543  -0.782   1.682   8.970  0.0499 -0.0411  0.4407
  157SAPE  H16R17544  -0.720   1.762   9.018 -1.7046  2.9214 -1.8963
  157SAPE  H16S17545  -0.878   1.734   8.952  0.1556 -1.0551 -4.2561
  157SAPE  C21717546  -0.735   1.641   8.828  0.5242 -0.0381 -0.1937
  157SAPE  H17R17547  -0.715   1.735   8.771 -1.0131  1.1277  1.1010
  157SAPE  H17S17548  -0.829   1.611   8.777  0.5540 -2.1927  0.9150
  157SAPE  C21817549  -0.624   1.533   8.817 -0.4038 -0.1491  0.2289
  157SAPE  H18R17550  -0.631   1.498   8.711 -0.8600  0.2357  0.1290
  157SAPE  H18S17551  -0.640   1.442   8.878 -0.7062  0.7296  1.4866
  157SAPE  C21917552  -0.487   1.592   8.859  0.6178  0.3734  0.1124
  157SAPE  H19R17553  -0.505   1.674   8.932 -0.4070  0.8822 -0.6812
  157SAPE  H19S17554  -0.444   1.643   8.770  1.6626 -0.6588 -0.0041
  157SAPE  C22017555  -0.387   1.485   8.909 -0.8135  0.3460  0.2427
  157SAPE  H20R17556  -0.448   1.418   8.974  0.3133  0.1839  1.1622
  157SAPE  H20S17557  -0.306   1.538   8.962 -0.5513 -1.5734  1.8902
  157SAPE  H20T17558  -0.355   1.427   8.820 -1.7189 -0.4069  0.3841
  157SAPE   C3317559  -0.313   2.625  10.206  0.2607 -0.7453  0.6989
  157SAPE   H3X17560  -0.239   2.598  10.285  0.1855  0.4704  1.1985
  157SAPE   H3Y17561  -0.381   2.707  10.238  0.5311  0.4752 -1.6757
  157SAPE   C3417562  -0.231   2.681  10.086 -0.9774 -0.6179 -0.2814
  157SAPE   H4X17563  -0.176   2.603  10.028 -1.7921 -1.8033  0.4937
  157SAPE   H4Y17564  -0.153   2.756  10.110 -1.1444  0.3029 -2.3921
  157SAPE   C3517565  -0.323   2.754   9.991 -0.5046 -1.1594  0.4664
  157SAPE   H5X17566  -0.355   2.854  10.029  2.8692 -0.1014  0.7926
  157SAPE   H5Y17567  -0.406   2.681   9.975 -2.2415  1.2302 -2.4801
  157SAPE   C3617568  -0.243   2.762   9.854 -0.0271 -0.5952 -0.1789
  157SAPE   H6X17569  -0.214   2.657   9.834 -0.5252 -1.2759  2.2566
  157SAPE   H6Y17570  -0.160   2.836   9.861 -2.3609  2.1885 -0.0823
  157SAPE   C3717571  -0.323   2.812   9.731  0.5411  0.0326  0.2913
  157SAPE   H7X17572  -0.353   2.919   9.729  0.2180 -0.0214 -2.4849
  157SAPE   H7Y17573  -0.425   2.767   9.736  0.5795 -0.0123  0.7098
  157SAPE   C3817574  -0.257   2.782   9.592  0.2822 -0.2770 -0.0597
  157SAPE   H8X17575  -0.222   2.677   9.603 -2.0924 -1.3765 -2.0019
  157SAPE   H8Y17576  -0.173   2.854   9.581 -0.6949  0.7070 -1.3349
  157SAPE   C3917577  -0.365   2.791   9.477 -0.5063 -0.1614 -0.7709
  157SAPE   H9X17578  -0.307   2.794   9.382 -1.2357 -1.6035 -1.2990
  157SAPE   H9Y17579  -0.412   2.892   9.485  0.5947  0.2978  0.0768
  157SAPE  C31017580  -0.458   2.670   9.481 -0.6299 -0.4635 -0.2953
  157SAPE  H10X17581  -0.551   2.682   9.542 -0.2410 -1.4067  0.5137
  157SAPE  H10Y17582  -0.409   2.571   9.495 -2.4121 -1.2193  1.1064
  157SAPE  C31117583  -0.506   2.651   9.339 -0.2261  0.5336  0.9171
  157SAPE  H11X17584  -0.414   2.662   9.277  0.8433  0.2283  2.3990
  157SAPE  H11Y17585  -0.567   2.734   9.299  0.1403 -0.1380 -1.2048
  157SAPE  C31217586  -0.582   2.524   9.309  0.4771  0.1555 -0.0541
  157SAPE  H12X17587  -0.677   2.513   9.365 -0.8353 -0.7332 -2.3354
  157SAPE  H12Y17588  -0.521   2.435   9.335  4.0531  1.5119 -2.9485
  157SAPE  C31317589  -0.624   2.509   9.167 -0.1433 -0.5028  0.1936
  157SAPE  H13X17590  -0.684   2.418   9.148  1.2347 -1.1632 -1.2622
  157SAPE  H13Y17591  -0.532   2.516   9.105  2.7627  1.0123  4.1826
  157SAPE  C31417592  -0.704   2.620   9.116 -0.2468 -0.1640  0.9356
  157SAPE  H14X17593  -0.665   2.724   9.127  1.2062 -0.4359 -1.1933
  157SAPE  H14Y17594  -0.799   2.613   9.174 -1.6590  1.2876 -1.0874
  157SAPE  C31517595  -0.735   2.580   8.970 -0.4733  0.1488  0.2697
  157SAPE  H15X17596  -0.772   2.476   8.964 -1.2326  0.3937  0.6052
  157SAPE  H15Y17597  -0.639   2.568   8.914 -1.8850 -2.2419 -1.8626
  157SAPE  C31617598  -0.823   2.674   8.881  0.1338  0.0303  0.0969
  157SAPE  H16X17599  -0.822   2.631   8.779  1.3345  1.0906 -0.3703
  157SAPE  H16Y17600  -0.778   2.776   8.876 -0.1151  0.1085 -0.5717
  157SAPE  C31717601  -0.966   2.699   8.937  0.1143 -0.1127 -0.5768
  157SAPE  H17X17602  -1.019   2.762   8.863  0.2484  0.4608 -0.1887
  157SAPE  H17Y17603  -0.943   2.757   9.029 -0.8687 -0.7449  0.0927
  157SAPE  C31817604  -1.049   2.570   8.978 -0.7070  0.2532  0.0395
  157SAPE  H18X17605  -0.998   2.521   9.064 -1.3032 -0.9018 -0.2471
  157SAPE  H18Y17606  -1.052   2.515   8.881  0.4687 -0.0024  0.1362
  157SAPE  H18Z17607  -1.156   2.589   8.999 -1.9090 -1.5662 -3.5812
  158SAPE     N17608   6.137   0.646  10.808 -0.3201  0.1810 -0.2151
  158SAPE   HN117609   6.180   0.739  10.794 -0.7276  0.5667  0.9702
  158SAPE   HN217610   6.206   0.581  10.764 -0.9641  1.3434 -3.1903
  158SAPE   HN317611   6.050   0.628  10.753  0.1223 -0.4051 -0.7394
  158SAPE   C1217612   6.095   0.634  10.952 -0.1548 -0.8421 -0.1730
  158SAPE  H12A17613   6.177   0.674  11.015 -2.2171  0.1264  2.0605
  158SAPE  H12B17614   6.080   0.525  10.967 -1.0549 -0.9851 -1.8456
  158SAPE   C1117615   5.961   0.709  10.969  0.0435 -0.2966  0.3189
  158SAPE  H11A17616   5.969   0.819  10.953  0.9273 -0.5438 -1.1592
  158SAPE  H11B17617   5.936   0.693  11.076 -0.9478 -0.7479  0.0384
  158SAPE     P17618   5.726   0.723  10.869 -0.3454  0.4621 -0.3156
  158SAPE   O1317619   5.613   0.633  10.889  0.3718 -0.2789 -0.4338
  158SAPE   O1417620   5.709   0.852  10.942  0.1074 -0.6004 -0.0030
  158SAPE   O1217621   5.859   0.650  10.895 -0.3613  0.6407  0.3656
  158SAPE   O1117622   5.740   0.760  10.716 -0.1675 -0.0670 -0.1773
  158SAPE    C117623   5.822   0.865  10.661 -0.2519  0.4645 -0.1684
  158SAPE    HA17624   5.914   0.887  10.719 -0.4988 -1.7150  1.1168
  158SAPE    HB17625   5.872   0.831  10.567  1.1403  0.5675  0.5110
  158SAPE    C217626   5.749   0.993  10.631  0.2403 -0.0769  0.7738
  158SAPE    HS17627   5.709   1.033  10.727 -1.0845 -0.7880  0.5392
  158SAPE   O2117628   5.641   0.978  10.535  0.2895  0.5382  0.5122
  158SAPE   C2117629   5.525   0.955  10.582  0.6281  0.5255  0.4719
  158SAPE   O2217630   5.490   0.949  10.703  0.3184  0.2013  0.0324
  158SAPE   C2217631   5.435   0.904  10.464  0.2881  0.6467 -0.3875
  158SAPE   H2R17632   5.418   0.999  10.410 -3.3061  0.9548  0.9971
  158SAPE   H2S17633   5.458   0.816  10.400 -1.2617 -0.2419  0.2389
  158SAPE    C317634   5.842   1.094  10.562  0.1309 -0.7939 -0.1969
  158SAPE    HX17635   5.918   1.121  10.638  0.3213 -1.8426  0.0054
  158SAPE    HY17636   5.782   1.181  10.530  0.5011 -0.8311 -1.0064
  158SAPE   O3117637   5.904   1.028  10.441  0.1913  0.2768 -0.1220
  158SAPE   C3117638   5.970   1.116  10.367  0.2461  0.2198  0.6420
  158SAPE   O3217639   5.983   1.232  10.393  0.1906 -0.8431  0.5340
  158SAPE   C3217640   6.031   1.047  10.252 -0.0699  0.1512 -0.0200
  158SAPE   H2X17641   6.075   0.954  10.295 -2.1115 -1.0718 -0.4226
  158SAPE   H2Y17642   6.117   1.088  10.195 -0.4748 -0.5217 -1.1386
  158SAPE   C2317643   5.291   0.872  10.518  0.3158  0.2421 -0.2373
  158SAPE   H3R17644   5.260   0.948  10.593  0.8238  1.6448 -1.4002
  158SAPE   H3S17645   5.301   0.776  10.572 -0.8779  0.8006  1.0286
  158SAPE   C2417646   5.187   0.875  10.399  0.1280  0.4164 -0.0699
  158SAPE   H4R17647   5.182   0.972  10.346 -4.5861  1.2235  1.3484
  158SAPE   H4S17648   5.086   0.874  10.446  1.1179  0.5832  2.2368
  158SAPE   C2517649   5.196   0.757  10.308 -0.5331  0.6241  0.3577
  158SAPE   H5R17650   5.186   0.661  10.361  2.4586  0.4297  0.7045
  158SAPE   C2617651   5.229   0.754  10.177  0.3042  0.5982  0.4424
  158SAPE   H6R17652   5.227   0.656  10.127  2.4814 -1.7121  4.3999
  158SAPE   C2717653   5.267   0.882  10.101  0.2687  0.2817 -0.1948
  158SAPE   H7R17654   5.351   0.929  10.157 -1.9268  0.4606  3.2304
  158SAPE   H7S17655   5.187   0.959  10.105 -0.5866 -0.5998  0.0244
  158SAPE   C2817656   5.295   0.853   9.957  0.3235  0.6502 -0.2238
  158SAPE   H8R17657   5.263   0.760   9.908  1.3767 -0.4261  1.0594
  158SAPE   C2917658   5.396   0.918   9.892 -0.7653  0.5609 -0.4825
  158SAPE   H9R17659   5.402   0.906   9.783  1.5118  0.5082 -0.3813
  158SAPE  C21017660   5.480   1.032   9.951  0.5530  0.4718 -0.4432
  158SAPE  H10R17661   5.575   0.976   9.960 -0.5214 -1.6881 -1.7159
  158SAPE  H10S17662   5.447   1.075  10.048 -0.2759 -0.4733 -0.2850
  158SAPE  C21117663   5.491   1.155   9.862 -0.3769 -0.5039  0.7102
  158SAPE  H11R17664   5.579   1.172   9.798 -1.0018 -0.0506 -0.0427
  158SAPE  C21217665   5.392   1.250   9.853 -0.1566  0.8426 -0.0859
  158SAPE  H12R17666   5.409   1.335   9.786 -0.8335  1.0096 -0.0507
  158SAPE  C21317667   5.260   1.249   9.927  0.5725  0.1939  0.2564
  158SAPE  H13R17668   5.261   1.176  10.011  0.0521  1.2002  1.1680
  158SAPE  H13S17669   5.182   1.207   9.859 -0.0008 -0.3267  1.2199
  158SAPE  C21417670   5.237   1.381   9.986  0.5775 -0.0349 -0.2960
  158SAPE  H14R17671   5.328   1.443   9.981  1.3763 -0.7660  2.8472
  158SAPE  C21517672   5.119   1.438  10.030 -1.1543  0.7029  0.3704
  158SAPE  H15R17673   5.124   1.523  10.100  0.8176  1.1301 -0.2199
  158SAPE  C21617674   4.985   1.374  10.026 -0.1212  0.1583 -0.6520
  158SAPE  H16R17675   4.988   1.270   9.987  1.2954 -0.5788  1.2199
  158SAPE  H16S17676   4.924   1.438   9.959 -1.2103 -1.6132 -1.4465
  158SAPE  C21717677   4.917   1.378  10.162 -0.3448  0.2495 -0.0790
  158SAPE  H17R17678   4.896   1.472  10.218 -1.7941 -1.6119  2.7443
  158SAPE  H17S17679   4.979   1.314  10.228 -0.3354 -1.4849 -1.6990
  158SAPE  C21817680   4.777   1.308  10.150 -0.9280 -0.3316  0.1056
  158SAPE  H18R17681   4.769   1.256  10.053 -1.8483  0.1360 -0.0743
  158SAPE  H18S17682   4.695   1.383  10.156  0.6196  1.5718 -1.2825
  158SAPE  C21917683   4.737   1.210  10.257  0.3641  0.6169 -0.5019
  158SAPE  H19R17684   4.797   1.118  10.268 -0.9068 -0.1278  0.5265
  158SAPE  H19S17685   4.629   1.183  10.251  0.5783 -0.2734 -0.3738
  158SAPE  C22017686   4.735   1.272  10.397  0.4543 -0.2910  0.1278
  158SAPE  H20R17687   4.669   1.216  10.467  1.0733  0.7323  1.5675
  158SAPE  H20S17688   4.695   1.376  10.393 -0.8176 -0.7685 -0.2393
  158SAPE  H20T17689   4.836   1.293  10.438 -0.3967  2.6915  0.8854
  158SAPE   C3317690   5.935   1.005  10.145  0.9409  0.0755  0.6555
  158SAPE   H3X17691   5.905   1.099  10.093 -0.2928 -0.8326 -0.3525
  158SAPE   H3Y17692   5.841   0.955  10.175 -0.1387  1.0304 -0.9377
  158SAPE   C3417693   5.996   0.920  10.027  0.5892  0.3787 -0.2400
  158SAPE   H4X17694   6.012   0.823  10.079  1.1945  1.1038  0.9868
  158SAPE   H4Y17695   6.099   0.948   9.996  1.4887 -0.3148  1.9482
  158SAPE   C3517696   5.900   0.889   9.911  0.1184 -0.0407  0.0989
  158SAPE   H5X17697   5.796   0.924   9.927 -1.4593 -3.5149 -1.4765
  158SAPE   H5Y17698   5.897   0.778   9.904  0.3649 -0.0301 -0.1880
  158SAPE   C3617699   5.943   0.929   9.770  0.5567  0.2545 -0.2351
  158SAPE   H6X17700   6.038   0.884   9.735  1.0696 -0.5108  1.9359
  158SAPE   H6Y17701   5.972   1.036   9.773 -0.3099  0.4786  0.7486
  158SAPE   C3717702   5.828   0.925   9.662 -1.2308 -0.1176 -0.4788
  158SAPE   H7X17703   5.794   1.031   9.663  0.9331  0.6678 -2.3120
  158SAPE   H7Y17704   5.747   0.858   9.696 -0.4855 -0.2992  1.0178
  158SAPE   C3817705   5.871   0.885   9.522 -0.0442  0.3904  0.2978
  158SAPE   H8X17706   5.780   0.876   9.459 -0.5184  1.2698  0.8447
  158SAPE   H8Y17707   5.916   0.786   9.544 -0.6835  0.0623  0.1487
  158SAPE   C3917708   5.969   0.974   9.440 -0.0456  0.0180 -0.5547
  158SAPE   H9X17709   6.066   0.962   9.492  0.0198 -2.8507 -1.1696
  158SAPE   H9Y17710   5.941   1.079   9.466  1.4425  0.2915  0.0529
  158SAPE  C31017711   5.978   0.934   9.299 -0.1661 -0.0735 -0.4651
  158SAPE  H10X17712   5.873   0.931   9.264  0.2065  0.0267 -1.6243
  158SAPE  H10Y17713   6.007   0.829   9.276  1.6110  0.1411  0.6065
  158SAPE  C31117714   6.059   1.022   9.204 -0.4185 -0.0713 -0.2856
  158SAPE  H11X17715   6.155   1.059   9.247 -0.4068 -0.8205  0.3538
  158SAPE  H11Y17716   5.997   1.112   9.186 -0.6606  0.0161  0.9185
  158SAPE  C31217717   6.098   0.953   9.070 -0.1562  0.3086  0.3399
  158SAPE  H12X17718   6.012   0.911   9.014  0.4790 -1.2814  0.4984
  158SAPE  H12Y17719   6.164   0.865   9.086  1.5658  1.6293  0.7792
  158SAPE  C31317720   6.182   1.041   8.977 -0.1148  0.5884 -0.3167
  158SAPE  H13X17721   6.272   1.074   9.033  0.2762  0.3428 -0.7925
  158SAPE  H13Y17722   6.122   1.125   8.937  1.0652  1.6531  0.0842
  158SAPE  C31417723   6.237   0.965   8.859 -0.8048 -0.0615 -0.1739
  158SAPE  H14X17724   6.149   0.934   8.798 -2.1741  0.7296  1.3363
  158SAPE  H14Y17725   6.282   0.870   8.893 -0.9164 -0.2000 -0.4065
  158SAPE  C31517726   6.345   1.049   8.786 -0.0047  0.0091 -0.2641
  158SAPE  H15X17727   6.424   1.084   8.856  0.7335  1.1301 -1.6066
  158SAPE  H15Y17728   6.303   1.148   8.761 -0.7861 -0.1029  0.5622
  158SAPE  C31617729   6.404   0.989   8.656  0.1041  0.2789 -0.3665
  158SAPE  H16X17730   6.340   1.021   8.571 -0.6496  0.9834  0.4458
  158SAPE  H16Y17731   6.387   0.879   8.663 -0.8130  0.4313 -0.0535
  158SAPE  C31717732   6.546   1.024   8.619 -0.1155 -0.2607  0.1662
  158SAPE  H17X17733   6.611   0.986   8.701  1.0100  0.1716 -0.4980
  158SAPE  H17Y17734   6.565   1.132   8.605 -1.2095  0.0238  0.8079
  158SAPE  C31817735   6.599   0.957   8.489  0.9623 -0.1572 -0.7280
  158SAPE  H18X17736   6.603   0.846   8.501  0.8275 -0.0643  0.2507
  158SAPE  H18Y17737   6.696   0.999   8.455  1.3109 -1.9068 -2.0624
  158SAPE  H18Z17738   6.524   0.978   8.409 -1.7251  0.6914  1.8101
  159SAPE     N17739   6.280   2.159   6.568  0.0509  0.2649  0.1448
  159SAPE   HN117740   6.286   2.075   6.508 -0.1177 -0.4741  1.1296
  159SAPE   HN217741   6.181   2.192   6.564  0.4282  2.0260  2.8152
  159SAPE   HN317742   6.336   2.238   6.530  0.4823 -0.2529 -0.2992
  159SAPE   C1217743   6.318   2.126   6.709 -0.7986  0.1348 -0.6419
  159SAPE  H12A17744   6.228   2.069   6.741  0.0575 -0.3228  1.0673
  159SAPE  H12B17745   6.322   2.222   6.764  0.5190  0.3785 -1.1231
  159SAPE   C1117746   6.452   2.055   6.725 -0.2309 -0.2854  0.8406
  159SAPE  H11A17747   6.440   1.953   6.683 -0.0017 -0.0029  0.0582
  159SAPE  H11B17748   6.473   2.050   6.834 -1.5777 -1.7713  1.0767
  159SAPE     P17749   6.628   2.132   6.527  0.1759  0.0109  0.3121
  159SAPE   O1317750   6.525   2.128   6.421  0.3523  0.7990  0.3111
  159SAPE   O1417751   6.728   2.242   6.515  0.1697 -0.3380  0.3589
  159SAPE   O1217752   6.554   2.142   6.668  0.6844  0.2600  0.0285
  159SAPE   O1117753   6.711   2.001   6.530 -0.5818  0.6250  0.0125
  159SAPE    C117754   6.759   1.940   6.653 -0.6708 -0.6270  0.0066
  159SAPE    HA17755   6.674   1.901   6.714 -1.7157  1.3063 -0.1073
  159SAPE    HB17756   6.816   1.848   6.632 -2.3798 -2.6995  3.4494
  159SAPE    C217757   6.866   2.023   6.737  0.2743 -0.1503  0.3642
  159SAPE    HS17758   6.923   1.956   6.806 -1.9005 -2.3545  0.1615
  159SAPE   O2117759   6.810   2.131   6.812  0.4431 -0.3400  0.1980
  159SAPE   C2117760   6.751   2.083   6.915  0.2860  0.2581 -0.0618
  159SAPE   O2217761   6.746   1.964   6.944 -0.2814  0.2002 -0.6882
  159SAPE   C2217762   6.699   2.193   6.994  0.1862 -0.5442 -0.9918
  159SAPE   H2R17763   6.781   2.260   7.026 -0.4467 -0.7140  1.1424
  159SAPE   H2S17764   6.631   2.250   6.927  0.1727 -1.2979 -1.6334
  159SAPE    C317765   6.983   2.077   6.644  0.4570 -0.3571  0.5876
  159SAPE    HX17766   6.950   2.170   6.593 -0.4754 -1.9125 -1.8140
  159SAPE    HY17767   6.985   1.998   6.566 -1.6539 -1.4114  1.5226
  159SAPE   O3117768   7.112   2.099   6.716  0.2207 -0.3309  0.4791
  159SAPE   C3117769   7.115   2.216   6.773 -0.3396 -0.6369 -0.0859
  159SAPE   O3217770   7.035   2.309   6.765 -0.3602  0.7103 -0.0502
  159SAPE   C3217771   7.230   2.216   6.866 -0.2782  0.2418 -0.6203
  159SAPE   H2X17772   7.251   2.321   6.897  0.0505  0.3094 -1.0678
  159SAPE   H2Y17773   7.324   2.183   6.817  0.0170  1.1523 -0.6871
  159SAPE   C2317774   6.611   2.149   7.117 -0.1262 -1.1338  0.1244
  159SAPE   H3R17775   6.549   2.067   7.075  1.4072 -0.9557 -2.7573
  159SAPE   H3S17776   6.547   2.223   7.169  1.0223 -0.2607  0.3344
  159SAPE   C2417777   6.683   2.065   7.223  0.4609 -0.3241 -0.3673
  159SAPE   H4R17778   6.731   1.974   7.181 -1.4459 -0.7382 -1.8069
  159SAPE   H4S17779   6.600   2.030   7.288 -0.3604 -0.1501 -1.3006
  159SAPE   C2517780   6.788   2.153   7.295 -0.2455 -0.0503 -0.1548
  159SAPE   H5R17781   6.842   2.227   7.234  2.5026 -0.5584  1.5224
  159SAPE   C2617782   6.819   2.150   7.430  0.2731  1.0988  0.2768
  159SAPE   H6R17783   6.884   2.228   7.471  0.9220  1.5160 -1.4708
  159SAPE   C2717784   6.754   2.059   7.526 -0.3481  0.0222 -0.1272
  159SAPE   H7R17785   6.840   1.992   7.546  0.4465  1.1219  0.2121
  159SAPE   H7S17786   6.668   1.999   7.489  1.3794 -1.9977 -1.0670
  159SAPE   C2817787   6.705   2.141   7.644 -0.4137 -0.1413 -0.1676
  159SAPE   H8R17788   6.609   2.190   7.625  0.2450  0.5773 -1.8122
  159SAPE   C2917789   6.773   2.154   7.761  0.3772 -0.7291 -0.4514
  159SAPE   H9R17790   6.734   2.227   7.833 -0.2392 -1.2467 -0.2520
  159SAPE  C21017791   6.909   2.100   7.808 -0.1315 -0.5240 -0.3743
  159SAPE  H10R17792   6.975   2.112   7.719 -0.2237  2.4309 -0.1495
  159SAPE  H10S17793   6.902   1.999   7.852  1.8736  0.0635  1.5046
  159SAPE  C21117794   6.981   2.176   7.916  0.0087 -0.6643 -0.0484
  159SAPE  H11R17795   7.009   2.277   7.884 -4.4374  0.9787  0.5995
  159SAPE  C21217796   7.003   2.147   8.047  0.7620  0.6436  0.6656
  159SAPE  H12R17797   7.063   2.216   8.109  2.6976  0.9484 -1.4240
  159SAPE  C21317798   6.966   2.015   8.110 -0.4183  0.3828 -0.7770
  159SAPE  H13R17799   6.873   1.971   8.068 -0.7946  0.7620 -0.3481
  159SAPE  H13S17800   6.940   2.033   8.216  0.0395 -2.3793 -0.1158
  159SAPE  C21417801   7.077   1.913   8.114  0.1589  0.0375  0.4641
  159SAPE  H14R17802   7.153   1.911   8.034 -1.3922 -0.1135 -1.0534
  159SAPE  C21517803   7.078   1.808   8.201  0.2819  0.6523 -0.3823
  159SAPE  H15R17804   7.158   1.733   8.189  0.8458  0.6337  2.7986
  159SAPE  C21617805   6.971   1.770   8.300 -0.3039 -1.0190  0.3974
  159SAPE  H16R17806   6.961   1.660   8.295 -1.1842 -0.8942 -2.8700
  159SAPE  H16S17807   6.873   1.814   8.271 -0.0493 -0.5723  0.1944
  159SAPE  C21717808   7.011   1.815   8.441 -0.2944  0.4148  0.5403
  159SAPE  H17R17809   7.044   1.922   8.444 -0.0492  0.3226  1.4313
  159SAPE  H17S17810   7.098   1.754   8.475 -1.5317 -2.4464 -1.1357
  159SAPE  C21817811   6.901   1.790   8.543 -0.5943 -0.0212 -0.2614
  159SAPE  H18R17812   6.904   1.683   8.574  3.9552 -0.2687 -0.8528
  159SAPE  H18S17813   6.805   1.817   8.493 -0.5209 -1.2133 -1.0815
  159SAPE  C21917814   6.935   1.874   8.672 -0.3139  0.1443 -0.2694
  159SAPE  H19R17815   6.946   1.980   8.642 -1.1189  1.4405  3.4385
  159SAPE  H19S17816   7.029   1.826   8.708 -0.3559  0.7273  0.6538
  159SAPE  C22017817   6.815   1.881   8.769 -0.3492  0.6533 -0.2540
  159SAPE  H20R17818   6.786   1.785   8.817 -0.2894 -0.8948 -3.1079
  159SAPE  H20S17819   6.729   1.933   8.723 -0.9999 -0.9401 -0.9178
  159SAPE  H20T17820   6.843   1.939   8.860 -2.4531  0.8116  0.3363
  159SAPE   C3317821   7.206   2.130   6.989 -0.0283  0.1693 -0.5131
  159SAPE   H3X17822   7.304   2.113   7.038 -0.5471 -1.0285  0.1539
  159SAPE   H3Y17823   7.169   2.036   6.942 -0.7678  0.1089  0.1648
  159SAPE   C3417824   7.126   2.200   7.104 -0.3943 -0.6007  0.1593
  159SAPE   H4X17825   7.043   2.136   7.140  0.3973 -1.4937  0.4593
  159SAPE   H4Y17826   7.089   2.291   7.054 -0.4926 -0.4756  0.4599
  159SAPE   C3517827   7.211   2.256   7.219  0.6919 -0.2964  0.0841
  159SAPE   H5X17828   7.299   2.311   7.177 -1.2131  1.2097 -2.2515
  159SAPE   H5Y17829   7.242   2.173   7.285 -0.2943 -0.5707  0.2136
  159SAPE   C3617830   7.123   2.346   7.317  0.1835  0.3594 -0.8929
  159SAPE   H6X17831   7.023   2.302   7.335  0.8465  0.4387  4.7198
  159SAPE   H6Y17832   7.092   2.443   7.270  0.2149  0.1652 -1.3186
  159SAPE   C3717833   7.196   2.390   7.451  0.3777  0.1199  0.1518
  159SAPE   H7X17834   7.276   2.457   7.412  1.1563 -1.1027 -0.4177
  159SAPE   H7Y17835   7.245   2.305   7.502  0.1399 -0.3780 -0.4349
  159SAPE   C3817836   7.103   2.464   7.550 -0.1212  0.2816 -0.3574
  159SAPE   H8X17837   7.010   2.405   7.565  0.6419 -0.8005  0.3189
  159SAPE   H8Y17838   7.080   2.561   7.501  1.3777 -0.9423 -3.7887
  159SAPE   C3917839   7.172   2.505   7.690 -0.0587  0.0386 -0.2683
  159SAPE   H9X17840   7.217   2.410   7.724  1.3160  0.1375 -1.7066
  159SAPE   H9Y17841   7.099   2.550   7.761 -0.4724  1.5900 -1.6127
  159SAPE  C31017842   7.285   2.609   7.688 -0.1971 -0.4083  0.3534
  159SAPE  H10X17843   7.262   2.711   7.651  3.1652  1.1403  2.0905
  159SAPE  H10Y17844   7.368   2.559   7.634  0.3706  0.3984  0.4676
  159SAPE  C31117845   7.338   2.638   7.831  0.1304  0.8319 -0.2199
  159SAPE  H11X17846   7.440   2.678   7.814  0.4667  0.4486  0.8403
  159SAPE  H11Y17847   7.336   2.545   7.893 -0.1042  1.1318  0.2253
  159SAPE  C31217848   7.262   2.751   7.900  0.7819  0.6089  0.4028
  159SAPE  H12X17849   7.158   2.721   7.923  0.4966  0.1669 -1.3106
  159SAPE  H12Y17850   7.268   2.839   7.833  0.5362  1.0484  0.9496
  159SAPE  C31317851   7.337   2.796   8.028  0.2105 -0.4493 -0.2103
  159SAPE  H13X17852   7.293   2.894   8.058  0.7503 -0.0608 -0.6568
  159SAPE  H13Y17853   7.435   2.820   7.981 -0.7900  1.2053 -1.5880
  159SAPE  C31417854   7.344   2.695   8.143  0.4306 -0.1144 -0.7023
  159SAPE  H14X17855   7.410   2.607   8.127  0.2552 -0.2314 -0.7747
  159SAPE  H14Y17856   7.247   2.642   8.151  0.4140 -0.1550 -1.1259
  159SAPE  C31517857   7.374   2.774   8.272  0.4560 -0.0201 -0.1688
  159SAPE  H15X17858   7.451   2.851   8.253  0.0908  0.5507  0.5751
  159SAPE  H15Y17859   7.423   2.703   8.343 -1.8304 -0.1311  1.4283
  159SAPE  C31617860   7.246   2.826   8.337 -0.1194  0.2111 -0.0358
  159SAPE  H16X17861   7.188   2.734   8.358  0.8153 -0.5159 -0.5575
  159SAPE  H16Y17862   7.187   2.892   8.271  0.9709  0.8111 -0.4319
  159SAPE  C31717863   7.268   2.895   8.471  0.1514  0.5448 -0.6184
  159SAPE  H17X17864   7.337   2.978   8.447  1.5141 -0.5665 -0.7125
  159SAPE  H17Y17865   7.330   2.833   8.540 -0.6209  1.8436  1.3455
  159SAPE  C31817866   7.148   2.946   8.551  0.4007  0.3232  0.1833
  159SAPE  H18X17867   7.178   2.944   8.657 -1.1243  1.1141  0.6661
  159SAPE  H18Y17868   7.059   2.879   8.554 -0.1526  0.9716 -0.8224
  159SAPE  H18Z17869   7.115   3.044   8.509 -1.9647 -1.3287 -2.1348
  160SAPE     N17870   0.079   2.472   6.536  0.0427  0.0010 -0.0644
  160SAPE   HN117871   0.175   2.447   6.504  0.0408  1.9995 -1.8331
  160SAPE   HN217872   0.016   2.389   6.540 -1.2365  0.9510  0.3937
  160SAPE   HN317873   0.040   2.537   6.465  0.9472  1.2400  0.5547
  160SAPE   C1217874   0.046   2.529   6.668  0.4188 -0.1268  0.3386
  160SAPE  H12A17875   0.069   2.637   6.657  0.5804  0.0177  1.8273
  160SAPE  H12B17876   0.119   2.481   6.738 -0.7831 -1.9927  0.3817
  160SAPE   C1117877  -0.101   2.511   6.706 -0.0073  0.2623 -0.6491
  160SAPE  H11A17878  -0.130   2.596   6.770  0.0598 -0.5684  0.5231
  160SAPE  H11B17879  -0.111   2.415   6.761  1.6900  0.5347  0.1916
  160SAPE     P17880  -0.344   2.498   6.617  0.0264  0.0899  0.4227
  160SAPE   O1317881  -0.393   2.637   6.600  0.4851 -0.2592  0.3434
  160SAPE   O1417882  -0.403   2.403   6.521  0.3248  0.0781 -0.4569
  160SAPE   O1217883  -0.193   2.502   6.600 -0.7260 -0.7992  0.7485
  160SAPE   O1117884  -0.373   2.457   6.769 -0.0187  0.0644 -0.3987
  160SAPE    C117885  -0.426   2.555   6.856 -0.0615  0.1404  0.4249
  160SAPE    HA17886  -0.385   2.658   6.844 -2.3495  0.8387 -2.5163
  160SAPE    HB17887  -0.534   2.566   6.833 -0.0810 -3.1648 -1.6464
  160SAPE    C217888  -0.426   2.505   7.001 -0.7403  0.4459 -0.4400
  160SAPE    HS17889  -0.523   2.546   7.038 -1.7222 -1.6288 -0.5873
  160SAPE   O2117890  -0.308   2.551   7.071  0.3196 -0.3290 -0.4445
  160SAPE   C2117891  -0.329   2.592   7.188 -0.1582  0.1634 -0.2288
  160SAPE   O2217892  -0.430   2.590   7.254  1.2812  0.3353 -0.1677
  160SAPE   C2217893  -0.194   2.640   7.246 -0.5449  0.3599  0.2192
  160SAPE   H2R17894  -0.119   2.658   7.166  0.3029  0.6062  1.0487
  160SAPE   H2S17895  -0.217   2.734   7.300  0.4926 -0.2052  1.7149
  160SAPE    C317896  -0.448   2.352   7.022  0.4531 -0.1454  0.1143
  160SAPE    HX17897  -0.368   2.288   6.980 -0.2689 -1.4288  0.6455
  160SAPE    HY17898  -0.533   2.317   6.959  1.8597 -0.7692 -1.5196
  160SAPE   O3117899  -0.469   2.321   7.163 -0.0567  0.1071 -0.5234
  160SAPE   C3117900  -0.598   2.321   7.199 -0.2959  0.5994 -0.0753
  160SAPE   O3217901  -0.694   2.326   7.125 -0.7912 -0.4707 -0.0247
  160SAPE   C3217902  -0.606   2.319   7.356  0.6807  0.4834  0.2004
  160SAPE   H2X17903  -0.522   2.379   7.396  0.0780  1.6750 -0.2781
  160SAPE   H2Y17904  -0.592   2.212   7.384 -0.8531  0.1899 -0.0513
  160SAPE   C2317905  -0.145   2.531   7.341 -0.0154 -0.1522 -0.6628
  160SAPE   H3R17906  -0.120   2.443   7.278 -0.2855  0.2545 -1.3433
  160SAPE   H3S17907  -0.218   2.504   7.420  1.2209 -3.2459 -0.4163
  160SAPE   C2417908  -0.016   2.573   7.418  0.2569  0.0145 -0.0234
  160SAPE   H4R17909   0.053   2.604   7.337  2.0300  0.5623  1.5976
  160SAPE   H4S17910   0.030   2.481   7.460  1.5949  1.1827  1.2030
  160SAPE   C2517911  -0.036   2.681   7.526 -0.0683  0.4381  0.2761
  160SAPE   H5R17912  -0.020   2.787   7.502 -2.3283  0.6768 -0.3286
  160SAPE   C2617913  -0.060   2.650   7.660  0.7139  0.2069 -0.0061
  160SAPE   H6R17914  -0.063   2.727   7.739 -0.5815  0.2324 -0.0479
  160SAPE   C2717915  -0.087   2.512   7.719  0.2043  0.1906 -0.1947
  160SAPE   H7R17916   0.006   2.468   7.762 -0.2879  0.2907  1.0296
  160SAPE   H7S17917  -0.120   2.440   7.641  0.0494 -1.2764  1.1740
  160SAPE   C2817918  -0.189   2.519   7.832 -0.5279  0.7084 -0.2918
  160SAPE   H8R17919  -0.293   2.539   7.802 -1.5087  0.8598  2.8784
  160SAPE   C2917920  -0.163   2.508   7.965 -0.0530 -0.6757  0.2771
  160SAPE   H9R17921  -0.236   2.511   8.047 -0.0642 -0.5286  0.2602
  160SAPE  C21017922  -0.029   2.489   8.032 -0.3317  0.7092  0.6086
  160SAPE  H10R17923   0.007   2.394   7.988 -3.0654  0.5829 -1.6038
  160SAPE  H10S17924  -0.054   2.457   8.135  1.1921 -1.4894  0.3523
  160SAPE  C21117925   0.067   2.604   8.021 -0.2970 -0.0236  0.3558
  160SAPE  H11R17926   0.103   2.631   7.921 -0.2399 -0.1132  0.3514
  160SAPE  C21217927   0.120   2.680   8.125 -0.0870 -0.3425 -0.7199
  160SAPE  H12R17928   0.189   2.759   8.090  0.8080  0.2421  2.1569
  160SAPE  C21317929   0.089   2.669   8.274  0.1571  0.5137 -0.5784
  160SAPE  H13R17930   0.156   2.729   8.339 -1.2466  0.4502  0.9978
  160SAPE  H13S17931   0.114   2.565   8.301  0.9059  0.6371 -0.7827
  160SAPE  C21417932  -0.058   2.694   8.305 -0.5530  0.1043 -1.0025
  160SAPE  H14R17933  -0.128   2.613   8.277 -1.3922 -0.4004  2.1476
  160SAPE  C21517934  -0.106   2.802   8.367  0.5505 -0.0203  0.1121
  160SAPE  H15R17935  -0.213   2.820   8.384  0.6461  1.8031 -0.9809
  160SAPE  C21617936  -0.016   2.908   8.425 -0.4966  0.3655  0.2164
  160SAPE  H16R17937   0.050   2.943   8.342  0.4295  0.9240  1.1746
  160SAPE  H16S17938   0.049   2.866   8.503  0.4951 -0.2532 -0.9099
  160SAPE  C21717939  -0.101   3.033   8.463 -0.3630 -0.2502  0.5098
  160SAPE  H17R17940  -0.156   3.005   8.556  0.4844  0.9087  1.3946
  160SAPE  H17S17941  -0.179   3.054   8.388 -0.6808 -2.1733  0.2365
  160SAPE  C21817942  -0.009   3.154   8.478  0.1994 -0.7678 -0.1940
  160SAPE  H18R17943   0.034   3.168   8.376  0.8686 -0.5960  0.1070
  160SAPE  H18S17944   0.077   3.131   8.544  1.5629 -1.7036 -2.1740
  160SAPE  C21917945  -0.089   3.276   8.527  0.6338  0.6032  0.6252
  160SAPE  H19R17946  -0.142   3.253   8.622  0.5632 -0.0481  0.4321
  160SAPE  H19S17947  -0.162   3.314   8.451 -0.8874  0.9439  2.1917
  160SAPE  C22017948  -0.011   3.398   8.555  0.7241 -0.6607 -0.3395
  160SAPE  H20R17949   0.077   3.372   8.618  0.8732  1.0329  0.1995
  160SAPE  H20S17950  -0.066   3.482   8.603 -1.8698 -0.4966 -3.2956
  160SAPE  H20T17951   0.024   3.435   8.457 -1.0683  1.1503 -0.3649
  160SAPE   C3317952  -0.746   2.351   7.422  0.4970 -0.0578 -0.3207
  160SAPE   H3X17953  -0.746   2.293   7.516  0.8301 -1.4768 -1.1650
  160SAPE   H3Y17954  -0.830   2.319   7.356  0.3962 -3.5149  1.2870
  160SAPE   C3417955  -0.756   2.500   7.465 -0.3761 -0.5178 -0.2623
  160SAPE   H4X17956  -0.863   2.527   7.480 -0.2949 -0.8632  1.0726
  160SAPE   H4Y17957  -0.719   2.563   7.380  0.4617  0.3973  0.7411
  160SAPE   C3517958  -0.673   2.531   7.591 -0.2781 -0.7529 -0.7998
  160SAPE   H5X17959  -0.564   2.519   7.575 -0.4702 -0.2082 -2.7918
  160SAPE   H5Y17960  -0.699   2.471   7.681 -2.5470  3.4019  1.6245
  160SAPE   C3617961  -0.696   2.681   7.642 -0.5427 -0.4932  0.1732
  160SAPE   H6X17962  -0.796   2.685   7.689  0.3806 -0.9559  2.2996
  160SAPE   H6Y17963  -0.703   2.739   7.547  2.2838  0.7022  0.5821
  160SAPE   C3717964  -0.593   2.747   7.732 -0.0888  0.3163 -0.3920
  160SAPE   H7X17965  -0.617   2.854   7.749  1.3744  0.2956  2.4637
  160SAPE   H7Y17966  -0.489   2.735   7.694 -0.7923  0.7073 -2.5653
  160SAPE   C3817967  -0.611   2.666   7.865  0.1991 -0.0585  0.2132
  160SAPE   H8X17968  -0.598   2.558   7.845  1.6259 -0.2485  1.9022
  160SAPE   H8Y17969  -0.709   2.683   7.914  0.0190  3.4162 -1.0141
  160SAPE   C3917970  -0.511   2.708   7.977 -0.0213  0.2698  0.5484
  160SAPE   H9X17971  -0.413   2.681   7.932 -0.4492  1.6575 -1.3229
  160SAPE   H9Y17972  -0.535   2.647   8.066 -0.7748  1.0383  0.8908
  160SAPE  C31017973  -0.519   2.864   8.002  0.1636 -0.4027 -0.3905
  160SAPE  H10X17974  -0.621   2.907   8.009  0.7496  0.8255  1.7838
  160SAPE  H10Y17975  -0.481   2.904   7.906  2.8025 -3.3248 -0.7300
  160SAPE  C31117976  -0.442   2.917   8.120 -0.5342  0.0438 -0.3281
  160SAPE  H11X17977  -0.340   2.873   8.114 -0.2357  0.5899  0.5380
  160SAPE  H11Y17978  -0.485   2.884   8.218  0.9124  1.3045  0.7744
  160SAPE  C31217979  -0.430   3.075   8.104  0.4830 -0.3037  0.4479
  160SAPE  H12X17980  -0.384   3.096   8.005 -0.0671 -0.8549  0.0714
  160SAPE  H12Y17981  -0.357   3.106   8.182  0.0192  0.5708  0.5385
  160SAPE  C31317982  -0.565   3.154   8.126 -0.2052 -0.6141  0.0202
  160SAPE  H13X17983  -0.640   3.131   8.048  0.0489  1.4036 -0.8905
  160SAPE  H13Y17984  -0.549   3.263   8.110  0.8518 -0.4474  1.9688
  160SAPE  C31417985  -0.635   3.137   8.253  0.2967 -0.4424 -0.0725
  160SAPE  H14X17986  -0.677   3.035   8.269 -1.0415  0.0949 -0.0910
  160SAPE  H14Y17987  -0.724   3.203   8.264 -0.3185 -1.2809  0.0864
  160SAPE  C31517988  -0.548   3.174   8.376 -0.3665 -0.5538  0.3953
  160SAPE  H15X17989  -0.492   3.265   8.347 -1.9849  0.0799 -0.8992
  160SAPE  H15Y17990  -0.472   3.093   8.380  2.2788  1.5750 -2.2189
  160SAPE  C31617991  -0.626   3.187   8.511 -0.1429 -0.0360 -0.0506
  160SAPE  H16X17992  -0.683   3.092   8.511  1.3296 -0.9541 -0.8855
  160SAPE  H16Y17993  -0.681   3.283   8.505 -0.3806 -0.1315  0.5472
  160SAPE  C31717994  -0.537   3.180   8.639  0.1451  0.6060  0.4426
  160SAPE  H17X17995  -0.476   3.272   8.632 -0.4347  1.0563  1.2257
  160SAPE  H17Y17996  -0.470   3.092   8.634 -0.2686  0.1350  2.3385
  160SAPE  C31817997  -0.612   3.179   8.777  0.4202 -0.3760  0.1716
  160SAPE  H18X17998  -0.680   3.267   8.774 -1.8097 -1.8397  2.8384
  160SAPE  H18Y17999  -0.537   3.202   8.855 -0.1018  1.2216  0.2567
  160SAPE  H18Z18000  -0.663   3.081   8.790  0.9344 -0.6846 -0.1229
  161SAPE     N18001   0.881   0.344   6.471  0.4844 -0.6928  0.6152
  161SAPE   HN118002   0.871   0.240   6.468 -0.8864 -0.6259  1.7743
  161SAPE   HN218003   0.804   0.377   6.410  0.0720 -2.2929  0.2238
  161SAPE   HN318004   0.970   0.362   6.419  0.1604 -1.0635 -0.0869
  161SAPE   C1218005   0.893   0.389   6.610 -0.1944 -0.1397 -0.6460
  161SAPE  H12A18006   0.955   0.481   6.614 -0.6622  0.2870 -2.3887
  161SAPE  H12B18007   0.930   0.302   6.669 -0.8370  0.0607  0.0659
  161SAPE   C1118008   0.755   0.428   6.667 -0.5004  0.0769  0.2368
  161SAPE  H11A18009   0.756   0.426   6.778  0.2617 -5.1538  0.3718
  161SAPE  H11B18010   0.678   0.352   6.644  0.8514 -1.6599  1.2064
  161SAPE     P18011   0.589   0.630   6.658  0.2900 -0.1066  0.0491
  161SAPE   O1318012   0.560   0.741   6.568 -0.0705  0.1722 -0.4328
  161SAPE   O1418013   0.480   0.531   6.669 -0.0077  0.0834  0.1225
  161SAPE   O1218014   0.718   0.555   6.602 -0.0142 -0.4228  0.2423
  161SAPE   O1118015   0.626   0.674   6.801 -0.2725 -0.5724 -0.1319
  161SAPE    C118016   0.759   0.704   6.852  0.2576 -0.2575  1.1274
  161SAPE    HA18017   0.759   0.683   6.961 -0.9471  0.6462  1.3314
  161SAPE    HB18018   0.830   0.637   6.799 -0.7129 -1.1047  0.8741
  161SAPE    C218019   0.795   0.851   6.835  0.4592  0.3434 -0.3830
  161SAPE    HS18020   0.788   0.875   6.727 -0.4022  1.7250 -0.0462
  161SAPE   O2118021   0.928   0.870   6.878  0.0269  0.7410  0.3114
  161SAPE   C2118022   0.988   0.984   6.841  0.2243 -0.4857 -0.2036
  161SAPE   O2218023   0.933   1.076   6.778 -0.8037  0.4766 -0.1651
  161SAPE   C2218024   1.133   0.993   6.897  0.1152 -0.1121  0.0381
  161SAPE   H2R18025   1.152   1.100   6.919 -1.1037 -0.1379  1.4121
  161SAPE   H2S18026   1.122   0.951   6.999  0.3332 -1.5124 -0.4915
  161SAPE    C318027   0.691   0.931   6.909 -0.1032  0.2247 -0.2808
  161SAPE    HX18028   0.592   0.905   6.867 -0.4309  0.2332  0.4621
  161SAPE    HY18029   0.718   1.039   6.906 -1.3469  0.5928  0.6387
  161SAPE   O3118030   0.692   0.903   7.051 -0.7611 -0.2579  0.2338
  161SAPE   C3118031   0.581   0.887   7.111  0.3705  0.0628 -0.6938
  161SAPE   O3218032   0.470   0.888   7.060 -0.1291 -0.0350  0.2785
  161SAPE   C3218033   0.611   0.880   7.267  0.3557 -0.1794  0.0928
  161SAPE   H2X18034   0.516   0.904   7.319 -0.5090 -0.8168 -1.1591
  161SAPE   H2Y18035   0.679   0.967   7.277 -1.2179  0.8638  2.5703
  161SAPE   C2318036   1.260   0.946   6.824  0.6006 -0.3008 -0.3007
  161SAPE   H3R18037   1.272   1.003   6.729  0.5379 -1.9308 -1.3351
  161SAPE   H3S18038   1.257   0.839   6.795  1.5440  0.2833 -2.8821
  161SAPE   C2418039   1.394   0.960   6.899  0.2595  0.2323 -0.5304
  161SAPE   H4R18040   1.403   1.067   6.928  0.7170  0.0749 -0.0694
  161SAPE   H4S18041   1.477   0.935   6.829  1.1188 -1.0480  0.8892
  161SAPE   C2518042   1.420   0.864   7.016  0.2474 -0.3092 -0.1835
  161SAPE   H5R18043   1.464   0.769   6.981  2.0460 -0.2468  1.7004
  161SAPE   C2618044   1.405   0.877   7.150  0.0389 -0.2678 -0.3007
  161SAPE   H6R18045   1.427   0.789   7.212  0.1577  1.5714  2.4587
  161SAPE   C2718046   1.364   0.996   7.231 -0.0432  0.3699  0.4658
  161SAPE   H7R18047   1.376   1.092   7.176  1.7948 -1.0955 -1.9331
  161SAPE   H7S18048   1.434   1.004   7.317 -1.2804 -0.0369  1.5474
  161SAPE   C2818049   1.228   0.974   7.299 -0.4762 -0.3027 -0.0743
  161SAPE   H8R18050   1.136   1.003   7.245 -0.2036  0.0947 -0.3368
  161SAPE   C2918051   1.211   0.918   7.421  0.0741  0.7362 -0.4628
  161SAPE   H9R18052   1.106   0.897   7.448 -0.1428  2.0080 -0.2894
  161SAPE  C21018053   1.311   0.863   7.517 -0.0195 -0.9302  0.2220
  161SAPE  H10R18054   1.388   0.814   7.454 -0.7970  0.0305 -1.5284
  161SAPE  H10S18055   1.276   0.775   7.576 -0.8032 -0.7877 -0.0201
  161SAPE  C21118056   1.377   0.968   7.615  0.4424  0.0951  0.3853
  161SAPE  H11R18057   1.483   0.995   7.597  0.4309  1.8987  2.4902
  161SAPE  C21218058   1.311   1.030   7.714 -0.2733  0.5290 -1.0596
  161SAPE  H12R18059   1.366   1.105   7.772 -0.4717 -0.7221  0.8468
  161SAPE  C21318060   1.162   1.000   7.750 -0.9228 -0.0343 -0.0787
  161SAPE  H13R18061   1.123   0.932   7.671 -0.8281 -0.4374  0.2155
  161SAPE  H13S18062   1.100   1.092   7.742  1.1528  1.4411  0.0240
  161SAPE  C21418063   1.163   0.925   7.885 -0.1740 -0.2977 -0.6090
  161SAPE  H14R18064   1.246   0.854   7.896  0.3065  0.4610  0.9705
  161SAPE  C21518065   1.084   0.939   7.993  0.7633  0.1966  0.2960
  161SAPE  H15R18066   1.096   0.869   8.077  3.0996 -1.0126 -0.9097
  161SAPE  C21618067   0.962   1.030   7.994 -0.0410 -0.3337  0.1936
  161SAPE  H16R18068   0.978   1.115   7.924  0.5821 -1.7709 -1.4837
  161SAPE  H16S18069   0.940   1.074   8.093 -0.0742 -0.8246  0.4087
  161SAPE  C21718070   0.843   0.961   7.926  0.3192  1.1475 -0.6156
  161SAPE  H17R18071   0.831   0.865   7.980  0.4043  1.8375  0.6693
  161SAPE  H17S18072   0.879   0.943   7.823  2.1071  1.8027 -0.1339
  161SAPE  C21818073   0.718   1.046   7.927 -0.0832 -0.5247  0.6294
  161SAPE  H18R18074   0.752   1.152   7.922  1.3684 -1.0252 -1.0801
  161SAPE  H18S18075   0.659   1.029   8.020  0.6032 -2.9442  0.6874
  161SAPE  C21918076   0.620   1.020   7.813 -0.5231 -0.7763  0.5840
  161SAPE  H19R18077   0.599   0.911   7.813 -2.4216 -0.4704 -0.5509
  161SAPE  H19S18078   0.666   1.045   7.715 -0.3700 -0.4006  0.7478
  161SAPE  C22018079   0.493   1.104   7.828  0.1840  0.6900 -0.5291
  161SAPE  H20R18080   0.442   1.074   7.922  0.5706  0.1083 -0.5011
  161SAPE  H20S18081   0.418   1.087   7.747 -0.4464  0.1945  0.1494
  161SAPE  H20T18082   0.516   1.212   7.820  2.1593  0.4383  1.1060
  161SAPE   C3318083   0.672   0.753   7.335 -0.3826  0.1094 -0.5843
  161SAPE   H3X18084   0.752   0.728   7.262  0.4423  3.1018 -0.8296
  161SAPE   H3Y18085   0.604   0.665   7.343 -0.3722  0.2690  3.5147
  161SAPE   C3418086   0.725   0.784   7.473  0.3783  1.1177  0.3849
  161SAPE   H4X18087   0.633   0.804   7.533  1.6930  1.1812  2.4811
  161SAPE   H4Y18088   0.786   0.877   7.474  1.4509  0.4321  1.2304
  161SAPE   C3518089   0.803   0.674   7.528 -0.1483 -0.1485 -0.1229
  161SAPE   H5X18090   0.899   0.672   7.472  0.2918 -1.3294  0.6193
  161SAPE   H5Y18091   0.740   0.583   7.516 -0.9446  0.6400 -2.2369
  161SAPE   C3618092   0.815   0.673   7.683 -0.5066 -0.1707  0.0283
  161SAPE   H6X18093   0.713   0.695   7.722 -1.3209 -1.3842 -1.3024
  161SAPE   H6Y18094   0.884   0.753   7.714 -2.2973  1.3287  0.3400
  161SAPE   C3718095   0.869   0.543   7.750 -0.3095  0.0453  0.3149
  161SAPE   H7X18096   0.806   0.456   7.722  1.6459 -0.7679 -1.8795
  161SAPE   H7Y18097   0.869   0.558   7.860  1.5380 -0.2691  0.3895
  161SAPE   C3818098   1.005   0.513   7.709 -0.5872 -0.4097  0.2033
  161SAPE   H8X18099   1.066   0.605   7.722 -1.0358 -0.2861  1.5595
  161SAPE   H8Y18100   1.009   0.486   7.601  1.1490  0.9461 -0.1183
  161SAPE   C3918101   1.083   0.410   7.787 -0.1082 -0.5834  0.3341
  161SAPE   H9X18102   1.181   0.413   7.737 -0.0183 -1.2253  0.4691
  161SAPE   H9Y18103   1.034   0.311   7.775 -0.6928 -0.3886  1.0127
  161SAPE  C31018104   1.087   0.428   7.938  0.1738  0.7933 -0.1440
  161SAPE  H10X18105   1.094   0.538   7.950  3.7588  0.8117 -1.3572
  161SAPE  H10Y18106   1.184   0.382   7.968 -1.5667 -2.8389  0.5589
  161SAPE  C31118107   0.963   0.377   8.015  0.8695  0.2558  0.4441
  161SAPE  H11X18108   0.961   0.267   8.025  3.7583  0.2642  2.2837
  161SAPE  H11Y18109   0.865   0.393   7.966  1.0693 -0.5477 -0.2334
  161SAPE  C31218110   0.951   0.426   8.164  0.4793 -0.2413 -1.1671
  161SAPE  H12X18111   1.051   0.415   8.211  1.3409  0.8173 -2.6775
  161SAPE  H12Y18112   0.871   0.373   8.221  1.1542  1.0478  1.1063
  161SAPE  C31318113   0.922   0.581   8.166 -0.5014 -0.4093 -0.5015
  161SAPE  H13X18114   0.814   0.592   8.143 -0.3841 -0.0684 -0.8846
  161SAPE  H13Y18115   0.976   0.638   8.088 -1.9698 -0.4301 -1.5696
  161SAPE  C31418116   0.943   0.639   8.307 -0.1093  0.9136  0.1371
  161SAPE  H14X18117   1.049   0.634   8.339  1.0636  5.4882 -2.1278
  161SAPE  H14Y18118   0.879   0.595   8.386 -2.1643  2.7623 -0.4028
  161SAPE  C31518119   0.897   0.784   8.331 -0.0353  0.1187  0.5279
  161SAPE  H15X18120   0.787   0.784   8.344 -0.0653  1.2920  0.3847
  161SAPE  H15Y18121   0.913   0.844   8.239 -2.1188  0.4748  0.3388
  161SAPE  C31618122   0.971   0.854   8.442  0.7515 -0.1275  0.0443
  161SAPE  H16X18123   1.079   0.829   8.428  0.6915 -0.3250 -0.0795
  161SAPE  H16Y18124   0.946   0.815   8.543 -0.5089 -0.6178 -0.4356
  161SAPE  C31718125   0.949   1.006   8.450  0.2655  0.2490  0.3178
  161SAPE  H17X18126   0.844   1.033   8.477  0.6903  1.4186  0.8480
  161SAPE  H17Y18127   0.975   1.046   8.350 -3.5778  1.2542 -0.4375
  161SAPE  C31818128   1.025   1.069   8.567  0.5676 -0.1588  0.0268
  161SAPE  H18X18129   0.988   1.174   8.575 -0.6238 -0.6286  1.0291
  161SAPE  H18Y18130   1.128   1.099   8.541  0.4464  0.9520  0.7566
  161SAPE  H18Z18131   1.018   1.019   8.666 -0.3971  2.8870  1.6395
  162SAPE     N18132   5.308   3.327   6.138 -0.3115 -0.1787 -0.0517
  162SAPE   HN118133   5.229   3.284   6.087  0.8460 -1.1830 -1.0853
  162SAPE   HN218134   5.288   3.429   6.148 -1.7626 -0.5705  1.2813
  162SAPE   HN318135   5.391   3.320   6.075 -1.0699 -0.6700 -1.0189
  162SAPE   C1218136   5.348   3.255   6.259  0.0042 -0.3819  0.1512
  162SAPE  H12A18137   5.267   3.266   6.335 -0.1016 -0.1229 -0.0011
  162SAPE  H12B18138   5.437   3.309   6.297 -0.4284  0.8231 -0.5209
  162SAPE   C1118139   5.367   3.106   6.231  0.3909  0.3244  0.1655
  162SAPE  H11A18140   5.421   3.048   6.310 -0.9344 -0.5372  0.4596
  162SAPE  H11B18141   5.432   3.100   6.141  0.7987 -2.8324  0.5666
  162SAPE     P18142   5.142   2.975   6.287  0.0572 -0.0762 -0.0256
  162SAPE   O1318143   5.039   3.066   6.332  0.2305 -0.8316  0.5952
  162SAPE   O1418144   5.087   2.859   6.219  0.2732 -0.2911 -0.0333
  162SAPE   O1218145   5.241   3.048   6.194 -0.6253  0.3212 -0.1324
  162SAPE   O1118146   5.215   2.918   6.422  0.7600 -0.3477  0.1365
  162SAPE    C118147   5.186   2.962   6.552 -0.1411  0.3130 -0.1800
  162SAPE    HA18148   5.078   2.967   6.574 -0.2811 -1.1821 -0.4458
  162SAPE    HB18149   5.231   2.888   6.622 -0.1183  0.2614 -0.2494
  162SAPE    C218150   5.239   3.104   6.590  0.3893 -0.0473 -0.0285
  162SAPE    HS18151   5.205   3.174   6.510 -0.3213  1.0247  1.1660
  162SAPE   O2118152   5.378   3.092   6.604 -0.3267  0.1443 -0.4836
  162SAPE   C2118153   5.445   3.209   6.626  0.3030  0.0454 -0.6094
  162SAPE   O2218154   5.404   3.320   6.587 -0.2736  0.2359  0.3231
  162SAPE   C2218155   5.587   3.182   6.671 -0.0017 -0.6748  0.7080
  162SAPE   H2R18156   5.599   3.099   6.744 -2.0833 -0.5374  1.2921
  162SAPE   H2S18157   5.638   3.158   6.575  1.0254  2.0869  0.4730
  162SAPE    C318158   5.175   3.156   6.719  0.5111 -0.8909  0.0748
  162SAPE    HX18159   5.070   3.183   6.694  0.7420  3.8305  2.9623
  162SAPE    HY18160   5.222   3.254   6.741  1.5702 -1.1845 -0.7913
  162SAPE   O3118161   5.189   3.069   6.830  0.1607 -0.2528  0.2139
  162SAPE   C3118162   5.115   3.103   6.931  0.6267  0.3819 -1.0265
  162SAPE   O3218163   5.040   3.204   6.942 -0.6125 -0.1789  0.2084
  162SAPE   C3218164   5.142   3.003   7.043  0.0894 -0.1665  0.0543
  162SAPE   H2X18165   5.188   3.066   7.122  2.3197 -1.1040 -0.3992
  162SAPE   H2Y18166   5.219   2.933   7.004  1.3852  0.5761  1.2022
  162SAPE   C2318167   5.649   3.305   6.737 -0.3794 -0.1238 -0.3090
  162SAPE   H3R18168   5.629   3.395   6.674  0.8517  0.1204 -0.3903
  162SAPE   H3S18169   5.760   3.304   6.745 -0.3386  1.5562 -0.2607
  162SAPE   C2418170   5.620   3.320   6.888  1.1772 -0.8308  0.4919
  162SAPE   H4R18171   5.674   3.408   6.929  2.5232 -0.7976 -1.2722
  162SAPE   H4S18172   5.668   3.235   6.940  0.9977  0.2478  2.5338
  162SAPE   C2518173   5.478   3.346   6.939 -1.0725  0.6000  0.5502
  162SAPE   H5R18174   5.424   3.426   6.887  0.6415  0.6835 -1.2104
  162SAPE   C2618175   5.417   3.271   7.037 -0.7066 -0.2737 -0.4503
  162SAPE   H6R18176   5.311   3.290   7.062  0.3720 -0.0713  5.6068
  162SAPE   C2718177   5.473   3.162   7.128  0.2070  0.0601  0.8248
  162SAPE   H7R18178   5.557   3.111   7.078  1.2401 -0.0569  2.5980
  162SAPE   H7S18179   5.399   3.083   7.154 -0.4785  0.6669  0.7538
  162SAPE   C2818180   5.528   3.224   7.254 -0.3844 -0.0972 -0.3335
  162SAPE   H8R18181   5.601   3.304   7.234 -0.1808  0.0180  0.8232
  162SAPE   C2918182   5.502   3.208   7.384 -0.2619 -0.4118  0.0018
  162SAPE   H9R18183   5.561   3.272   7.452  0.3207 -0.5546 -0.3539
  162SAPE  C21018184   5.402   3.113   7.450  0.1610 -0.6073  0.0336
  162SAPE  H10R18185   5.362   3.045   7.371  0.2668  0.7517 -1.2376
  162SAPE  H10S18186   5.318   3.179   7.481 -0.2743 -1.2914  0.3393
  162SAPE  C21118187   5.453   3.033   7.564  0.1921  0.1196 -0.0872
  162SAPE  H11R18188   5.538   2.967   7.539 -0.7381 -0.4755 -1.7868
  162SAPE  C21218189   5.416   3.030   7.694  0.4418 -0.7670 -0.6086
  162SAPE  H12R18190   5.474   2.967   7.763 -0.2043 -0.1473  0.5320
  162SAPE  C21318191   5.314   3.109   7.762 -0.2414 -0.5864  0.0502
  162SAPE  H13R18192   5.248   3.160   7.689  0.7522 -0.7281 -0.9591
  162SAPE  H13S18193   5.364   3.178   7.834 -0.7541 -1.3427  1.1710
  162SAPE  C21418194   5.224   3.013   7.832 -0.2979  0.0826 -0.0347
  162SAPE  H14R18195   5.147   2.980   7.761 -0.8535  1.5755 -0.1602
  162SAPE  C21518196   5.221   2.978   7.962  0.2510 -0.7384  0.4428
  162SAPE  H15R18197   5.147   2.903   7.992 -0.8545  1.4810  3.8595
  162SAPE  C21618198   5.308   3.027   8.069 -0.7272  0.3285 -0.3395
  162SAPE  H16R18199   5.248   3.090   8.138 -1.2690 -1.0453  0.4857
  162SAPE  H16S18200   5.390   3.088   8.028  0.1930  1.2722  2.6917
  162SAPE  C21718201   5.390   2.916   8.142 -0.4645  0.1917  0.0881
  162SAPE  H17R18202   5.475   2.972   8.187  1.2591 -0.2064 -2.4702
  162SAPE  H17S18203   5.435   2.852   8.063  0.9113  1.8937 -0.5775
  162SAPE  C21818204   5.321   2.841   8.259  0.0942 -0.0805 -0.3966
  162SAPE  H18R18205   5.391   2.772   8.311 -2.3851 -1.2144  1.6798
  162SAPE  H18S18206   5.246   2.774   8.213 -1.5257  1.0839  0.4393
  162SAPE  C21918207   5.253   2.926   8.364  0.2756  0.0971  0.0617
  162SAPE  H19R18208   5.168   2.976   8.313  0.8530  1.0926  0.0459
  162SAPE  H19S18209   5.329   2.997   8.402  1.1434 -1.5362  1.5075
  162SAPE  C22018210   5.194   2.846   8.480  0.1521  0.0497 -0.5157
  162SAPE  H20R18211   5.122   2.770   8.443  0.5627 -0.4833 -0.2258
  162SAPE  H20S18212   5.131   2.914   8.541  1.4230  0.1601  0.7087
  162SAPE  H20T18213   5.271   2.809   8.550  0.6525  1.5955 -0.1925
  162SAPE   C3318214   5.015   2.922   7.072  0.0354 -0.1019 -0.9721
  162SAPE   H3X18215   4.978   2.876   6.978 -1.0240  1.1675 -1.1966
  162SAPE   H3Y18216   4.929   2.983   7.108  0.5894 -0.1298  0.4959
  162SAPE   C3418217   5.042   2.808   7.178 -0.0506 -0.4433  0.6013
  162SAPE   H4X18218   5.126   2.748   7.136 -0.2081  1.5608 -2.9976
  162SAPE   H4Y18219   4.956   2.737   7.176  0.6156 -1.2682 -1.3254
  162SAPE   C3518220   5.059   2.851   7.324 -0.2226 -0.0438 -0.3934
  162SAPE   H5X18221   4.977   2.916   7.362 -0.5569  0.3168 -1.6726
  162SAPE   H5Y18222   5.147   2.919   7.324 -0.9844  1.5162 -6.0226
  162SAPE   C3618223   5.076   2.722   7.411 -0.5177 -0.4260  0.0441
  162SAPE   H6X18224   5.164   2.667   7.371  1.4159  1.6942  1.1354
  162SAPE   H6Y18225   4.989   2.654   7.396 -0.6748  0.1478 -2.0421
  162SAPE   C3718226   5.103   2.745   7.564  0.2703  0.0984  0.6729
  162SAPE   H7X18227   5.017   2.805   7.601  0.3948 -0.8434  2.6278
  162SAPE   H7Y18228   5.195   2.807   7.566 -0.5168  1.2841  1.5199
  162SAPE   C3818229   5.125   2.619   7.646  0.1822  0.5499 -0.7506
  162SAPE   H8X18230   5.193   2.559   7.581  0.1341 -1.0426  0.5913
  162SAPE   H8Y18231   5.032   2.559   7.647 -1.1332  2.4756  0.8171
  162SAPE   C3918232   5.193   2.637   7.780  0.7229  0.5752 -0.2411
  162SAPE   H9X18233   5.125   2.686   7.854  1.7758 -1.1056  1.9347
  162SAPE   H9Y18234   5.280   2.706   7.775  0.6239  0.9977  2.3130
  162SAPE  C31018235   5.246   2.509   7.841  0.3166  0.2269 -0.3677
  162SAPE  H10X18236   5.346   2.500   7.793  1.5858  0.6382  2.0153
  162SAPE  H10Y18237   5.181   2.423   7.814  0.9339 -1.1447  2.1544
  162SAPE  C31118238   5.266   2.497   7.993  0.3269 -1.0433  0.3486
  162SAPE  H11X18239   5.168   2.479   8.041  0.4888 -1.8820  0.3816
  162SAPE  H11Y18240   5.294   2.598   8.031 -1.1643  0.2043 -1.6888
  162SAPE  C31218241   5.353   2.389   8.040 -0.1596  0.6539  0.2380
  162SAPE  H12X18242   5.460   2.407   8.018 -0.6583  2.5369 -0.9013
  162SAPE  H12Y18243   5.308   2.304   7.985  1.1095  0.6481 -0.8516
  162SAPE  C31318244   5.342   2.367   8.194  0.2300 -0.1449 -0.6647
  162SAPE  H13X18245   5.368   2.261   8.215  2.0740  0.4751  0.4179
  162SAPE  H13Y18246   5.243   2.392   8.239  1.1852 -2.4561  3.2026
  162SAPE  C31418247   5.448   2.443   8.269  0.0272  0.0837 -0.2034
  162SAPE  H14X18248   5.439   2.550   8.244  0.1757  0.2481  0.4153
  162SAPE  H14Y18249   5.549   2.417   8.230 -0.2768 -1.0567 -0.2657
  162SAPE  C31518250   5.453   2.434   8.428 -0.6009  0.4472  0.4333
  162SAPE  H15X18251   5.483   2.331   8.459 -1.1597  0.1210 -0.0856
  162SAPE  H15Y18252   5.355   2.460   8.472  0.0280  1.7309  1.1046
  162SAPE  C31618253   5.548   2.534   8.491  0.2727 -0.0253  0.7245
  162SAPE  H16X18254   5.519   2.638   8.462  3.6075  0.7211 -0.3347
  162SAPE  H16Y18255   5.654   2.533   8.458  0.3133  1.8958  0.6537
  162SAPE  C31718256   5.544   2.534   8.645  0.1236 -0.8344  0.1699
  162SAPE  H17X18257   5.639   2.578   8.682  0.2619 -0.7915 -0.2349
  162SAPE  H17Y18258   5.536   2.427   8.674  4.3324 -0.0584  6.0757
  162SAPE  C31818259   5.431   2.621   8.710 -0.7425  0.5940  0.6177
  162SAPE  H18X18260   5.443   2.727   8.680  1.3764  0.8854  2.2409
  162SAPE  H18Y18261   5.451   2.613   8.819  0.6432 -0.9199  0.3016
  162SAPE  H18Z18262   5.330   2.578   8.693 -0.6668  0.4125  0.6278
  163SAPE     N18263   4.945   2.661   6.314  0.1215  0.2652 -0.5553
  163SAPE   HN118264   4.998   2.736   6.266 -0.7845  1.0333 -0.3726
  163SAPE   HN218265   4.862   2.630   6.258 -0.3964  0.0499  0.3036
  163SAPE   HN318266   4.903   2.696   6.402  0.2233 -1.2603  0.1386
  163SAPE   C1218267   5.023   2.543   6.351 -0.1690 -0.8875 -0.1488
  163SAPE  H12A18268   5.084   2.505   6.267  0.0173 -1.4285  0.2228
  163SAPE  H12B18269   4.949   2.465   6.380 -0.4084 -0.7061 -0.2720
  163SAPE   C1118270   5.128   2.571   6.466  0.0309  0.1131  0.3559
  163SAPE  H11A18271   5.073   2.584   6.562  1.3146  0.5895  1.0503
  163SAPE  H11B18272   5.162   2.676   6.452  0.8583 -0.1901  0.0145
  163SAPE     P18273   5.379   2.506   6.416 -0.4212  0.2713  0.5367
  163SAPE   O1318274   5.433   2.373   6.367 -0.4580 -0.3626  0.1350
  163SAPE   O1418275   5.379   2.617   6.318  0.2128  0.0149  0.0438
  163SAPE   O1218276   5.230   2.475   6.470 -0.0287  0.8784 -0.3340
  163SAPE   O1118277   5.467   2.548   6.540 -0.4895  0.6891 -0.6926
  163SAPE    C118278   5.480   2.464   6.653  0.2156  0.0656 -0.4432
  163SAPE    HA18279   5.451   2.358   6.637  3.0110 -1.0637  1.1803
  163SAPE    HB18280   5.587   2.462   6.682  0.0146 -1.5074  0.2558
  163SAPE    C218281   5.399   2.511   6.779  0.0630 -0.5576  0.2154
  163SAPE    HS18282   5.309   2.554   6.729  1.5652  1.6132 -0.7786
  163SAPE   O2118283   5.490   2.603   6.838  0.2352  0.2110 -0.0293
  163SAPE   C2118284   5.426   2.682   6.918  0.1230 -0.3530 -0.2063
  163SAPE   O2218285   5.306   2.696   6.933 -0.0458 -0.0787  0.3859
  163SAPE   C2218286   5.526   2.755   7.010  0.0007 -0.1374  0.0263
  163SAPE   H2R18287   5.602   2.678   7.035 -0.3700 -1.0949 -1.6556
  163SAPE   H2S18288   5.572   2.840   6.955 -1.9469  0.4039 -0.8704
  163SAPE    C318289   5.369   2.391   6.880  1.0670 -0.2972  0.1296
  163SAPE    HX18290   5.457   2.376   6.946 -0.0846 -0.4253  1.7055
  163SAPE    HY18291   5.349   2.299   6.821  3.6108  0.7602 -2.6559
  163SAPE   O3118292   5.250   2.430   6.967 -0.0588 -0.1015  0.1534
  163SAPE   C3118293   5.237   2.340   7.059  0.1198  0.8588  0.3769
  163SAPE   O3218294   5.298   2.236   7.061 -0.2216  1.0264 -0.3707
  163SAPE   C3218295   5.133   2.392   7.159  0.5047 -0.5711  0.0196
  163SAPE   H2X18296   5.034   2.405   7.111  0.6783 -1.5128 -0.6222
  163SAPE   H2Y18297   5.167   2.495   7.180 -2.6063  1.1258 -2.4940
  163SAPE   C2318298   5.467   2.795   7.159 -0.4031  0.4239  0.1624
  163SAPE   H3R18299   5.371   2.850   7.149 -0.2192  0.3908 -2.5330
  163SAPE   H3S18300   5.544   2.853   7.214 -1.4620  1.0151  1.0577
  163SAPE   C2418301   5.454   2.665   7.253  0.0485 -1.2797  0.7025
  163SAPE   H4R18302   5.377   2.598   7.208 -0.0554 -0.2693 -0.7020
  163SAPE   H4S18303   5.412   2.706   7.347 -0.7074  0.7405 -0.4574
  163SAPE   C2518304   5.577   2.584   7.270  0.1100  0.2814 -0.5082
  163SAPE   H5R18305   5.598   2.538   7.172 -1.3699  1.8757 -1.6358
  163SAPE   C2618306   5.634   2.546   7.393  0.1910 -0.9600 -0.6082
  163SAPE   H6R18307   5.713   2.469   7.390  0.9365 -0.2244 -0.4538
  163SAPE   C2718308   5.574   2.592   7.522  0.9726  0.0555 -0.2121
  163SAPE   H7R18309   5.591   2.504   7.587 -1.3728 -0.5177 -0.3058
  163SAPE   H7S18310   5.464   2.602   7.519  0.9694  0.0377 -0.1449
  163SAPE   C2818311   5.641   2.716   7.577  0.2256 -0.0267 -0.2693
  163SAPE   H8R18312   5.649   2.791   7.497 -0.5003  0.0686 -0.2599
  163SAPE   C2918313   5.664   2.746   7.707 -0.1558 -0.4086 -1.0933
  163SAPE   H9R18314   5.716   2.841   7.727  0.0033 -0.6755 -0.1812
  163SAPE  C21018315   5.628   2.658   7.826 -0.9243 -1.2051  0.4599
  163SAPE  H10R18316   5.540   2.596   7.798 -1.6265  0.0949 -0.3215
  163SAPE  H10S18317   5.617   2.727   7.913  0.0151 -0.3665 -0.0554
  163SAPE  C21118318   5.741   2.564   7.855 -1.1096  0.8680  0.1367
  163SAPE  H11R18319   5.782   2.510   7.768 -0.8257  2.7251 -0.9585
  163SAPE  C21218320   5.803   2.537   7.970 -0.6311 -0.0720 -0.2718
  163SAPE  H12R18321   5.889   2.469   7.971  0.4651  1.2361 -1.4909
  163SAPE  C21318322   5.771   2.603   8.102 -0.4751  0.1227 -0.6605
  163SAPE  H13R18323   5.765   2.522   8.178 -1.6960  0.3546 -0.4783
  163SAPE  H13S18324   5.664   2.633   8.100 -1.6163 -3.3032 -4.8333
  163SAPE  C21418325   5.863   2.716   8.149 -0.3623  0.1850  0.8382
  163SAPE  H14R18326   5.960   2.729   8.098  0.3739 -1.3166  1.7640
  163SAPE  C21518327   5.839   2.814   8.240 -0.5696  0.6573 -0.7662
  163SAPE  H15R18328   5.915   2.890   8.263  0.5258 -0.6611  0.1902
  163SAPE  C21618329   5.701   2.837   8.299  0.1165  0.1743 -0.0440
  163SAPE  H16R18330   5.629   2.760   8.264  0.8996  0.5704 -2.8222
  163SAPE  H16S18331   5.671   2.941   8.271 -0.7928 -0.2940 -0.9079
  163SAPE  C21718332   5.707   2.845   8.456 -0.2402 -0.3351 -0.1626
  163SAPE  H17R18333   5.737   2.745   8.492 -0.5016 -0.3076  0.1407
  163SAPE  H17S18334   5.601   2.861   8.485 -1.3663 -0.7496 -3.6328
  163SAPE  C21818335   5.792   2.961   8.514 -0.0875  0.1504 -0.6239
  163SAPE  H18R18336   5.898   2.933   8.495  0.3192  1.3766 -0.2137
  163SAPE  H18S18337   5.779   2.963   8.625  2.1797 -0.4110 -0.2964
  163SAPE  C21918338   5.774   3.106   8.458  0.8784  0.2515  0.3790
  163SAPE  H19R18339   5.804   3.104   8.351 -0.2150  0.8370  0.0457
  163SAPE  H19S18340   5.838   3.176   8.516  2.0823 -1.6858  1.4978
  163SAPE  C22018341   5.627   3.146   8.475 -0.7446  0.3067 -0.0096
  163SAPE  H20R18342   5.584   3.104   8.569  1.6273 -0.9886  0.5834
  163SAPE  H20S18343   5.574   3.104   8.387  1.0443 -2.3876  0.0829
  163SAPE  H20T18344   5.615   3.256   8.482  2.0059  0.7822 -1.3939
  163SAPE   C3318345   5.126   2.316   7.296  0.2910 -0.1542  0.1699
  163SAPE   H3X18346   5.100   2.209   7.283  0.9826 -0.3343  0.2146
  163SAPE   H3Y18347   5.045   2.357   7.360  0.9386  0.0179  0.8846
  163SAPE   C3418348   5.260   2.339   7.374 -0.1766  0.0207  0.6134
  163SAPE   H4X18349   5.295   2.443   7.389 -0.4441  0.0153  1.3068
  163SAPE   H4Y18350   5.344   2.282   7.330 -1.4544 -0.7536 -0.9391
  163SAPE   C3518351   5.257   2.287   7.518  0.0586  0.3814  0.2433
  163SAPE   H5X18352   5.175   2.342   7.567  0.8070  0.4595  1.4423
  163SAPE   H5Y18353   5.348   2.320   7.572  1.5661 -1.0292 -1.2838
  163SAPE   C3618354   5.230   2.141   7.532 -0.3671  0.4817  0.1372
  163SAPE   H6X18355   5.306   2.087   7.472 -0.3928  0.2878  0.2753
  163SAPE   H6Y18356   5.143   2.101   7.475 -1.1868  1.0076  0.9899
  163SAPE   C3718357   5.219   2.092   7.679  0.4866  0.4274  0.0446
  163SAPE   H7X18358   5.301   2.138   7.739 -0.6183  1.5158  0.7809
  163SAPE   H7Y18359   5.218   1.981   7.677 -0.1296  0.4000  1.0048
  163SAPE   C3818360   5.081   2.113   7.745 -0.2309  0.0620  0.4167
  163SAPE   H8X18361   5.006   2.064   7.680 -0.2667 -0.5698  0.9258
  163SAPE   H8Y18362   5.063   2.222   7.754 -2.0867 -0.2519  0.9129
  163SAPE   C3918363   5.085   2.052   7.882  0.1045  0.7968  0.2047
  163SAPE   H9X18364   5.186   2.038   7.926  0.2894  0.1165 -0.4198
  163SAPE   H9Y18365   5.037   1.953   7.868 -1.0725  1.5419 -1.4770
  163SAPE  C31018366   5.008   2.134   7.986 -0.3473  0.3822 -0.9606
  163SAPE  H10X18367   4.903   2.151   7.955 -0.3142  1.8777 -0.3197
  163SAPE  H10Y18368   5.058   2.233   7.997 -1.4140  1.2428 -3.1542
  163SAPE  C31118369   5.020   2.058   8.121 -0.1539  0.7166  0.6259
  163SAPE  H11X18370   5.127   2.026   8.126  0.3924  1.3526 -3.3225
  163SAPE  H11Y18371   4.953   1.969   8.123  0.6153 -0.0465 -2.4415
  163SAPE  C31218372   4.980   2.149   8.244  0.1919 -0.0461 -0.0947
  163SAPE  H12X18373   4.871   2.167   8.254  0.3562 -0.0726  2.3966
  163SAPE  H12Y18374   5.032   2.248   8.240  2.6471 -1.2794 -0.7624
  163SAPE  C31318375   5.007   2.078   8.380  0.7183 -0.8159 -0.1083
  163SAPE  H13X18376   5.012   1.968   8.366  1.1554 -1.0804  1.8343
  163SAPE  H13Y18377   4.923   2.084   8.454 -0.1384  1.6730 -1.1682
  163SAPE  C31418378   5.138   2.132   8.442 -0.2374  0.4445 -0.1484
  163SAPE  H14X18379   5.152   2.238   8.412 -1.7554 -0.5067 -4.9969
  163SAPE  H14Y18380   5.226   2.081   8.397  0.9527  1.6775  0.7055
  163SAPE  C31518381   5.150   2.131   8.594  0.3566  0.1883  0.0922
  163SAPE  H15X18382   5.103   2.039   8.633 -3.1651  2.1927  1.0121
  163SAPE  H15Y18383   5.086   2.211   8.637  2.9620  1.8873  1.1058
  163SAPE  C31618384   5.298   2.138   8.642 -0.4982 -0.1671  0.5314
  163SAPE  H16X18385   5.324   2.243   8.615  0.1253 -0.4417  0.0548
  163SAPE  H16Y18386   5.372   2.081   8.582  0.5268 -0.0320  1.6154
  163SAPE  C31718387   5.332   2.103   8.785 -0.2480  0.6314 -0.3782
  163SAPE  H17X18388   5.441   2.108   8.807 -0.3948  1.2597  0.2440
  163SAPE  H17Y18389   5.309   1.996   8.802 -0.0648  0.5168 -0.8429
  163SAPE  C31818390   5.268   2.192   8.892 -0.8150  0.5728 -0.0924
  163SAPE  H18X18391   5.291   2.159   8.995 -0.3202 -0.6826 -0.5836
  163SAPE  H18Y18392   5.159   2.195   8.869 -0.6413  1.7887 -0.8534
  163SAPE  H18Z18393   5.311   2.293   8.877 -1.0412  0.9066  1.3729
  164SAPE     N18394   6.123   3.315   6.146  0.4967 -0.0757  0.3142
  164SAPE   HN118395   6.071   3.244   6.090 -0.5983  0.2034  0.9578
  164SAPE   HN218396   6.137   3.282   6.243  1.6134 -0.6073 -0.0015
  164SAPE   HN318397   6.068   3.403   6.149 -2.0219 -1.4886 -0.7128
  164SAPE   C1218398   6.261   3.351   6.087  0.1228  0.0293 -0.0927
  164SAPE  H12A18399   6.233   3.397   5.990  1.8030  2.2213  0.3770
  164SAPE  H12B18400   6.334   3.269   6.072  0.7040  0.2609  1.2336
  164SAPE   C1118401   6.319   3.466   6.168  0.3441  0.3991  0.0898
  164SAPE  H11A18402   6.368   3.421   6.257 -0.0170  0.3114  0.2476
  164SAPE  H11B18403   6.242   3.539   6.201 -0.9533 -1.2931  0.9960
  164SAPE     P18404   6.529   3.619   6.129  0.6985 -0.0900 -0.3259
  164SAPE   O1318405   6.599   3.558   6.246  0.0795  0.5721  0.6870
  164SAPE   O1418406   6.605   3.656   6.008 -0.1546 -0.6292 -0.1520
  164SAPE   O1218407   6.420   3.520   6.074 -0.1743  0.0502  0.4685
  164SAPE   O1118408   6.438   3.743   6.175  0.4209  0.3552 -0.6084
  164SAPE    C118409   6.490   3.878   6.166 -0.4017 -0.3601 -0.2014
  164SAPE    HA18410   6.506   3.899   6.058  3.3503 -0.5653  0.1565
  164SAPE    HB18411   6.415   3.952   6.201  0.6664 -0.4925  2.6871
  164SAPE    C218412   6.619   3.899   6.257 -0.3075 -0.5613 -0.4757
  164SAPE    HS18413   6.693   3.818   6.241  3.3861  2.6741 -1.0637
  164SAPE   O2118414   6.568   3.893   6.393 -0.3764 -0.9179  0.2010
  164SAPE   C2118415   6.655   3.873   6.482  0.0058  0.0269  0.4991
  164SAPE   O2218416   6.776   3.857   6.459 -0.1521  0.4608  0.3915
  164SAPE   C2218417   6.593   3.866   6.625 -0.3329  0.1797 -0.5314
  164SAPE   H2R18418   6.548   3.765   6.617 -1.3053  0.5962 -0.4656
  164SAPE   H2S18419   6.676   3.856   6.697 -0.6023  1.8726  0.0602
  164SAPE    C318420   6.685   4.039   6.236  0.8295 -0.5477 -0.1278
  164SAPE    HX18421   6.720   4.048   6.131  2.0288  0.7494  0.3523
  164SAPE    HY18422   6.774   4.047   6.301  2.6538 -2.2983 -2.2343
  164SAPE   O3118423   6.584   4.146   6.240  0.0917  0.5072  0.1791
  164SAPE   C3118424   6.598   4.232   6.341  0.0888 -0.5172  0.6653
  164SAPE   O3218425   6.692   4.233   6.414  0.1851  0.3163 -0.6909
  164SAPE   C3218426   6.480   4.326   6.336 -0.2738  0.5365  0.3045
  164SAPE   H2X18427   6.463   4.376   6.238 -2.2456  0.2557  0.4559
  164SAPE   H2Y18428   6.496   4.402   6.416  0.9418  0.5210  0.1039
  164SAPE   C2318429   6.498   3.987   6.651 -0.9795  0.2405  0.0730
  164SAPE   H3R18430   6.407   3.973   6.588 -0.7449 -2.3619  0.1832
  164SAPE   H3S18431   6.557   4.079   6.630 -0.8417  0.0126 -0.5613
  164SAPE   C2418432   6.445   3.981   6.795 -0.0222  0.4048 -0.0136
  164SAPE   H4R18433   6.530   3.963   6.865  0.0851  1.3392  0.1144
  164SAPE   H4S18434   6.370   3.901   6.806 -1.8410  1.8987 -1.0053
  164SAPE   C2518435   6.384   4.104   6.846 -0.6279  0.1062  0.2575
  164SAPE   H5R18436   6.399   4.195   6.786 -0.1691  0.5576  1.0369
  164SAPE   C2618437   6.315   4.113   6.955  0.0325  0.2652 -0.0722
  164SAPE   H6R18438   6.246   4.197   6.967 -1.0964 -0.5270 -0.8041
  164SAPE   C2718439   6.282   3.999   7.050 -0.6385  0.4637 -0.4113
  164SAPE   H7R18440   6.296   3.899   7.003 -0.0064 -0.9365  2.5123
  164SAPE   H7S18441   6.173   3.992   7.071 -0.6119 -2.9309 -0.7717
  164SAPE   C2818442   6.359   3.995   7.181  0.5315  0.0318  0.3222
  164SAPE   H8R18443   6.455   3.942   7.170  0.2701 -0.2567 -0.6263
  164SAPE   C2918444   6.322   4.052   7.299 -0.4682  0.2589  0.1049
  164SAPE   H9R18445   6.382   4.051   7.391 -2.1544  3.9928  1.4527
  164SAPE  C21018446   6.191   4.126   7.318 -0.5679 -0.0589  0.2141
  164SAPE  H10R18447   6.121   4.066   7.379  0.5237 -3.4594 -1.5721
  164SAPE  H10S18448   6.135   4.151   7.225 -0.3135  0.7783  0.2772
  164SAPE  C21118449   6.227   4.255   7.391 -0.4691 -0.3230  0.1436
  164SAPE  H11R18450   6.269   4.333   7.325 -0.5782 -0.0866  0.3528
  164SAPE  C21218451   6.216   4.274   7.520  0.7863 -0.7613  0.3341
  164SAPE  H12R18452   6.239   4.378   7.550 -1.7088  0.2343 -0.9046
  164SAPE  C21318453   6.163   4.185   7.627 -0.2620  0.1355  0.0211
  164SAPE  H13R18454   6.155   4.081   7.588 -2.0714 -0.4800  1.8701
  164SAPE  H13S18455   6.056   4.210   7.644  0.1858  0.1500  3.3716
  164SAPE  C21418456   6.242   4.188   7.752 -0.1995 -0.2997 -0.1640
  164SAPE  H14R18457   6.349   4.171   7.735  0.3510 -0.6042  2.9526
  164SAPE  C21518458   6.197   4.195   7.883 -0.8624 -0.5085  1.5806
  164SAPE  H15R18459   6.278   4.202   7.957  1.2840 -0.6638 -0.6000
  164SAPE  C21618460   6.059   4.219   7.922  0.0617 -0.3853 -0.1249
  164SAPE  H16R18461   5.983   4.163   7.864 -2.1027  0.2612  1.9013
  164SAPE  H16S18462   6.037   4.326   7.900  0.4746 -0.4857 -1.0568
  164SAPE  C21718463   6.026   4.206   8.073 -0.0893 -0.0445  0.0291
  164SAPE  H17R18464   6.068   4.108   8.105  1.3288  0.0579 -1.4191
  164SAPE  H17S18465   5.915   4.197   8.080 -0.4184  1.0181 -2.7307
  164SAPE  C21818466   6.070   4.312   8.169 -0.5080 -0.2508  0.2838
  164SAPE  H18R18467   6.002   4.398   8.150  0.8625  0.5035 -1.3804
  164SAPE  H18S18468   6.173   4.348   8.152  0.2398 -2.5034 -0.2477
  164SAPE  C21918469   6.050   4.268   8.315 -0.7587  0.1039  0.7048
  164SAPE  H19R18470   6.053   4.363   8.372 -0.0023  0.4877  0.0474
  164SAPE  H19S18471   6.137   4.212   8.358 -2.0451 -1.4498  1.3830
  164SAPE  C22018472   5.928   4.195   8.358 -0.2385  0.5445  0.2391
  164SAPE  H20R18473   5.947   4.086   8.342 -1.5475  0.3289  0.0422
  164SAPE  H20S18474   5.842   4.225   8.295 -0.5608 -1.5583 -0.3951
  164SAPE  H20T18475   5.908   4.207   8.467 -0.3687  3.3699 -0.0329
  164SAPE   C3318476   6.348   4.261   6.378  0.0148 -0.4817 -0.7931
  164SAPE   H3X18477   6.380   4.210   6.472  2.7808 -0.0427 -1.3999
  164SAPE   H3Y18478   6.315   4.192   6.297  0.9400 -1.2592 -0.5243
  164SAPE   C3418479   6.227   4.363   6.400 -0.3006 -0.0114  0.0760
  164SAPE   H4X18480   6.206   4.396   6.297  2.4390 -1.9788 -1.2432
  164SAPE   H4Y18481   6.260   4.444   6.468  1.0751  0.1684 -0.7832
  164SAPE   C3518482   6.101   4.272   6.448  0.0846 -0.3606  0.2716
  164SAPE   H5X18483   6.116   4.172   6.403 -0.3750  0.4690 -1.8456
  164SAPE   H5Y18484   6.005   4.307   6.406 -0.4749 -0.7192  1.2124
  164SAPE   C3618485   6.097   4.260   6.599 -0.4415  0.9963 -0.4108
  164SAPE   H6X18486   6.117   4.352   6.658 -0.2591  1.0140 -0.4981
  164SAPE   H6Y18487   6.183   4.195   6.626 -0.8311  1.2729  1.6888
  164SAPE   C3718488   5.974   4.190   6.665 -0.1137 -0.3868  0.9094
  164SAPE   H7X18489   5.947   4.091   6.621  0.7946 -0.0526 -0.4760
  164SAPE   H7Y18490   5.878   4.245   6.672  0.6419  0.8210  2.4367
  164SAPE   C3818491   5.998   4.170   6.818  0.4571 -0.5975 -0.4390
  164SAPE   H8X18492   6.035   4.263   6.867 -0.0251 -1.2949  1.3090
  164SAPE   H8Y18493   6.068   4.085   6.832 -0.4915 -1.3027  0.1146
  164SAPE   C3918494   5.865   4.121   6.896 -1.1622 -0.8614  0.8614
  164SAPE   H9X18495   5.820   4.029   6.852  0.6131 -1.2061 -0.3304
  164SAPE   H9Y18496   5.787   4.199   6.885 -0.1420 -0.1278 -2.0048
  164SAPE  C31018497   5.898   4.107   7.045  0.1162  0.0639 -0.1422
  164SAPE  H10X18498   5.953   4.196   7.081 -0.6699  0.1259  0.9287
  164SAPE  H10Y18499   5.968   4.021   7.057 -0.1080 -0.0913  0.0581
  164SAPE  C31118500   5.768   4.101   7.133 -0.0226  0.5571  0.1217
  164SAPE  H11X18501   5.698   4.017   7.113 -2.2947  2.1906  0.7353
  164SAPE  H11Y18502   5.712   4.193   7.105 -1.5673 -0.3014  0.2949
  164SAPE  C31218503   5.804   4.100   7.287  0.5642  0.1957  0.7218
  164SAPE  H12X18504   5.709   4.105   7.344 -0.6743  4.0049 -1.3344
  164SAPE  H12Y18505   5.863   4.191   7.310  1.2059  0.1522 -0.6237
  164SAPE  C31318506   5.873   3.967   7.330  0.3139 -0.0258  0.3368
  164SAPE  H13X18507   5.966   3.958   7.270  1.0901 -2.1461  1.7416
  164SAPE  H13Y18508   5.809   3.880   7.305 -0.1017  0.6242 -0.8933
  164SAPE  C31418509   5.885   3.976   7.482  0.3321  0.4295 -0.1716
  164SAPE  H14X18510   5.931   4.071   7.517  0.1241  0.8771 -1.0785
  164SAPE  H14Y18511   5.965   3.901   7.503 -1.3289 -2.6379 -3.6904
  164SAPE  C31518512   5.761   3.940   7.565 -0.3564  0.3531  0.2090
  164SAPE  H15X18513   5.747   3.832   7.546  2.0292  0.2850 -1.7416
  164SAPE  H15Y18514   5.683   4.000   7.512  1.5061  1.2120 -1.7479
  164SAPE  C31618515   5.780   3.956   7.713 -0.6866  0.1549  0.2332
  164SAPE  H16X18516   5.798   4.064   7.732 -0.4248 -0.0156  0.9765
  164SAPE  H16Y18517   5.878   3.907   7.735 -0.8274 -0.3032 -0.1449
  164SAPE  C31718518   5.675   3.912   7.812  0.4089  0.2286 -0.2937
  164SAPE  H17X18519   5.674   3.802   7.825 -2.0826  0.1689 -0.5132
  164SAPE  H17Y18520   5.580   3.948   7.767  0.8355  0.0940 -1.3326
  164SAPE  C31818521   5.702   3.954   7.963  0.2146 -0.2886 -0.3172
  164SAPE  H18X18522   5.800   3.907   7.987 -0.4428 -0.9829  1.1097
  164SAPE  H18Y18523   5.628   3.911   8.034 -0.2597  1.9580  0.6326
  164SAPE  H18Z18524   5.705   4.065   7.966 -1.2297 -0.2532  0.8253
  165SAPE     N18525   1.903   1.081   6.125  0.1463 -0.5886 -0.5421
  165SAPE   HN118526   2.001   1.068   6.158  0.2892  2.3214  0.3915
  165SAPE   HN218527   1.898   1.139   6.039  0.4922 -0.7701 -0.6866
  165SAPE   HN318528   1.874   1.144   6.202  1.1585  1.3175 -1.6453
  165SAPE   C1218529   1.823   0.957   6.129  1.0294 -0.6305  0.4844
  165SAPE  H12A18530   1.889   0.870   6.107 -0.7694 -1.9424 -0.0106
  165SAPE  H12B18531   1.744   0.966   6.051  0.4866 -0.3297  1.0547
  165SAPE   C1118532   1.754   0.952   6.271  0.5583  0.3481 -0.7746
  165SAPE  H11A18533   1.827   0.975   6.352  1.0864 -1.2117 -0.7862
  165SAPE  H11B18534   1.727   0.845   6.282  2.6413 -0.5419 -3.1867
  165SAPE     P18535   1.533   1.054   6.380  0.0558  0.2593  0.4664
  165SAPE   O1318536   1.451   1.178   6.362  0.6698 -0.3853  0.0524
  165SAPE   O1418537   1.457   0.926   6.384 -0.0141 -0.3660  0.0715
  165SAPE   O1218538   1.646   1.046   6.266 -0.1514 -0.3726 -0.0507
  165SAPE   O1118539   1.611   1.060   6.517  0.2573  0.1134  0.4336
  165SAPE    C118540   1.688   1.177   6.541  0.0657 -0.0901  0.0330
  165SAPE    HA18541   1.793   1.148   6.561  0.8631  2.3068 -0.3643
  165SAPE    HB18542   1.679   1.252   6.460 -3.8057  0.0882  0.4476
  165SAPE    C218543   1.638   1.252   6.671 -0.4460 -0.1291 -0.0301
  165SAPE    HS18544   1.669   1.359   6.671  0.8123 -0.4186  2.3292
  165SAPE   O2118545   1.672   1.182   6.790  0.1374 -0.9889  0.0557
  165SAPE   C2118546   1.799   1.178   6.820  0.4082  0.6146  0.1420
  165SAPE   O2218547   1.884   1.239   6.761 -0.5472  0.5101 -0.0448
  165SAPE   C2218548   1.821   1.086   6.943  0.6786  0.7269  0.3751
  165SAPE   H2R18549   1.723   1.045   6.976  0.0020 -0.4962 -2.8646
  165SAPE   H2S18550   1.888   1.005   6.909  1.8303  1.4346  0.9021
  165SAPE    C318551   1.480   1.270   6.674 -0.7324 -0.2087  0.0082
  165SAPE    HX18552   1.438   1.168   6.684  0.0966 -0.8665 -2.4557
  165SAPE    HY18553   1.457   1.313   6.574  1.2663 -1.4494 -1.0453
  165SAPE   O3118554   1.440   1.346   6.789 -0.0324  0.4953  0.4413
  165SAPE   C3118555   1.311   1.335   6.815 -0.5912 -0.2318 -0.2074
  165SAPE   O3218556   1.226   1.281   6.745 -0.6171 -0.6408 -0.1489
  165SAPE   C3218557   1.276   1.412   6.944 -0.0080  0.2558 -0.2829
  165SAPE   H2X18558   1.348   1.496   6.954 -0.4703  0.6078  0.1428
  165SAPE   H2Y18559   1.295   1.345   7.030 -0.7803 -0.2752 -0.5125
  165SAPE   C2318560   1.890   1.168   7.059 -0.0412  0.5435  0.0828
  165SAPE   H3R18561   1.925   1.265   7.018  1.4710 -0.1837 -0.4411
  165SAPE   H3S18562   1.977   1.106   7.089 -1.1576 -0.7528  0.7285
  165SAPE   C2418563   1.815   1.197   7.193 -0.3600  0.5041 -0.2383
  165SAPE   H4R18564   1.903   1.242   7.244  1.0040 -1.1282 -1.0585
  165SAPE   H4S18565   1.809   1.106   7.257 -0.0864  0.0690 -0.8234
  165SAPE   C2518566   1.696   1.282   7.189  0.0005 -0.8869 -0.2711
  165SAPE   H5R18567   1.687   1.357   7.109  0.4185  1.0952  1.4460
  165SAPE   C2618568   1.608   1.291   7.296  0.1586  0.1830  0.9700
  165SAPE   H6R18569   1.517   1.354   7.294 -0.0830 -0.1716 -0.8524
  165SAPE   C2718570   1.623   1.215   7.427 -0.0346  0.1676  0.8261
  165SAPE   H7R18571   1.668   1.114   7.418 -2.7127 -1.0835  0.1980
  165SAPE   H7S18572   1.522   1.199   7.472 -0.0847  1.8587  1.3822
  165SAPE   C2818573   1.701   1.282   7.533  0.4125  0.2323 -0.1494
  165SAPE   H8R18574   1.810   1.282   7.520  0.3825  0.3368 -0.4078
  165SAPE   C2918575   1.655   1.329   7.652  0.3930 -0.0537  0.6585
  165SAPE   H9R18576   1.718   1.385   7.723  0.1937 -1.8994  2.3910
  165SAPE  C21018577   1.513   1.324   7.705  0.6538 -0.1749 -0.1232
  165SAPE  H10R18578   1.522   1.264   7.798  0.6410 -1.1079 -0.7056
  165SAPE  H10S18579   1.451   1.269   7.631  0.7148 -0.2292 -0.1337
  165SAPE  C21118580   1.470   1.464   7.738  0.2870  0.0814  0.1588
  165SAPE  H11R18581   1.444   1.516   7.644 -1.2177 -0.0044  0.4988
  165SAPE  C21218582   1.427   1.502   7.859  0.7926  0.0895  0.0396
  165SAPE  H12R18583   1.401   1.607   7.877 -0.0352 -0.0192 -0.4528
  165SAPE  C21318584   1.432   1.416   7.986  0.7217 -0.0977  0.1847
  165SAPE  H13R18585   1.439   1.476   8.079  0.8524  1.2094 -0.6486
  165SAPE  H13S18586   1.531   1.367   7.972  0.8452  0.5933 -1.5249
  165SAPE  C21418587   1.312   1.320   8.001 -0.0165  0.6186 -0.2075
  165SAPE  H14R18588   1.309   1.231   7.937 -2.3891  1.0183 -0.7631
  165SAPE  C21518589   1.207   1.347   8.083 -0.2201 -0.0989  0.1451
  165SAPE  H15R18590   1.130   1.270   8.100 -1.4829  1.0297 -0.2707
  165SAPE  C21618591   1.185   1.471   8.175  0.7794  0.3478  1.1051
  165SAPE  H16R18592   1.143   1.549   8.108  2.2100 -0.5843 -0.9852
  165SAPE  H16S18593   1.284   1.507   8.211  0.9826  1.7770 -0.7400
  165SAPE  C21718594   1.080   1.451   8.291 -0.0214 -0.0132  0.2226
  165SAPE  H17R18595   1.088   1.531   8.367 -1.0213  0.5920 -0.2932
  165SAPE  H17S18596   1.107   1.356   8.343  1.6081 -0.5373 -1.4537
  165SAPE  C21818597   0.934   1.449   8.245 -0.2840 -0.1344  0.5680
  165SAPE  H18R18598   0.928   1.376   8.160  0.5597  0.4249  0.0128
  165SAPE  H18S18599   0.907   1.545   8.196 -0.4428 -0.9310 -0.9774
  165SAPE  C21918600   0.827   1.410   8.348  0.1600  0.3221 -0.5474
  165SAPE  H19R18601   0.807   1.491   8.422 -0.1018 -1.7104  1.7574
  165SAPE  H19S18602   0.869   1.326   8.408 -3.9371 -1.8414 -0.2820
  165SAPE  C22018603   0.695   1.370   8.281  0.5778 -0.0421 -0.4023
  165SAPE  H20R18604   0.625   1.342   8.363 -0.5019  0.2507 -1.2034
  165SAPE  H20S18605   0.710   1.274   8.226 -2.0668  0.0284 -1.3703
  165SAPE  H20T18606   0.646   1.447   8.218 -1.1186  0.6016  1.6107
  165SAPE   C3318607   1.134   1.462   6.954 -0.2219 -0.1488 -0.5259
  165SAPE   H3X18608   1.063   1.379   6.973 -2.0853  1.9770  2.6040
  165SAPE   H3Y18609   1.098   1.512   6.862 -2.5813  2.6029  1.7292
  165SAPE   C3418610   1.112   1.565   7.066  0.0158  0.1699 -0.1208
  165SAPE   H4X18611   1.003   1.578   7.086  0.2215  1.0132  0.5372
  165SAPE   H4Y18612   1.151   1.666   7.040  0.7561 -0.1438 -0.2563
  165SAPE   C3518613   1.163   1.522   7.208  0.4416  0.5379  0.4701
  165SAPE   H5X18614   1.129   1.606   7.272 -0.2666  2.7565 -2.5830
  165SAPE   H5Y18615   1.272   1.507   7.215  0.1424 -1.1757  2.7687
  165SAPE   C3618616   1.093   1.389   7.259  0.3230 -0.0799  0.4723
  165SAPE   H6X18617   1.111   1.317   7.176 -0.0504  1.1984 -0.7628
  165SAPE   H6Y18618   0.986   1.415   7.272  0.1029  0.2799 -1.6566
  165SAPE   C3718619   1.161   1.330   7.378  0.7175 -0.2846  0.0334
  165SAPE   H7X18620   1.268   1.321   7.349  0.6829  1.6182 -0.8126
  165SAPE   H7Y18621   1.122   1.226   7.385  1.8826 -0.9020 -1.7805
  165SAPE   C3818622   1.135   1.408   7.506 -0.4410  0.0397 -0.3971
  165SAPE   H8X18623   1.190   1.504   7.498  1.2620 -0.6329  2.1060
  165SAPE   H8Y18624   1.185   1.359   7.592  0.5254  0.0984 -0.9127
  165SAPE   C3918625   0.991   1.424   7.542 -0.3040  0.0705 -1.2642
  165SAPE   H9X18626   0.932   1.331   7.525 -0.6830  0.4447 -2.0649
  165SAPE   H9Y18627   0.954   1.509   7.481  0.6275  1.0916 -0.4371
  165SAPE  C31018628   0.966   1.483   7.684  0.0419 -0.1612  0.2759
  165SAPE  H10X18629   1.006   1.587   7.691 -1.4962  0.5686 -1.0088
  165SAPE  H10Y18630   1.005   1.420   7.767  0.0573 -0.9823 -0.3417
  165SAPE  C31118631   0.816   1.494   7.707  0.1196 -0.2372  0.4939
  165SAPE  H11X18632   0.778   1.390   7.707  0.6835 -0.4489 -0.1220
  165SAPE  H11Y18633   0.773   1.551   7.621 -0.8464 -0.5366  0.7639
  165SAPE  C31218634   0.776   1.563   7.842  0.5222  0.1268  0.4154
  165SAPE  H12X18635   0.840   1.652   7.859  0.6091 -0.0460  1.0529
  165SAPE  H12Y18636   0.794   1.501   7.933  1.1805  1.6633  1.3716
  165SAPE  C31318637   0.625   1.607   7.850 -0.0261 -0.1463  0.6630
  165SAPE  H13X18638   0.593   1.643   7.750  0.6911  0.2507  0.5673
  165SAPE  H13Y18639   0.613   1.686   7.927  0.4769 -0.7214  1.3342
  165SAPE  C31418640   0.533   1.492   7.890 -0.5147  0.8399 -0.7129
  165SAPE  H14X18641   0.587   1.429   7.964 -0.2581 -0.1355 -1.7015
  165SAPE  H14Y18642   0.511   1.429   7.801 -1.7999 -0.8784  0.7551
  165SAPE  C31518643   0.397   1.531   7.947 -0.5961  0.2672  0.4897
  165SAPE  H15X18644   0.333   1.548   7.857  0.5117  0.7307 -0.2337
  165SAPE  H15Y18645   0.390   1.630   7.997 -0.2314 -0.9093  3.0052
  165SAPE  C31618646   0.338   1.412   8.024  0.2470  0.0708  0.8795
  165SAPE  H16X18647   0.388   1.411   8.123  1.0602  1.4020  0.5117
  165SAPE  H16Y18648   0.358   1.318   7.968 -0.0793  0.4130  0.1752
  165SAPE  C31718649   0.193   1.419   8.050  0.2743 -0.5261  0.0030
  165SAPE  H17X18650   0.155   1.471   7.959  0.9916  0.1464  0.0892
  165SAPE  H17Y18651   0.167   1.479   8.139  0.9372 -1.1544  0.6389
  165SAPE  C31818652   0.120   1.282   8.053 -0.2641  0.4480 -0.0661
  165SAPE  H18X18653   0.129   1.245   8.157  0.4329  3.1084  0.9173
  165SAPE  H18Y18654   0.171   1.215   7.981  1.4658  0.6626  0.9021
  165SAPE  H18Z18655   0.016   1.303   8.020  0.0583  1.4721 -0.4771
  166SAPE     N18656   0.241   3.539   5.738  0.0726  0.6407 -0.2545
  166SAPE   HN118657   0.279   3.631   5.768  0.4236 -0.5280  3.5120
  166SAPE   HN218658   0.219   3.535   5.637 -1.0323 -0.0791 -0.0102
  166SAPE   HN318659   0.156   3.511   5.792  1.3180 -1.9448  0.5031
  166SAPE   C1218660   0.341   3.432   5.766 -0.1570  0.0342 -0.4185
  166SAPE  H12A18661   0.439   3.463   5.723 -0.0200 -1.9123 -1.6580
  166SAPE  H12B18662   0.303   3.339   5.718 -0.6405 -1.2484  2.2515
  166SAPE   C1118663   0.370   3.417   5.914  0.0473  0.5107 -0.0465
  166SAPE  H11A18664   0.436   3.330   5.935 -0.3259  0.1604 -0.3107
  166SAPE  H11B18665   0.280   3.381   5.967 -0.0751  3.1212  1.6928
  166SAPE     P18666   0.577   3.579   5.972  0.3123 -0.3467 -0.4587
  166SAPE   O1318667   0.660   3.496   5.879 -0.3917 -0.1084  0.2776
  166SAPE   O1418668   0.580   3.724   5.940 -0.3062  0.1039 -0.6515
  166SAPE   O1218669   0.424   3.531   5.975  0.4516 -0.2430  0.8164
  166SAPE   O1118670   0.624   3.552   6.125  0.2017  0.1885  0.7282
  166SAPE    C118671   0.579   3.428   6.196  0.1668  0.5651  0.7196
  166SAPE    HA18672   0.468   3.418   6.203 -0.2288 -1.0071 -4.0544
  166SAPE    HB18673   0.610   3.343   6.131  0.8916  0.2698  1.4387
  166SAPE    C218674   0.654   3.419   6.334 -0.3440  0.1761 -0.2134
  166SAPE    HS18675   0.631   3.321   6.381  1.0126 -0.0765 -0.0340
  166SAPE   O2118676   0.628   3.527   6.425 -0.2420  0.0238 -0.4118
  166SAPE   C2118677   0.504   3.542   6.462 -0.2724  0.6154 -0.1602
  166SAPE   O2218678   0.410   3.474   6.420 -0.4028  0.2654  0.6112
  166SAPE   C2218679   0.493   3.657   6.553 -0.3026  0.1057 -1.1776
  166SAPE   H2R18680   0.530   3.641   6.657  0.8966  2.6763 -1.1299
  166SAPE   H2S18681   0.541   3.746   6.508  0.3183 -0.1064 -0.9430
  166SAPE    C318682   0.814   3.418   6.325  0.7486 -0.4113  0.4051
  166SAPE    HX18683   0.847   3.519   6.293 -0.0918 -0.6120 -1.2155
  166SAPE    HY18684   0.840   3.351   6.241 -0.5771 -0.7674  0.2586
  166SAPE   O3118685   0.877   3.368   6.448  0.1241  0.0254  0.8032
  166SAPE   C3118686   0.899   3.462   6.533  0.5236  0.7071 -0.0291
  166SAPE   O3218687   0.886   3.579   6.510  0.0653 -0.6399 -0.5223
  166SAPE   C3218688   0.943   3.405   6.663  0.3059 -0.1120  0.0835
  166SAPE   H2X18689   1.052   3.383   6.652  0.8109  1.3108  1.8558
  166SAPE   H2Y18690   0.894   3.306   6.677 -1.3843  0.2367 -2.6115
  166SAPE   C2318691   0.339   3.690   6.568  0.3724  0.0121 -0.8244
  166SAPE   H3R18692   0.291   3.596   6.602  1.5429  0.6075  2.9640
  166SAPE   H3S18693   0.299   3.716   6.468  0.2489  1.3553 -0.4476
  166SAPE   C2418694   0.300   3.814   6.659  0.1395  0.2606  0.2465
  166SAPE   H4R18695   0.193   3.839   6.648  0.3783  1.0921 -0.2476
  166SAPE   H4S18696   0.365   3.896   6.620  2.4207 -1.2005  0.7308
  166SAPE   C2518697   0.341   3.809   6.805  0.2458 -0.0645  0.3552
  166SAPE   H5R18698   0.438   3.759   6.821 -0.3012 -0.8352  1.3546
  166SAPE   C2618699   0.274   3.846   6.917 -0.4212 -0.0108  0.1721
  166SAPE   H6R18700   0.328   3.836   7.013 -1.6792  1.5800  1.1107
  166SAPE   C2718701   0.142   3.911   6.926 -0.5574 -0.0456 -0.0812
  166SAPE   H7R18702   0.088   3.895   6.831  0.7649 -0.1424 -0.8392
  166SAPE   H7S18703   0.159   4.021   6.938  1.1223 -0.1744 -0.9597
  166SAPE   C2818704   0.059   3.860   7.041  0.1717  0.2925 -0.2337
  166SAPE   H8R18705   0.045   3.751   7.047 -1.5800  0.4263 -1.1725
  166SAPE   C2918706  -0.011   3.930   7.130 -0.3488 -0.4539  0.0822
  166SAPE   H9R18707  -0.068   3.875   7.206 -1.0142 -0.6756 -0.5729
  166SAPE  C21018708  -0.014   4.081   7.146  0.5080  0.1498  0.7565
  166SAPE  H10R18709  -0.116   4.114   7.174  1.0332  0.6524  2.1610
  166SAPE  H10S18710   0.008   4.117   7.044  2.8055 -0.3174  1.0287
  166SAPE  C21118711   0.097   4.143   7.230 -0.1535  0.5314  0.5586
  166SAPE  H11R18712   0.181   4.173   7.165 -0.5337  0.1263 -0.1433
  166SAPE  C21218713   0.120   4.145   7.361  0.1513 -0.2152 -0.5111
  166SAPE  H12R18714   0.209   4.192   7.407 -0.0121 -0.6044  0.2165
  166SAPE  C21318715   0.027   4.079   7.459 -0.4176  0.2487 -0.6693
  166SAPE  H13R18716   0.088   4.059   7.550 -0.1695  1.9478 -0.4107
  166SAPE  H13S18717   0.005   3.981   7.414 -0.7088  1.0738 -2.3991
  166SAPE  C21418718  -0.099   4.161   7.492  0.3057 -0.2142  0.1785
  166SAPE  H14R18719  -0.170   4.175   7.409  0.3585  2.0616  0.4457
  166SAPE  C21518720  -0.143   4.212   7.607  0.1549  0.0368 -0.5703
  166SAPE  H15R18721  -0.227   4.283   7.615  1.7273  1.7578  1.9452
  166SAPE  C21618722  -0.073   4.213   7.740  0.4259 -0.9886  0.6510
  166SAPE  H16R18723   0.034   4.195   7.714  0.5075  0.3762 -0.0867
  166SAPE  H16S18724  -0.112   4.123   7.793 -4.4484  1.4221  1.7294
  166SAPE  C21718725  -0.091   4.341   7.831 -0.5055 -0.2644  0.1430
  166SAPE  H17R18726  -0.069   4.430   7.768  1.4321 -1.4269 -0.9043
  166SAPE  H17S18727  -0.017   4.322   7.911 -0.1658  1.8664  0.4094
  166SAPE  C21818728  -0.223   4.350   7.903  0.0238 -0.4893  0.2358
  166SAPE  H18R18729  -0.234   4.250   7.950  2.4009 -1.0738 -0.3203
  166SAPE  H18S18730  -0.304   4.379   7.832  0.2135  2.1607  0.9984
  166SAPE  C21918731  -0.232   4.455   8.022 -0.8355 -0.9177  0.3623
  166SAPE  H19R18732  -0.214   4.555   7.977  1.7979 -1.6310 -0.4101
  166SAPE  H19S18733  -0.153   4.427   8.095  0.2913 -0.7316 -0.7414
  166SAPE  C22018734  -0.362   4.470   8.095  0.0793  0.0010 -0.1530
  166SAPE  H20R18735  -0.359   4.565   8.153 -1.3547  0.6182 -1.0194
  166SAPE  H20S18736  -0.387   4.392   8.170 -3.2022 -0.6297 -1.7142
  166SAPE  H20T18737  -0.453   4.481   8.032  1.4818  0.1480 -2.2561
  166SAPE   C3318738   0.901   3.501   6.781 -0.4579  0.5989 -0.3082
  166SAPE   H3X18739   0.792   3.511   6.794 -0.2037  2.5433  0.5370
  166SAPE   H3Y18740   0.933   3.607   6.770  0.9733  0.4550  1.9303
  166SAPE   C3418741   0.958   3.455   6.922  0.3158  0.5373  0.4672
  166SAPE   H4X18742   1.069   3.455   6.922  0.3802  1.6817 -1.7481
  166SAPE   H4Y18743   0.915   3.355   6.943 -0.6451  0.7404 -0.4250
  166SAPE   C3518744   0.909   3.550   7.033 -0.4882 -0.3939 -0.0738
  166SAPE   H5X18745   0.799   3.549   7.050 -0.7127  4.4987  0.2504
  166SAPE   H5Y18746   0.940   3.656   7.024 -0.3450 -0.1187  2.7808
  166SAPE   C3618747   0.961   3.502   7.169  0.2418 -0.1512 -0.0386
  166SAPE   H6X18748   1.070   3.485   7.153 -0.2486 -1.3952 -2.5584
  166SAPE   H6Y18749   0.917   3.408   7.210  1.1670 -1.5748 -2.1099
  166SAPE   C3718750   0.942   3.619   7.275  0.0853  0.3143 -0.1459
  166SAPE   H7X18751   0.836   3.653   7.273 -0.0411 -0.0414 -2.8051
  166SAPE   H7Y18752   1.015   3.701   7.258 -1.0982  1.0009 -2.2637
  166SAPE   C3818753   0.951   3.571   7.425 -0.1197 -0.1411  0.9604
  166SAPE   H8X18754   1.060   3.565   7.446  0.0191 -1.3645 -0.0170
  166SAPE   H8Y18755   0.913   3.467   7.435 -0.8955 -0.0078 -0.3500
  166SAPE   C3918756   0.894   3.678   7.522  0.3119  0.0669 -0.3017
  166SAPE   H9X18757   0.783   3.689   7.516  0.2385 -0.6629 -0.4842
  166SAPE   H9Y18758   0.938   3.777   7.501 -0.6061  0.4148 -0.6123
  166SAPE  C31018759   0.932   3.647   7.663 -0.5920  0.5094  0.0556
  166SAPE  H10X18760   1.040   3.624   7.670 -0.5965  0.1004 -1.1047
  166SAPE  H10Y18761   0.882   3.554   7.700  0.2919 -0.1132 -0.2750
  166SAPE  C31118762   0.891   3.746   7.769  0.5017 -0.1970  0.3679
  166SAPE  H11X18763   0.789   3.789   7.753  0.5364  0.2898  1.3842
  166SAPE  H11Y18764   0.961   3.829   7.789  0.2730  0.8643 -2.6985
  166SAPE  C31218765   0.854   3.672   7.902 -0.1202 -1.3141  0.8586
  166SAPE  H12X18766   0.947   3.630   7.945  0.1625 -1.7281 -0.1232
  166SAPE  H12Y18767   0.774   3.598   7.881  0.0517 -1.0130 -0.9890
  166SAPE  C31318768   0.783   3.766   8.006 -0.4499  1.6080 -0.5004
  166SAPE  H13X18769   0.691   3.807   7.959 -1.5772 -1.0078 -0.7585
  166SAPE  H13Y18770   0.858   3.844   8.031  0.0993  0.4258  1.8502
  166SAPE  C31418771   0.752   3.697   8.149  0.2631  0.6143 -0.2318
  166SAPE  H14X18772   0.845   3.659   8.194 -0.8029 -0.6982  0.9530
  166SAPE  H14Y18773   0.681   3.614   8.128  0.9687  0.1280 -0.7450
  166SAPE  C31518774   0.689   3.800   8.241  0.1759  0.3459  1.1384
  166SAPE  H15X18775   0.595   3.831   8.190  0.1191 -1.0524  0.3565
  166SAPE  H15Y18776   0.752   3.891   8.250 -1.3043  1.6450 -0.5789
  166SAPE  C31618777   0.657   3.751   8.388  0.4216  0.2027 -0.4675
  166SAPE  H16X18778   0.621   3.843   8.439 -0.2675  0.9176 -2.1831
  166SAPE  H16Y18779   0.742   3.717   8.451  0.5570 -1.7499 -1.6450
  166SAPE  C31718780   0.546   3.645   8.396  0.7336 -0.6174  0.0462
  166SAPE  H17X18781   0.592   3.553   8.355  3.3163 -0.3388  2.0663
  166SAPE  H17Y18782   0.463   3.680   8.330  1.8979 -2.2187 -2.4045
  166SAPE  C31818783   0.507   3.604   8.534  0.0567 -0.2859 -0.5123
  166SAPE  H18X18784   0.422   3.533   8.542 -0.8876  1.0108  2.8982
  166SAPE  H18Y18785   0.466   3.684   8.600 -0.1334  0.1317 -1.1246
  166SAPE  H18Z18786   0.596   3.555   8.578  0.5799  2.7152  2.0948
  167SAPE     N18787   1.462   5.244   6.393 -0.1082  0.0944  0.2840
  167SAPE   HN118788   1.560   5.222   6.420 -0.2386  2.9958  3.8190
  167SAPE   HN218789   1.445   5.323   6.458  1.8624  0.0925  0.8642
  167SAPE   HN318790   1.395   5.168   6.412  0.8320 -1.1592 -1.1246
  167SAPE   C1218791   1.446   5.283   6.246 -0.2995  0.3099  0.6210
  167SAPE  H12A18792   1.525   5.355   6.215 -0.3011  0.8734  1.8616
  167SAPE  H12B18793   1.346   5.331   6.235 -0.8943 -1.0910 -0.3585
  167SAPE   C1118794   1.450   5.151   6.158 -0.4367 -0.2363  0.3271
  167SAPE  H11A18795   1.556   5.115   6.160 -0.3585 -0.0078  1.7621
  167SAPE  H11B18796   1.423   5.176   6.054  2.7575  1.9666 -0.1270
  167SAPE     P18797   1.320   4.926   6.135 -0.4168 -0.1346 -0.2440
  167SAPE   O1318798   1.306   4.959   5.990 -0.2023 -0.6730  0.5545
  167SAPE   O1418799   1.394   4.805   6.167  0.1960 -0.2233  0.3214
  167SAPE   O1218800   1.370   5.048   6.219  0.6953  0.1397  0.1275
  167SAPE   O1118801   1.174   4.906   6.196  0.0912  0.2910  0.8839
  167SAPE    C118802   1.067   4.993   6.180 -0.5240 -0.5283  0.5258
  167SAPE    HA18803   1.069   5.055   6.087  3.0280  0.6347  1.2322
  167SAPE    HB18804   0.978   4.928   6.174 -1.6606  0.8563  1.7041
  167SAPE    C218805   1.058   5.085   6.295 -0.2595 -0.1816  0.3630
  167SAPE    HS18806   1.138   5.162   6.282 -1.6844  1.0863 -1.5126
  167SAPE   O2118807   1.057   5.005   6.417 -0.0300 -0.6010 -0.1600
  167SAPE   C2118808   1.145   5.043   6.510  0.1139 -0.5676 -0.6720
  167SAPE   O2218809   1.215   5.146   6.498  0.0545 -0.5515 -0.3044
  167SAPE   C2218810   1.142   4.951   6.636  0.0140 -0.6432  1.2656
  167SAPE   H2R18811   1.130   5.024   6.720 -1.3370  0.7984 -0.1262
  167SAPE   H2S18812   1.059   4.878   6.623 -0.1620 -0.3401  0.6618
  167SAPE    C318813   0.926   5.158   6.289 -0.6232  0.1799 -0.1184
  167SAPE    HX18814   0.846   5.081   6.297 -0.5114  0.1484  0.8853
  167SAPE    HY18815   0.912   5.211   6.193  0.7314  1.5746  0.4227
  167SAPE   O3118816   0.901   5.242   6.409  0.3066 -0.3845 -0.4011
  167SAPE   C3118817   0.978   5.346   6.410 -0.4939 -0.1008  0.0899
  167SAPE   O3218818   1.050   5.380   6.320 -0.1735 -0.2329 -0.2084
  167SAPE   C3218819   0.979   5.415   6.549  0.2191  0.1815  0.8198
  167SAPE   H2X18820   0.876   5.452   6.567  0.2603 -0.1673  1.8221
  167SAPE   H2Y18821   1.058   5.493   6.548  0.4087  0.0193 -0.8459
  167SAPE   C2318822   1.261   4.856   6.649  0.0361  0.1996  0.8631
  167SAPE   H3R18823   1.354   4.917   6.641 -0.9040  1.4168 -1.9197
  167SAPE   H3S18824   1.255   4.780   6.569  2.4805  1.0875 -0.2618
  167SAPE   C2418825   1.261   4.778   6.784 -1.0694 -0.1251 -0.4720
  167SAPE   H4R18826   1.250   4.855   6.864  2.8150  1.9192 -1.6784
  167SAPE   H4S18827   1.359   4.732   6.807 -0.5468  1.3644  0.4323
  167SAPE   C2518828   1.155   4.675   6.792  0.0019 -0.0803  0.3305
  167SAPE   H5R18829   1.169   4.604   6.708  0.6334  1.2990 -0.7751
  167SAPE   C2618830   1.041   4.667   6.868  0.4805 -1.6753 -1.2957
  167SAPE   H6R18831   0.975   4.581   6.855 -1.1916 -0.4892 -1.0131
  167SAPE   C2718832   1.008   4.764   6.986 -0.9184  0.2550  0.1608
  167SAPE   H7R18833   0.915   4.821   6.964 -0.7702 -0.5806 -3.2272
  167SAPE   H7S18834   1.089   4.839   7.001  0.1755 -0.9259  0.2681
  167SAPE   C2818835   1.001   4.713   7.125  0.0681  0.0180  0.0672
  167SAPE   H8R18836   1.066   4.628   7.152  1.6246  1.5004  1.1864
  167SAPE   C2918837   0.921   4.754   7.227 -0.3729  0.1737  0.2787
  167SAPE   H9R18838   0.927   4.712   7.328  2.0067  2.6959  1.2850
  167SAPE  C21018839   0.819   4.865   7.207 -0.2435  0.1651 -0.6944
  167SAPE  H10R18840   0.776   4.869   7.105 -2.4000 -2.0109  0.0316
  167SAPE  H10S18841   0.869   4.960   7.238  1.9640 -1.3492  0.7001
  167SAPE  C21118842   0.707   4.836   7.301  0.2568 -0.7145 -0.5883
  167SAPE  H11R18843   0.603   4.821   7.268  0.3496 -2.3076 -0.2233
  167SAPE  C21218844   0.708   4.831   7.434 -0.2461 -0.1642 -1.0360
  167SAPE  H12R18845   0.616   4.808   7.489  1.6546  0.2521  2.6424
  167SAPE  C21318846   0.830   4.857   7.522  0.1710  0.0258 -0.0067
  167SAPE  H13R18847   0.816   4.952   7.580 -0.5066 -0.6190  0.9211
  167SAPE  H13S18848   0.922   4.874   7.462  0.0482 -0.5392 -0.3538
  167SAPE  C21418849   0.849   4.738   7.617 -0.0157  0.1251  0.4154
  167SAPE  H14R18850   0.935   4.675   7.591  1.0220  0.2891  3.1198
  167SAPE  C21518851   0.772   4.714   7.729 -0.1050 -0.0973  0.5404
  167SAPE  H15R18852   0.790   4.622   7.788 -0.6272  0.7871  2.1426
  167SAPE  C21618853   0.663   4.804   7.789 -0.1897 -0.1274 -0.0932
  167SAPE  H16R18854   0.565   4.750   7.791 -0.8579  0.9612 -1.5922
  167SAPE  H16S18855   0.655   4.897   7.729  2.7284  0.5926  0.4855
  167SAPE  C21718856   0.689   4.842   7.934  0.1201  0.9228  0.6397
  167SAPE  H17R18857   0.608   4.909   7.970 -1.8578 -1.8949  1.8758
  167SAPE  H17S18858   0.788   4.891   7.940  1.1014 -1.0361  1.6373
  167SAPE  C21818859   0.693   4.724   8.034  0.5189 -0.5078  0.2178
  167SAPE  H18R18860   0.778   4.657   8.009 -0.0114 -0.9506 -0.4396
  167SAPE  H18S18861   0.594   4.674   8.043 -0.1521  0.8647  0.8014
  167SAPE  C21918862   0.737   4.786   8.167  0.6218 -0.0511  0.7649
  167SAPE  H19R18863   0.694   4.888   8.178  0.4081 -0.2282  1.7316
  167SAPE  H19S18864   0.846   4.806   8.162  1.2497 -2.2584  3.1360
  167SAPE  C22018865   0.689   4.702   8.293  0.6239  0.4121  0.1891
  167SAPE  H20R18866   0.720   4.759   8.383  0.2620  1.8606 -0.5752
  167SAPE  H20S18867   0.722   4.596   8.278 -1.2053 -0.2167  0.3347
  167SAPE  H20T18868   0.579   4.700   8.308  0.7797  0.3908  1.5177
  167SAPE   C3318869   1.016   5.313   6.660 -0.3010 -0.4763 -0.3583
  167SAPE   H3X18870   1.120   5.275   6.654 -1.0649 -2.5507 -1.5437
  167SAPE   H3Y18871   0.939   5.233   6.656 -1.7357  0.9012 -2.1349
  167SAPE   C3418872   1.009   5.370   6.798 -0.0794  0.4029  0.0738
  167SAPE   H4X18873   0.905   5.399   6.825 -0.2664 -1.1768  1.1792
  167SAPE   H4Y18874   1.083   5.452   6.811  0.2090  0.0927  0.4251
  167SAPE   C3518875   1.040   5.261   6.907 -0.4257 -0.5379  0.2636
  167SAPE   H5X18876   1.139   5.211   6.904 -0.1851 -0.0236 -0.8015
  167SAPE   H5Y18877   0.975   5.173   6.890  0.3824 -0.6835 -2.5418
  167SAPE   C3618878   1.022   5.324   7.047  0.2035 -0.3288  0.4447
  167SAPE   H6X18879   0.914   5.328   7.071  0.1713 -0.3778  0.3044
  167SAPE   H6Y18880   1.065   5.426   7.060 -0.3906 -0.1222  0.7867
  167SAPE   C3718881   1.083   5.236   7.158  0.6056  0.5445 -0.6440
  167SAPE   H7X18882   1.194   5.238   7.162  0.5754  1.2518  1.5713
  167SAPE   H7Y18883   1.053   5.131   7.138 -0.7957  0.0694  3.0941
  167SAPE   C3818884   1.019   5.269   7.301  0.1417 -0.2788 -0.3579
  167SAPE   H8X18885   0.909   5.254   7.300  0.1723 -1.7792  3.4917
  167SAPE   H8Y18886   1.029   5.373   7.339 -1.8731  0.3128 -1.2920
  167SAPE   C3918887   1.076   5.175   7.413 -0.1864  0.1107 -0.1916
  167SAPE   H9X18888   1.184   5.198   7.424 -0.1206 -1.1367  2.7176
  167SAPE   H9Y18889   1.067   5.074   7.368 -1.1846  0.3256 -0.5079
  167SAPE  C31018890   1.003   5.192   7.544 -0.5312  0.9849  0.2270
  167SAPE  H10X18891   0.895   5.164   7.542  0.3099 -2.7709  0.6797
  167SAPE  H10Y18892   1.010   5.301   7.569  0.1430  1.0786 -0.3544
  167SAPE  C31118893   1.068   5.118   7.660  0.5343  0.1815 -0.2457
  167SAPE  H11X18894   1.178   5.131   7.649  0.4738  0.1529 -0.9488
  167SAPE  H11Y18895   1.049   5.011   7.638 -1.0677  0.0500  1.5642
  167SAPE  C31218896   1.013   5.166   7.789 -0.2231  0.6239 -0.2912
  167SAPE  H12X18897   0.905   5.139   7.791 -0.3945  1.1590 -1.4970
  167SAPE  H12Y18898   1.021   5.276   7.800  0.1171  0.7742 -1.7810
  167SAPE  C31318899   1.086   5.099   7.905 -0.0556  0.6007  0.0256
  167SAPE  H13X18900   1.195   5.119   7.912  0.4481 -1.6638 -0.5177
  167SAPE  H13Y18901   1.077   4.989   7.889  0.7062  0.3482  1.1867
  167SAPE  C31418902   1.025   5.156   8.035  0.4971  0.0451  0.0130
  167SAPE  H14X18903   0.918   5.178   8.017  0.2810 -0.1466  0.9595
  167SAPE  H14Y18904   1.062   5.258   8.060 -2.0144  1.2371 -0.8508
  167SAPE  C31518905   1.012   5.055   8.152  1.0314  0.3706 -0.0096
  167SAPE  H15X18906   1.110   5.019   8.191  0.1172 -2.3254  0.0325
  167SAPE  H15Y18907   0.966   4.969   8.098 -0.5573  0.6917  0.7746
  167SAPE  C31618908   0.927   5.121   8.256 -0.2579  0.1889 -0.0569
  167SAPE  H16X18909   0.827   5.134   8.211  0.2273  1.4606 -0.8256
  167SAPE  H16Y18910   0.966   5.220   8.288  2.4106 -0.2571 -1.5969
  167SAPE  C31718911   0.920   5.029   8.378  0.0966 -0.0359  0.2344
  167SAPE  H17X18912   1.018   5.002   8.422 -0.3178  2.2166  2.7977
  167SAPE  H17Y18913   0.861   4.939   8.351  4.0369 -2.7151 -0.2253
  167SAPE  C31818914   0.846   5.098   8.493  0.1733 -0.3466 -0.2304
  167SAPE  H18X18915   0.889   5.201   8.495  0.2933 -0.3992  1.4844
  167SAPE  H18Y18916   0.869   5.039   8.584 -1.1803  0.6945  0.8453
  167SAPE  H18Z18917   0.737   5.104   8.473 -0.0500  1.4478  1.1974
  168SAPE     N18918   3.180   0.021   6.488 -0.4036  0.0457 -0.6128
  168SAPE   HN118919   3.093  -0.035   6.501 -1.1982  1.2444 -0.6925
  168SAPE   HN218920   3.231   0.031   6.578  0.1612 -0.2778 -0.8823
  168SAPE   HN318921   3.145   0.114   6.460  2.1938  1.6755  1.1021
  168SAPE   C1218922   3.265  -0.040   6.384  0.1164  0.2995  0.2009
  168SAPE  H12A18923   3.321   0.045   6.339 -2.4520  2.0643  0.0415
  168SAPE  H12B18924   3.198  -0.088   6.309  0.4003  0.5649 -0.2248
  168SAPE   C1118925   3.363  -0.144   6.441  0.3079 -0.1132 -0.3512
  168SAPE  H11A18926   3.423  -0.104   6.525  4.5189 -0.7376 -2.7801
  168SAPE  H11B18927   3.439  -0.166   6.363  1.1244  0.2089  0.3421
  168SAPE     P18928   3.354  -0.402   6.458 -0.1094  0.2336  0.0292
  168SAPE   O1318929   3.324  -0.443   6.317 -0.5159 -0.1943  0.0004
  168SAPE   O1418930   3.490  -0.416   6.509 -0.0614 -0.5370  0.1976
  168SAPE   O1218931   3.300  -0.258   6.494 -0.0757 -0.0310 -0.4226
  168SAPE   O1118932   3.281  -0.504   6.549 -0.1391 -0.2772 -0.2879
  168SAPE    C118933   3.197  -0.468   6.659  0.1241 -0.0075 -0.5877
  168SAPE    HA18934   3.174  -0.361   6.677 -0.2516 -0.0094 -1.0300
  168SAPE    HB18935   3.095  -0.508   6.645 -1.1188  2.5156  0.5728
  168SAPE    C218936   3.249  -0.528   6.793  0.1549  0.2952  0.2974
  168SAPE    HS18937   3.171  -0.505   6.869 -1.1097  2.9331 -1.6531
  168SAPE   O2118938   3.379  -0.477   6.838  0.4138 -0.2001 -0.0721
  168SAPE   C2118939   3.382  -0.352   6.868 -0.4474 -0.5914  0.0578
  168SAPE   O2218940   3.290  -0.271   6.870 -0.3980 -0.1917 -0.5030
  168SAPE   C2218941   3.529  -0.314   6.879 -0.4136 -0.9741  0.0173
  168SAPE   H2R18942   3.590  -0.396   6.922  0.1656 -0.6848 -0.2427
  168SAPE   H2S18943   3.577  -0.320   6.779 -1.9482 -1.7338 -0.6912
  168SAPE    C318944   3.253  -0.682   6.795  0.6727  0.6359  0.4000
  168SAPE    HX18945   3.353  -0.716   6.760  0.1993 -1.0633  0.5899
  168SAPE    HY18946   3.184  -0.721   6.717  0.3535  1.8284  0.0742
  168SAPE   O3118947   3.221  -0.752   6.923  0.5635  0.0550  0.0816
  168SAPE   C3118948   3.173  -0.876   6.912 -0.5854 -0.3741  0.4793
  168SAPE   O3218949   3.141  -0.944   6.818  0.1818  0.6852  0.7185
  168SAPE   C3218950   3.163  -0.919   7.059 -0.5431 -1.0105 -0.0154
  168SAPE   H2X18951   3.091  -0.854   7.114  0.7792 -0.2352  0.8548
  168SAPE   H2Y18952   3.258  -0.893   7.109 -0.7536  1.8875 -0.9150
  168SAPE   C2318953   3.574  -0.176   6.935 -0.3498 -0.8132 -0.0109
  168SAPE   H3R18954   3.499  -0.099   6.906  0.2829 -0.3630 -0.4589
  168SAPE   H3S18955   3.666  -0.132   6.892 -0.2488  1.6522  2.4241
  168SAPE   C2418956   3.604  -0.183   7.087  0.5700 -1.0291 -0.2284
  168SAPE   H4R18957   3.662  -0.092   7.110 -0.0399 -0.6061 -0.3455
  168SAPE   H4S18958   3.681  -0.260   7.109  2.8152  2.1146  4.4387
  168SAPE   C2518959   3.484  -0.189   7.181  0.0227 -0.9452 -0.1084
  168SAPE   H5R18960   3.385  -0.199   7.134  0.6708 -2.1243 -1.2834
  168SAPE   C2618961   3.489  -0.166   7.314  0.4036  0.6163 -0.7184
  168SAPE   H6R18962   3.393  -0.164   7.369  0.5508  1.4266 -0.4775
  168SAPE   C2718963   3.614  -0.133   7.399 -0.3365  0.3884 -0.0298
  168SAPE   H7R18964   3.610  -0.029   7.438  2.0576  0.5889 -0.2095
  168SAPE   H7S18965   3.710  -0.148   7.345 -1.5144 -2.9766 -1.4390
  168SAPE   C2818966   3.616  -0.230   7.510  0.0657  0.0344 -0.2769
  168SAPE   H8R18967   3.652  -0.331   7.484 -1.2152 -1.2043  2.3848
  168SAPE   C2918968   3.567  -0.210   7.633  0.7620 -0.1917 -0.4948
  168SAPE   H9R18969   3.586  -0.284   7.712  3.8239  0.2354 -0.7226
  168SAPE  C21018970   3.483  -0.090   7.676 -0.5491 -0.0324 -1.2583
  168SAPE  H10R18971   3.478  -0.006   7.604 -1.0568  0.2607 -0.8915
  168SAPE  H10S18972   3.519  -0.046   7.771 -0.3762 -0.7791 -0.9689
  168SAPE  C21118973   3.335  -0.135   7.695  0.3913 -0.2141  0.2059
  168SAPE  H11R18974   3.281  -0.150   7.601  1.9277 -1.2400 -0.5508
  168SAPE  C21218975   3.257  -0.147   7.809 -0.1620  0.0273 -0.3791
  168SAPE  H12R18976   3.155  -0.183   7.787  0.1141 -0.2813 -1.2038
  168SAPE  C21318977   3.287  -0.121   7.952  0.0097 -0.2869  0.4209
  168SAPE  H13R18978   3.189  -0.117   8.005 -0.8399 -5.2532 -0.2493
  168SAPE  H13S18979   3.338  -0.024   7.961 -0.8196  0.5580 -2.7212
  168SAPE  C21418980   3.367  -0.235   8.008 -0.0570 -0.4382 -1.3607
  168SAPE  H14R18981   3.429  -0.288   7.934  2.7695 -0.4907  0.8718
  168SAPE  C21518982   3.375  -0.285   8.135  0.2689  0.0394 -0.4554
  168SAPE  H15R18983   3.445  -0.367   8.158 -0.8415 -1.2911 -1.6184
  168SAPE  C21618984   3.295  -0.232   8.250 -1.0515  0.5909  0.4663
  168SAPE  H16R18985   3.263  -0.310   8.323 -1.3565  1.8712  1.7451
  168SAPE  H16S18986   3.204  -0.177   8.219 -0.7793  1.0553  0.4767
  168SAPE  C21718987   3.366  -0.114   8.334  0.3614  0.1820 -0.1765
  168SAPE  H17R18988   3.411  -0.040   8.264 -1.0890  0.3557 -0.9587
  168SAPE  H17S18989   3.456  -0.161   8.381  2.0910  2.2844 -1.2257
  168SAPE  C21818990   3.263  -0.056   8.434 -0.0973 -0.3106  0.0796
  168SAPE  H18R18991   3.225  -0.137   8.500 -0.7759  0.5397  0.7424
  168SAPE  H18S18992   3.178  -0.011   8.378 -0.3369  1.3705  1.7344
  168SAPE  C21918993   3.326   0.056   8.524  0.3071  0.4924 -0.4515
  168SAPE  H19R18994   3.408   0.007   8.580 -1.8844 -0.4732  2.1223
  168SAPE  H19S18995   3.248   0.090   8.596  0.6317 -0.5292  0.4078
  168SAPE  C22018996   3.381   0.176   8.451 -0.2361  0.1309  0.3286
  168SAPE  H20R18997   3.459   0.150   8.377 -0.0632  1.2852  0.0813
  168SAPE  H20S18998   3.421   0.250   8.524 -0.6777 -0.3820  1.1005
  168SAPE  H20T18999   3.297   0.217   8.390  0.5397 -0.1899 -0.9783
  168SAPE   C3319000   3.142  -1.075   7.068 -0.4625 -0.6478 -0.6346
  168SAPE   H3X19001   3.227  -1.138   7.036  0.4030 -0.4415  1.1192
  168SAPE   H3Y19002   3.049  -1.107   7.017 -0.5373 -0.6577 -0.4926
  168SAPE   C3419003   3.127  -1.130   7.213 -0.6572 -0.1201  0.1824
  168SAPE   H4X19004   3.122  -1.241   7.208  0.8604 -0.1543 -1.2701
  168SAPE   H4Y19005   3.036  -1.089   7.262  1.0199  1.3175  2.2709
  168SAPE   C3519006   3.250  -1.093   7.299  0.0424 -0.3189 -0.2501
  168SAPE   H5X19007   3.249  -0.983   7.309 -4.8176 -0.2258  0.6578
  168SAPE   H5Y19008   3.345  -1.118   7.248  0.3566 -0.5296  0.4306
  168SAPE   C3619009   3.225  -1.130   7.451 -0.0781 -0.6193  0.1729
  168SAPE   H6X19010   3.217  -1.241   7.457 -1.2521 -0.5369  0.2282
  168SAPE   H6Y19011   3.128  -1.083   7.476  0.7904  0.7889  0.9751
  168SAPE   C3719012   3.333  -1.084   7.552  0.2173  0.5955  0.4399
  168SAPE   H7X19013   3.358  -0.976   7.540 -0.3701  0.8108  1.0580
  168SAPE   H7Y19014   3.417  -1.145   7.513 -0.4922  1.0888 -1.9943
  168SAPE   C3819015   3.286  -1.125   7.689  0.0556 -0.0552  0.1082
  168SAPE   H8X19016   3.273  -1.235   7.687 -2.9799  0.2356 -0.9414
  168SAPE   H8Y19017   3.184  -1.086   7.709 -0.0725 -1.2211  1.9530
  168SAPE   C3919018   3.373  -1.089   7.809  0.0984 -0.1752  0.4813
  168SAPE   H9X19019   3.380  -0.978   7.818 -1.2199 -0.0288 -0.0755
  168SAPE   H9Y19020   3.477  -1.125   7.793  1.1638  3.4332 -2.1491
  168SAPE  C31019021   3.329  -1.144   7.942  0.4730  0.2875 -0.1805
  168SAPE  H10X19022   3.326  -1.255   7.941 -0.7680  0.2513 -3.1897
  168SAPE  H10Y19023   3.231  -1.092   7.947 -0.4823 -1.2999 -1.3795
  168SAPE  C31119024   3.424  -1.089   8.048 -0.1641  0.4864 -0.2885
  168SAPE  H11X19025   3.463  -0.993   8.009  2.4902 -0.6087 -0.5748
  168SAPE  H11Y19026   3.519  -1.146   8.061  0.1699  1.3784  1.5654
  168SAPE  C31219027   3.345  -1.063   8.179 -0.0390 -0.4930 -0.3574
  168SAPE  H12X19028   3.257  -0.998   8.162 -0.0967  0.8774  3.8975
  168SAPE  H12Y19029   3.402  -1.013   8.261 -0.4150  0.0612 -0.4252
  168SAPE  C31319030   3.308  -1.193   8.239 -0.7367  0.8121 -0.0002
  168SAPE  H13X19031   3.400  -1.255   8.249 -0.6061  1.0214  0.1104
  168SAPE  H13Y19032   3.240  -1.252   8.174  0.3791 -0.1609 -0.3174
  168SAPE  C31419033   3.238  -1.177   8.371  0.4888 -0.0932 -0.2115
  168SAPE  H14X19034   3.150  -1.110   8.366 -0.5829 -1.4193  0.1079
  168SAPE  H14Y19035   3.317  -1.141   8.440 -0.2974  0.7421  0.2700
  168SAPE  C31519036   3.191  -1.307   8.437  0.6705 -1.3551 -0.7980
  168SAPE  H15X19037   3.273  -1.382   8.425  2.8066  0.9258 -1.2600
  168SAPE  H15Y19038   3.098  -1.338   8.385 -0.8711  2.2574 -0.4411
  168SAPE  C31619039   3.173  -1.297   8.592  0.3577  0.4845  0.0342
  168SAPE  H16X19040   3.087  -1.229   8.610 -1.0836 -1.1953 -0.2534
  168SAPE  H16Y19041   3.261  -1.258   8.649  0.5171  0.1165  0.0438
  168SAPE  C31719042   3.138  -1.439   8.643  0.0105 -0.6073  0.3087
  168SAPE  H17X19043   3.062  -1.489   8.578  0.3959 -0.0051 -0.6167
  168SAPE  H17Y19044   3.090  -1.443   8.743 -1.6565 -2.6464 -0.4981
  168SAPE  C31819045   3.254  -1.531   8.671  0.5292 -0.1371 -1.1870
  168SAPE  H18X19046   3.324  -1.526   8.584 -0.4233  0.7574 -1.9349
  168SAPE  H18Y19047   3.230  -1.637   8.690 -0.6727 -0.2206 -2.9073
  168SAPE  H18Z19048   3.305  -1.502   8.765  1.5425 -1.9942 -1.1271
  169SAPE     N19049   4.315   0.196   6.358  0.1984  0.0473 -0.2027
  169SAPE   HN119050   4.333   0.297   6.343 -0.5105  0.6530  2.4967
  169SAPE   HN219051   4.406   0.155   6.330  1.2243  1.8021  0.4452
  169SAPE   HN319052   4.243   0.153   6.296  0.3759 -1.4053  0.5471
  169SAPE   C1219053   4.249   0.173   6.489  0.3418  0.1362 -0.2658
  169SAPE  H12A19054   4.326   0.203   6.563 -1.4757 -0.2867  1.9044
  169SAPE  H12B19055   4.224   0.065   6.498  1.1808 -0.2455 -2.0616
  169SAPE   C1119056   4.114   0.253   6.497  0.1028 -0.0870 -0.5323
  169SAPE  H11A19057   4.099   0.260   6.607  4.9296 -1.7381  0.4634
  169SAPE  H11B19058   4.033   0.194   6.451 -0.9245  0.3704  0.6301
  169SAPE     P19059   4.209   0.496   6.490  0.2422 -0.3457  0.0816
  169SAPE   O1319060   4.350   0.462   6.466  0.2672 -0.6795 -0.0450
  169SAPE   O1419061   4.150   0.614   6.423 -0.1653  0.5035 -0.1703
  169SAPE   O1219062   4.120   0.378   6.436 -0.5605  0.7993  0.0024
  169SAPE   O1119063   4.189   0.510   6.649 -0.3663  0.3975  0.1678
  169SAPE    C119064   4.060   0.542   6.707 -0.0835  0.3270  1.0423
  169SAPE    HA19065   4.024   0.644   6.682 -0.7343 -0.0815  0.2605
  169SAPE    HB19066   3.983   0.468   6.673 -1.0452  1.4770  0.6575
  169SAPE    C219067   4.076   0.527   6.861 -0.4869 -0.1179 -0.1516
  169SAPE    HS19068   3.978   0.512   6.911 -1.3960  1.0735 -1.5209
  169SAPE   O2119069   4.160   0.645   6.905 -0.0690  0.3801 -0.0998
  169SAPE   C2119070   4.084   0.743   6.943 -0.2752  0.1958  0.9031
  169SAPE   O2219071   3.967   0.750   6.925  0.1462 -0.4652  0.2895
  169SAPE   C2219072   4.168   0.840   7.029  0.1671  0.2260  0.0525
  169SAPE   H2R19073   4.259   0.782   7.055 -0.5864 -0.9144  0.2171
  169SAPE   H2S19074   4.203   0.927   6.969 -0.2256 -0.3058 -0.9659
  169SAPE    C319075   4.166   0.404   6.893  0.7023  0.3311 -0.1463
  169SAPE    HX19076   4.275   0.418   6.879  1.3413  0.4033  3.7716
  169SAPE    HY19077   4.130   0.328   6.820  1.9662  1.0046 -1.5061
  169SAPE   O3119078   4.141   0.369   7.023 -0.3771 -0.5334 -0.4647
  169SAPE   C3119079   4.248   0.390   7.112 -0.2569  0.5517  0.3293
  169SAPE   O3219080   4.364   0.407   7.082  0.0766  0.0302 -0.1560
  169SAPE   C3219081   4.186   0.388   7.248 -0.0647 -0.5775 -0.0321
  169SAPE   H2X19082   4.121   0.301   7.270  1.0288 -1.4368 -0.0883
  169SAPE   H2Y19083   4.127   0.481   7.257 -0.5490 -0.9736  0.9761
  169SAPE   C2319084   4.080   0.888   7.145  0.4150 -0.2737 -0.1152
  169SAPE   H3R19085   3.977   0.920   7.116 -0.7301 -2.3561  1.3594
  169SAPE   H3S19086   4.138   0.970   7.192 -1.2761 -0.2085  1.9954
  169SAPE   C2419087   4.072   0.784   7.258  0.4137 -0.5145 -0.2792
  169SAPE   H4R19088   4.040   0.689   7.210 -0.2425 -1.0712  1.2094
  169SAPE   H4S19089   3.992   0.812   7.330 -0.9049  1.9352 -2.5456
  169SAPE   C2519090   4.199   0.768   7.334  0.3926 -0.2225 -0.1504
  169SAPE   H5R19091   4.288   0.744   7.273  0.3378  0.3381 -0.4591
  169SAPE   C2619092   4.219   0.770   7.465  0.3557  1.0444 -0.2387
  169SAPE   H6R19093   4.322   0.746   7.497  0.5612 -1.1793 -2.2881
  169SAPE   C2719094   4.106   0.783   7.571 -0.9259 -0.2815 -0.0127
  169SAPE   H7R19095   4.063   0.686   7.603 -1.9772  0.4506  0.8604
  169SAPE   H7S19096   4.009   0.828   7.539 -1.6775 -1.5434  0.3991
  169SAPE   C2819097   4.141   0.867   7.688  0.5279 -0.1475  0.2288
  169SAPE   H8R19098   4.232   0.927   7.673 -0.3011  1.7329  2.2041
  169SAPE   C2919099   4.067   0.876   7.801  0.2537  0.4700 -0.0218
  169SAPE   H9R19100   4.093   0.937   7.889  0.7315 -0.2068  0.3217
  169SAPE  C21019101   3.932   0.801   7.817 -0.7299 -0.4589 -0.4011
  169SAPE  H10R19102   3.903   0.748   7.724 -0.6462 -1.6769  0.2496
  169SAPE  H10S19103   3.859   0.883   7.833  0.2523  0.1307  1.3747
  169SAPE  C21119104   3.947   0.705   7.935 -0.3338  0.3517 -0.4325
  169SAPE  H11R19105   3.964   0.598   7.915 -2.1886 -0.0396 -0.0956
  169SAPE  C21219106   3.931   0.742   8.065 -0.6418 -0.3932 -0.1732
  169SAPE  H12R19107   3.932   0.671   8.149 -1.4256  1.6874  1.6995
  169SAPE  C21319108   3.909   0.880   8.129 -0.1220  0.8915 -0.1959
  169SAPE  H13R19109   3.985   0.954   8.096  1.1668  0.3962  1.4798
  169SAPE  H13S19110   3.941   0.882   8.236  0.4784  2.9211 -0.3735
  169SAPE  C21419111   3.777   0.943   8.114  0.4163 -0.0335  0.1271
  169SAPE  H14R19112   3.739   0.962   8.012 -2.4441  0.3221  1.1678
  169SAPE  C21519113   3.701   0.980   8.215 -0.0297  0.0788 -0.7702
  169SAPE  H15R19114   3.596   1.004   8.192 -0.1793 -1.2636 -1.6036
  169SAPE  C21619115   3.736   0.972   8.364  0.1314  0.0467 -0.7040
  169SAPE  H16R19116   3.810   0.892   8.388 -0.3900 -0.8754 -2.0537
  169SAPE  H16S19117   3.649   0.936   8.423 -1.1613 -0.4476 -2.8169
  169SAPE  C21719118   3.794   1.114   8.407 -0.2468  0.2431  0.1280
  169SAPE  H17R19119   3.878   1.117   8.333 -1.8002 -0.6889 -1.7473
  169SAPE  H17S19120   3.840   1.110   8.509 -1.4019 -3.5469  0.6652
  169SAPE  C21819121   3.693   1.229   8.405 -0.1580  0.2767 -0.2303
  169SAPE  H18R19122   3.601   1.200   8.460 -1.6063  0.6458 -2.3613
  169SAPE  H18S19123   3.655   1.251   8.303 -1.4034  2.6519  0.6704
  169SAPE  C21919124   3.737   1.364   8.461 -0.7592  0.4717  0.1397
  169SAPE  H19R19125   3.762   1.361   8.570  3.0147 -0.2827 -0.6075
  169SAPE  H19S19126   3.647   1.428   8.449 -0.7917  0.5642  0.7884
  169SAPE  C22019127   3.859   1.420   8.387 -0.1368  0.2619  0.1196
  169SAPE  H20R19128   3.851   1.410   8.277 -1.0304 -1.9466  0.3250
  169SAPE  H20S19129   3.946   1.355   8.411  1.1101  1.9388  0.3655
  169SAPE  H20T19130   3.882   1.518   8.435 -1.1515  0.2219  0.7210
  169SAPE   C3319131   4.287   0.396   7.361  0.5076  0.5539  0.0755
  169SAPE   H3X19132   4.343   0.491   7.351 -0.0513  0.6833 -2.5640
  169SAPE   H3Y19133   4.347   0.304   7.374  1.3167  0.8214 -1.5103
  169SAPE   C3419134   4.219   0.402   7.499  0.5851 -0.0326  0.1647
  169SAPE   H4X19135   4.167   0.304   7.506  1.2253 -0.3539  0.5356
  169SAPE   H4Y19136   4.143   0.484   7.500 -1.5876 -1.9349  0.0831
  169SAPE   C3519137   4.318   0.415   7.616 -0.2037 -0.3980 -0.4354
  169SAPE   H5X19138   4.379   0.505   7.593 -2.0215  1.3099  1.1145
  169SAPE   H5Y19139   4.393   0.333   7.609 -0.1322 -0.2432 -1.6079
  169SAPE   C3619140   4.250   0.430   7.755 -0.4692 -0.1357  0.3396
  169SAPE   H6X19141   4.177   0.512   7.740 -0.4604  0.0830  1.4300
  169SAPE   H6Y19142   4.330   0.454   7.828 -0.6158 -2.7149  1.4416
  169SAPE   C3719143   4.187   0.299   7.803 -0.0107  0.0683  0.0250
  169SAPE   H7X19144   4.266   0.223   7.821 -0.3835 -0.7233 -1.4536
  169SAPE   H7Y19145   4.131   0.249   7.720 -1.3963 -0.4598  1.2350
  169SAPE   C3819146   4.096   0.309   7.924  0.0422  0.0259 -0.4472
  169SAPE   H8X19147   4.031   0.221   7.943  1.5005 -1.5107 -2.1874
  169SAPE   H8Y19148   4.017   0.387   7.912 -2.3387 -1.9638  1.1616
  169SAPE   C3919149   4.168   0.348   8.058 -1.1327  0.7473  0.6725
  169SAPE   H9X19150   4.094   0.342   8.140  0.8282  1.2536  2.5728
  169SAPE   H9Y19151   4.214   0.449   8.051  0.5761  0.0795  1.6054
  169SAPE  C31019152   4.268   0.234   8.098 -0.3604  0.2460 -0.4482
  169SAPE  H10X19153   4.328   0.274   8.182 -2.8811  1.9519  0.6569
  169SAPE  H10Y19154   4.349   0.222   8.022  0.6795 -2.3550  0.9500
  169SAPE  C31119155   4.216   0.095   8.141 -0.3448  0.1443 -0.3601
  169SAPE  H11X19156   4.182   0.059   8.041 -2.6278  0.6408  0.1846
  169SAPE  H11Y19157   4.129   0.090   8.210  1.6438 -3.5438  2.2711
  169SAPE  C31219158   4.328  -0.001   8.181  0.0975  1.2215  0.0053
  169SAPE  H12X19159   4.413   0.017   8.111 -0.5914  1.6622 -0.7405
  169SAPE  H12Y19160   4.291  -0.106   8.176  1.7593  0.5424  1.2850
  169SAPE  C31319161   4.377   0.018   8.330  0.0485 -0.0068 -0.1760
  169SAPE  H13X19162   4.293   0.015   8.402 -0.5791  1.1318 -0.8247
  169SAPE  H13Y19163   4.407   0.124   8.346  0.3815  0.0787 -1.2789
  169SAPE  C31419164   4.482  -0.078   8.361  0.3646  0.3598 -0.1297
  169SAPE  H14X19165   4.554  -0.082   8.276 -2.4733  1.1419 -2.7313
  169SAPE  H14Y19166   4.460  -0.186   8.380  3.1030 -0.0202  1.3294
  169SAPE  C31519167   4.574  -0.036   8.480 -0.9411  0.2021  0.4954
  169SAPE  H15X19168   4.505  -0.002   8.559 -1.0595 -0.7977  0.8372
  169SAPE  H15Y19169   4.650   0.043   8.461 -1.1002  0.6570  1.7066
  169SAPE  C31619170   4.670  -0.146   8.539 -0.7079  0.1383  1.0994
  169SAPE  H16X19171   4.754  -0.150   8.467 -1.9144 -1.0275 -0.3207
  169SAPE  H16Y19172   4.611  -0.240   8.545  0.1333 -0.4690  0.0045
  169SAPE  C31719173   4.729  -0.104   8.673 -0.2674 -0.2822 -0.8510
  169SAPE  H17X19174   4.646  -0.103   8.747  1.3541  0.6229  1.0454
  169SAPE  H17Y19175   4.779  -0.005   8.667  0.2270 -0.3876  1.0981
  169SAPE  C31819176   4.834  -0.208   8.707 -0.0845 -0.2167  0.1845
  169SAPE  H18X19177   4.788  -0.307   8.726 -1.0640  0.2768  0.4460
  169SAPE  H18Y19178   4.889  -0.176   8.798  1.2262  0.7241 -0.8881
  169SAPE  H18Z19179   4.898  -0.193   8.617 -0.3837 -0.5839 -0.0918
  170SAPE     N19180   2.440   4.991   6.323  0.3375 -0.1622 -0.0376
  170SAPE   HN119181   2.470   5.066   6.388 -2.3079  2.3791 -1.5413
  170SAPE   HN219182   2.381   5.051   6.263 -1.3048 -0.3177  1.3609
  170SAPE   HN319183   2.386   4.915   6.369  4.3058 -1.8222  2.3955
  170SAPE   C1219184   2.550   4.953   6.224  0.7232 -0.1498 -0.4137
  170SAPE  H12A19185   2.637   5.019   6.245  0.9761 -0.1680 -1.3658
  170SAPE  H12B19186   2.511   4.974   6.123  1.2964 -0.6234 -0.7422
  170SAPE   C1119187   2.608   4.813   6.241 -0.0041  0.7636 -0.0706
  170SAPE  H11A19188   2.648   4.821   6.344  2.2334 -0.7827 -0.7522
  170SAPE  H11B19189   2.688   4.788   6.168  1.6634  1.4483  1.4694
  170SAPE     P19190   2.532   4.565   6.274 -0.0799 -0.1727  0.2551
  170SAPE   O1319191   2.460   4.540   6.401 -0.1748 -0.0562  0.3335
  170SAPE   O1419192   2.499   4.483   6.158  0.1492 -0.2742 -0.1418
  170SAPE   O1219193   2.500   4.721   6.245  0.1590 -0.0927  0.7977
  170SAPE   O1119194   2.684   4.572   6.303 -0.0558  0.0203 -0.6085
  170SAPE    C119195   2.734   4.466   6.394 -0.1618  0.2329 -0.0867
  170SAPE    HA19196   2.660   4.391   6.428 -0.7579  0.2007 -1.3865
  170SAPE    HB19197   2.812   4.409   6.340 -0.5274  0.1969 -0.5870
  170SAPE    C219198   2.784   4.537   6.521 -0.6606  0.6824  0.1884
  170SAPE    HS19199   2.838   4.460   6.580  0.2649 -0.6148 -2.2433
  170SAPE   O2119200   2.678   4.577   6.609 -0.2706 -0.3186 -0.3432
  170SAPE   C2119201   2.617   4.481   6.676  0.2754 -0.1945 -0.2708
  170SAPE   O2219202   2.643   4.360   6.682 -0.1894  0.3515 -0.2121
  170SAPE   C2219203   2.500   4.546   6.754  0.4274  0.4006  0.1845
  170SAPE   H2R19204   2.535   4.646   6.789  3.3652 -0.3702 -0.2451
  170SAPE   H2S19205   2.414   4.541   6.684 -0.9733  0.4608  1.8314
  170SAPE    C319206   2.880   4.659   6.488 -0.8506  0.9081  0.1728
  170SAPE    HX19207   2.834   4.759   6.476  1.8331  2.0925 -1.3832
  170SAPE    HY19208   2.922   4.642   6.386 -1.9614 -2.3635  0.1512
  170SAPE   O3119209   2.985   4.672   6.581  0.1223  0.6723  0.6844
  170SAPE   C3119210   3.099   4.613   6.560 -0.1029 -0.8265  0.2825
  170SAPE   O3219211   3.132   4.546   6.460  0.4838 -0.2519 -0.0674
  170SAPE   C3219212   3.188   4.638   6.680  0.1236  0.4809 -0.4688
  170SAPE   H2X19213   3.119   4.631   6.767  0.8409  0.9175  0.1495
  170SAPE   H2Y19214   3.229   4.741   6.676  0.8852  0.1947 -0.1969
  170SAPE   C2319215   2.464   4.466   6.884 -0.4233 -0.4960 -0.1525
  170SAPE   H3R19216   2.459   4.357   6.861  1.1529 -0.7189  0.4553
  170SAPE   H3S19217   2.370   4.508   6.925  0.2283  0.7821  0.0850
  170SAPE   C2419218   2.562   4.486   7.001 -0.0693  0.5063  0.1961
  170SAPE   H4R19219   2.572   4.595   7.019 -0.3846  0.7283 -0.8871
  170SAPE   H4S19220   2.664   4.450   6.973 -0.7059 -1.6976  0.5103
  170SAPE   C2519221   2.506   4.402   7.114  0.2521 -0.7006  0.8946
  170SAPE   H5R19222   2.472   4.302   7.081  1.5374 -0.9438  0.2526
  170SAPE   C2619223   2.459   4.450   7.231 -0.1710 -0.0380  0.4976
  170SAPE   H6R19224   2.414   4.378   7.300  2.6965 -0.5859  1.9187
  170SAPE   C2719225   2.463   4.590   7.290  0.2808  1.1236  0.0917
  170SAPE   H7R19226   2.468   4.659   7.203  2.5463  0.6200 -0.2512
  170SAPE   H7S19227   2.567   4.602   7.327  1.3316  0.2186 -2.3290
  170SAPE   C2819228   2.352   4.628   7.387 -0.2552  0.2400 -0.0992
  170SAPE   H8R19229   2.252   4.603   7.349  0.8414 -1.1874 -2.2149
  170SAPE   C2919230   2.374   4.673   7.514 -0.4219 -0.5380  0.1373
  170SAPE   H9R19231   2.286   4.713   7.567 -0.5607  0.4115 -0.7753
  170SAPE  C21019232   2.511   4.696   7.572 -0.2430  0.4331  0.2937
  170SAPE  H10R19233   2.516   4.801   7.608  1.4118  0.2229  0.7757
  170SAPE  H10S19234   2.598   4.690   7.503  0.2321 -1.3978  0.9749
  170SAPE  C21119235   2.528   4.594   7.684 -0.9229  0.1054  0.2495
  170SAPE  H11R19236   2.522   4.487   7.661  1.5935 -0.0436 -0.0141
  170SAPE  C21219237   2.536   4.629   7.815 -0.2350  0.1280  0.0066
  170SAPE  H12R19238   2.543   4.545   7.885 -2.3931 -0.8623 -0.8565
  170SAPE  C21319239   2.540   4.763   7.881 -0.1805 -0.2108 -0.3311
  170SAPE  H13R19240   2.489   4.840   7.820 -1.0535  0.2670  0.9445
  170SAPE  H13S19241   2.644   4.801   7.875  0.2954 -1.0847  1.4979
  170SAPE  C21419242   2.490   4.764   8.023 -0.0832  0.3479  0.6648
  170SAPE  H14R19243   2.384   4.738   8.037 -0.0274  0.0042  0.4377
  170SAPE  C21519244   2.565   4.788   8.129  0.0339  0.0383 -1.2611
  170SAPE  H15R19245   2.511   4.778   8.225 -0.8592 -0.0664 -1.7619
  170SAPE  C21619246   2.714   4.826   8.137  0.9674  1.0638  0.1656
  170SAPE  H16R19247   2.765   4.824   8.038 -0.9372  0.0385 -0.8462
  170SAPE  H16S19248   2.759   4.744   8.196 -0.4052  0.9147  1.0465
  170SAPE  C21719249   2.740   4.958   8.205 -0.9453 -0.1573 -0.5063
  170SAPE  H17R19250   2.707   5.051   8.154  0.7396  0.6864 -0.1230
  170SAPE  H17S19251   2.850   4.968   8.208 -1.0398  0.6233  1.3154
  170SAPE  C21819252   2.698   4.966   8.352  0.8272 -0.0694 -0.6287
  170SAPE  H18R19253   2.591   4.941   8.341  0.7985 -0.2722  0.1061
  170SAPE  H18S19254   2.699   5.071   8.391  1.0629  0.0958 -1.0679
  170SAPE  C21919255   2.775   4.867   8.449  0.2826 -0.1549 -0.3109
  170SAPE  H19R19256   2.757   4.763   8.415 -2.6021 -0.1438  0.9275
  170SAPE  H19S19257   2.725   4.874   8.548  0.4100  1.6444 -0.3330
  170SAPE  C22019258   2.925   4.889   8.458 -0.0252  0.2440  0.1937
  170SAPE  H20R19259   2.941   4.999   8.466 -1.2351  0.5360 -0.9617
  170SAPE  H20S19260   2.981   4.852   8.370 -1.4203 -1.4362 -0.0221
  170SAPE  H20T19261   2.956   4.833   8.549 -0.4115  0.2288  0.3160
  170SAPE   C3319262   3.305   4.540   6.705 -0.5210  0.2934 -0.3124
  170SAPE   H3X19263   3.371   4.540   6.616 -0.8326 -0.6415 -0.5554
  170SAPE   H3Y19264   3.262   4.439   6.722 -0.4700  0.3536  0.1986
  170SAPE   C3419265   3.387   4.577   6.828 -0.0045 -0.2239 -0.2912
  170SAPE   H4X19266   3.431   4.675   6.802 -0.7222 -0.4164 -2.4133
  170SAPE   H4Y19267   3.474   4.510   6.839  1.5495  2.0367  2.4563
  170SAPE   C3519268   3.310   4.587   6.963  0.2571 -0.2146  0.6345
  170SAPE   H5X19269   3.225   4.515   6.960  1.3101 -1.4886 -2.0401
  170SAPE   H5Y19270   3.257   4.684   6.956  1.2203  0.4646  2.3076
  170SAPE   C3619271   3.395   4.578   7.086 -0.4117  0.5997 -0.0408
  170SAPE   H6X19272   3.487   4.637   7.068 -0.2461 -0.5268 -3.9704
  170SAPE   H6Y19273   3.425   4.476   7.119  0.0391  0.8664  0.3649
  170SAPE   C3719274   3.324   4.623   7.213  0.0475  0.1115 -0.3691
  170SAPE   H7X19275   3.230   4.570   7.240 -0.2195  1.3345  1.2513
  170SAPE   H7Y19276   3.299   4.730   7.201 -0.7895 -0.0102  0.2137
  170SAPE   C3819277   3.422   4.627   7.332  0.7084  0.0016 -0.4051
  170SAPE   H8X19278   3.498   4.702   7.301  2.4484 -0.6873  1.8757
  170SAPE   H8Y19279   3.473   4.529   7.331  0.3436 -0.1852 -1.0532
  170SAPE   C3919280   3.343   4.644   7.469 -0.1050  0.0233  0.2144
  170SAPE   H9X19281   3.274   4.557   7.482  1.6211 -1.6547 -1.2507
  170SAPE   H9Y19282   3.284   4.736   7.448 -0.4469 -0.3048 -0.3011
  170SAPE  C31019283   3.441   4.654   7.591 -0.6078  0.3649  0.7091
  170SAPE  H10X19284   3.501   4.747   7.593 -0.7595  0.6994 -3.1843
  170SAPE  H10Y19285   3.512   4.569   7.597  1.0414  1.7333  1.2290
  170SAPE  C31119286   3.368   4.648   7.728  0.5076 -0.1850 -0.9338
  170SAPE  H11X19287   3.336   4.543   7.746  0.6284 -0.1454 -0.4778
  170SAPE  H11Y19288   3.272   4.702   7.715  2.1105  2.5493 -2.1188
  170SAPE  C31219289   3.441   4.707   7.854 -0.1324  0.6228  0.0670
  170SAPE  H12X19290   3.470   4.813   7.839 -1.0094  0.7997 -0.4808
  170SAPE  H12Y19291   3.534   4.649   7.872 -1.5247 -1.1447  2.1615
  170SAPE  C31319292   3.370   4.689   7.992 -0.8321  0.4844 -0.1219
  170SAPE  H13X19293   3.446   4.712   8.069 -1.0360 -0.3770  0.3425
  170SAPE  H13Y19294   3.331   4.588   8.016 -0.9756  0.3674 -0.8223
  170SAPE  C31419295   3.255   4.788   8.007  0.9329 -0.9798 -0.3582
  170SAPE  H14X19296   3.197   4.778   7.913  0.5384 -0.4863 -0.1721
  170SAPE  H14Y19297   3.302   4.888   8.019 -2.0653  0.5599 -0.3531
  170SAPE  C31519298   3.163   4.765   8.131  0.5965 -0.4955  0.1433
  170SAPE  H15X19299   3.125   4.662   8.115  1.7917 -0.8171 -0.7672
  170SAPE  H15Y19300   3.080   4.839   8.124  0.0714 -0.8746  1.9239
  170SAPE  C31619301   3.243   4.779   8.263  0.0849  0.1455 -0.2130
  170SAPE  H16X19302   3.312   4.692   8.270 -1.2333 -0.8286  2.3687
  170SAPE  H16Y19303   3.178   4.770   8.353 -1.5922  2.2316 -1.1270
  170SAPE  C31719304   3.323   4.918   8.296  0.0112  0.0585 -0.2680
  170SAPE  H17X19305   3.254   4.999   8.265 -1.4055 -1.7923 -2.3401
  170SAPE  H17Y19306   3.411   4.933   8.231  0.5223  2.1334  0.8381
  170SAPE  C31819307   3.368   4.935   8.442  0.2428 -1.0423 -0.4126
  170SAPE  H18X19308   3.284   4.916   8.511  0.4329 -0.5237 -0.0293
  170SAPE  H18Y19309   3.407   5.039   8.447  0.7509 -1.2575  0.2782
  170SAPE  H18Z19310   3.447   4.863   8.473 -0.4850 -0.7258  2.3773
  171SAPE     N19311   6.704   0.200   6.384  0.0541  0.2491  0.0013
  171SAPE   HN119312   6.704   0.303   6.399  0.1723  0.7639 -3.0208
  171SAPE   HN219313   6.803   0.170   6.368 -0.1923 -1.7552  1.7807
  171SAPE   HN319314   6.645   0.178   6.302  0.1525 -0.4661  0.1190
  171SAPE   C1219315   6.644   0.133   6.508  0.5225  0.5405 -0.1870
  171SAPE  H12A19316   6.708   0.159   6.595 -0.0341 -1.3661  0.8374
  171SAPE  H12B19317   6.657   0.026   6.481  2.9009  0.7121  0.0013
  171SAPE   C1119318   6.494   0.168   6.535  0.4436 -0.0165 -0.1332
  171SAPE  H11A19319   6.493   0.278   6.554  0.9009  0.3512 -2.0047
  171SAPE  H11B19320   6.467   0.124   6.633  1.4956  1.2096  0.7398
  171SAPE     P19321   6.348  -0.001   6.404  0.1438 -0.2170  0.0548
  171SAPE   O1319322   6.294  -0.032   6.264 -0.2615 -0.3863 -0.0431
  171SAPE   O1419323   6.444  -0.105   6.448 -0.0824 -0.2173  0.2553
  171SAPE   O1219324   6.407   0.148   6.424  0.1516  0.1444 -0.5542
  171SAPE   O1119325   6.220  -0.004   6.503 -0.3123 -0.1042  0.2255
  171SAPE    C119326   6.131   0.111   6.507 -0.7507  0.6282 -0.1764
  171SAPE    HA19327   6.155   0.187   6.429 -4.2151 -0.1805 -2.2675
  171SAPE    HB19328   6.025   0.081   6.492 -1.1678  1.4822  0.9224
  171SAPE    C219329   6.138   0.176   6.646  0.2172  0.4051  0.4457
  171SAPE    HS19330   6.239   0.214   6.674  1.4393 -3.7777  2.5995
  171SAPE   O2119331   6.076   0.094   6.742 -0.7323  0.2224 -0.2219
  171SAPE   C2119332   6.165   0.021   6.811 -0.3485  0.8330  0.5766
  171SAPE   O2219333   6.287   0.045   6.816  0.0880 -0.4027  0.3538
  171SAPE   C2219334   6.090  -0.076   6.906  1.0352  0.1475 -0.2209
  171SAPE   H2R19335   5.986  -0.037   6.916 -0.2154 -2.5046 -1.6673
  171SAPE   H2S19336   6.089  -0.168   6.844  2.9853  1.0376 -1.6841
  171SAPE    C319337   6.042   0.304   6.620  0.0081  0.0069  0.2655
  171SAPE    HX19338   5.947   0.270   6.574  0.9800 -4.3779  1.0222
  171SAPE    HY19339   6.092   0.380   6.557  2.9944  0.5612  3.0495
  171SAPE   O3119340   6.028   0.370   6.746  0.3287 -0.3692 -0.3075
  171SAPE   C3119341   5.922   0.333   6.817 -0.3508 -0.3864 -0.4002
  171SAPE   O3219342   5.834   0.260   6.778 -0.6729  0.3131  0.0887
  171SAPE   C3219343   5.937   0.376   6.963  0.0127 -0.3869 -1.3278
  171SAPE   H2X19344   5.980   0.478   6.977 -1.5984  0.0843  0.6877
  171SAPE   H2Y19345   5.997   0.303   7.021 -2.2008  1.0723  3.2717
  171SAPE   C2319346   6.161  -0.090   7.046 -0.1880  0.3785 -0.2901
  171SAPE   H3R19347   6.271  -0.097   7.034 -0.1196  2.3945 -1.3583
  171SAPE   H3S19348   6.111  -0.178   7.091  0.8653  0.4794  1.1527
  171SAPE   C2419349   6.113   0.024   7.134 -0.0791 -0.4451  0.2543
  171SAPE   H4R19350   6.003   0.029   7.145 -0.3875 -0.6849 -2.1430
  171SAPE   H4S19351   6.151   0.123   7.102  2.4302 -1.2208  0.5945
  171SAPE   C2519352   6.166   0.002   7.273 -0.5389 -0.2942  0.8314
  171SAPE   H5R19353   6.274   0.017   7.288 -0.5665 -0.1562  0.8947
  171SAPE   C2619354   6.102  -0.027   7.386  0.3697  0.4916 -0.2222
  171SAPE   H6R19355   6.156  -0.045   7.480 -0.8291  1.6506  0.7294
  171SAPE   C2719356   5.951  -0.056   7.403 -0.5051 -0.7520  0.0995
  171SAPE   H7R19357   5.914  -0.074   7.300 -0.3845 -0.8182  0.0663
  171SAPE   H7S19358   5.914   0.046   7.423  1.5377 -0.1480  1.1354
  171SAPE   C2819359   5.898  -0.146   7.504  0.2306  0.3038 -0.2468
  171SAPE   H8R19360   5.901  -0.255   7.487 -3.2254 -0.3189  2.0354
  171SAPE   C2919361   5.855  -0.113   7.624  0.4889  0.9760 -0.1190
  171SAPE   H9R19362   5.821  -0.191   7.693 -0.9921 -0.4442 -2.3222
  171SAPE  C21019363   5.849   0.026   7.683 -0.6971 -0.1402  0.2475
  171SAPE  H10R19364   5.792   0.088   7.610  0.1730  0.1744 -0.1795
  171SAPE  H10S19365   5.953   0.064   7.686 -0.8531  0.3193  0.0218
  171SAPE  C21119366   5.785   0.049   7.824  0.3598  0.0836  0.2376
  171SAPE  H11R19367   5.676   0.044   7.829  0.2308  1.8430 -0.1310
  171SAPE  C21219368   5.859   0.054   7.941  0.1323 -0.1173 -0.2142
  171SAPE  H12R19369   5.807   0.067   8.037  1.1904 -0.9735  0.4941
  171SAPE  C21319370   6.009   0.058   7.955  0.2694  0.5280  0.3443
  171SAPE  H13R19371   6.027   0.150   8.014  0.3873  0.5787  0.2291
  171SAPE  H13S19372   6.061   0.074   7.858 -1.3277  0.6726 -0.5130
  171SAPE  C21419373   6.057  -0.076   8.018 -0.0080  0.3179  0.0359
  171SAPE  H14R19374   6.003  -0.164   7.981  3.6668 -1.8025 -0.7371
  171SAPE  C21519375   6.156  -0.096   8.105 -0.3001 -0.2551 -1.1130
  171SAPE  H15R19376   6.183  -0.196   8.140  2.0648  1.5266  2.8397
  171SAPE  C21619377   6.232   0.018   8.163 -0.1250 -0.2222  0.3308
  171SAPE  H16R19378   6.175   0.113   8.162  1.8330  1.0500  1.7693
  171SAPE  H16S19379   6.324   0.042   8.106  0.4147 -2.0781  0.3572
  171SAPE  C21719380   6.269  -0.004   8.309 -0.3495 -0.2208 -0.7990
  171SAPE  H17R19381   6.187  -0.047   8.371  1.6204  1.1952  3.1703
  171SAPE  H17S19382   6.307   0.088   8.358 -0.5648 -0.8179  0.5222
  171SAPE  C21819383   6.388  -0.102   8.342  0.3767 -0.1151  0.3746
  171SAPE  H18R19384   6.471  -0.060   8.282 -0.8420  0.0929 -1.2580
  171SAPE  H18S19385   6.365  -0.195   8.286 -1.3025  1.6713 -2.1222
  171SAPE  C21919386   6.434  -0.124   8.490  0.3472  0.0608  0.2085
  171SAPE  H19R19387   6.334  -0.133   8.537 -1.1282 -0.3973 -2.7870
  171SAPE  H19S19388   6.467  -0.026   8.532  0.2718 -0.0889  0.6205
  171SAPE  C22019389   6.531  -0.240   8.497  0.5092  1.0562  0.8507
  171SAPE  H20R19390   6.569  -0.246   8.601 -0.5130 -0.1325  1.1709
  171SAPE  H20S19391   6.607  -0.230   8.416 -1.2784 -0.8993 -1.1924
  171SAPE  H20T19392   6.475  -0.333   8.475 -1.9688  2.7333 -0.3816
  171SAPE   C3319393   5.798   0.370   7.038 -0.4346 -0.2711  0.2467
  171SAPE   H3X19394   5.757   0.267   7.030 -1.4337  0.2047 -1.0620
  171SAPE   H3Y19395   5.716   0.430   6.995 -1.5915 -0.5974  1.9063
  171SAPE   C3419396   5.813   0.400   7.192 -0.1455 -0.3247  0.2949
  171SAPE   H4X19397   5.870   0.495   7.200 -1.6124  0.5814  0.3961
  171SAPE   H4Y19398   5.871   0.318   7.239 -1.9247 -1.0783  1.2687
  171SAPE   C3519399   5.684   0.422   7.271  0.5999 -0.0073  0.0673
  171SAPE   H5X19400   5.606   0.346   7.249 -1.5388  1.1561  2.9962
  171SAPE   H5Y19401   5.639   0.519   7.243 -3.2685 -1.5656  0.2026
  171SAPE   C3619402   5.707   0.416   7.431 -0.8576 -0.2066  0.4389
  171SAPE   H6X19403   5.801   0.475   7.439  0.5219 -2.1390 -0.4559
  171SAPE   H6Y19404   5.716   0.313   7.471 -1.3345  0.2639  1.8240
  171SAPE   C3719405   5.595   0.474   7.522  0.0778 -0.1693  0.0671
  171SAPE   H7X19406   5.490   0.441   7.507  0.0750  0.3529 -1.1794
  171SAPE   H7Y19407   5.584   0.578   7.486 -0.0197 -0.6000 -1.2119
  171SAPE   C3819408   5.625   0.474   7.670 -0.1804  0.5097  0.3623
  171SAPE   H8X19409   5.611   0.369   7.704  1.4021  0.1163 -0.1180
  171SAPE   H8Y19410   5.543   0.535   7.713  0.6432  1.4930  0.5722
  171SAPE   C3919411   5.763   0.525   7.709  0.0627 -0.0998 -0.8937
  171SAPE   H9X19412   5.774   0.618   7.650  0.9776 -0.5301 -1.4356
  171SAPE   H9Y19413   5.840   0.459   7.663 -0.5335 -1.2520 -0.2663
  171SAPE  C31019414   5.788   0.545   7.855  0.3614  0.5691 -0.9314
  171SAPE  H10X19415   5.711   0.616   7.894  0.4707  1.1413 -1.7215
  171SAPE  H10Y19416   5.889   0.587   7.873  1.9588 -3.0840 -0.5762
  171SAPE  C31119417   5.787   0.412   7.939  0.3800  0.1396 -0.1131
  171SAPE  H11X19418   5.861   0.339   7.900  0.6972  1.1369 -1.4368
  171SAPE  H11Y19419   5.691   0.356   7.932 -0.0568  0.7590  0.6927
  171SAPE  C31219420   5.810   0.437   8.092  0.3049  0.2842  0.2020
  171SAPE  H12X19421   5.909   0.485   8.106 -0.3203  2.3481 -1.9634
  171SAPE  H12Y19422   5.808   0.337   8.142 -1.5453 -0.0326 -0.4188
  171SAPE  C31319423   5.699   0.520   8.157 -0.0719 -0.1349  0.3313
  171SAPE  H13X19424   5.601   0.487   8.117 -0.9237  1.8880  0.6107
  171SAPE  H13Y19425   5.728   0.624   8.129 -0.5846  0.1788  0.9447
  171SAPE  C31419426   5.679   0.523   8.307 -0.4572  0.9395 -0.5113
  171SAPE  H14X19427   5.661   0.426   8.358 -1.1863  1.1461 -0.3641
  171SAPE  H14Y19428   5.593   0.591   8.327 -2.5950 -1.6950 -0.0844
  171SAPE  C31519429   5.809   0.576   8.372  1.1115 -0.7675  0.7417
  171SAPE  H15X19430   5.836   0.679   8.340  0.5741 -0.5406  0.9988
  171SAPE  H15Y19431   5.894   0.512   8.340  2.4405  0.2527  2.0901
  171SAPE  C31619432   5.801   0.571   8.525 -0.0829  0.5572 -0.2325
  171SAPE  H16X19433   5.909   0.581   8.553  0.7704 -0.4791 -2.8707
  171SAPE  H16Y19434   5.766   0.469   8.551  1.1690  0.5353  1.5818
  171SAPE  C31719435   5.715   0.685   8.583  0.3222  0.0247 -0.3139
  171SAPE  H17X19436   5.704   0.685   8.694 -3.7626  1.0255 -0.5428
  171SAPE  H17Y19437   5.608   0.678   8.552 -0.4493  0.3519  2.0419
  171SAPE  C31819438   5.769   0.823   8.559  0.6392  0.1020  0.4412
  171SAPE  H18X19439   5.765   0.854   8.452  0.8816  1.4315  0.8005
  171SAPE  H18Y19440   5.872   0.841   8.597  1.1815 -0.1462 -0.8470
  171SAPE  H18Z19441   5.702   0.895   8.611  1.2562  0.4500  0.7687
  172SAPE     N19442   3.735   4.663   6.227 -0.3589  1.1635 -0.4015
  172SAPE   HN119443   3.710   4.587   6.160 -1.6875  0.0142  1.2958
  172SAPE   HN219444   3.832   4.644   6.259 -0.5115 -2.3285 -1.5789
  172SAPE   HN319445   3.683   4.650   6.316  0.2955  1.1329 -0.0220
  172SAPE   C1219446   3.711   4.810   6.200  0.6008 -0.3129 -0.6559
  172SAPE  H12A19447   3.606   4.818   6.165  0.6294 -1.0934 -0.9486
  172SAPE  H12B19448   3.779   4.835   6.116  2.3546 -0.2450  0.7454
  172SAPE   C1119449   3.746   4.897   6.320  0.3950  0.8106 -0.5881
  172SAPE  H11A19450   3.758   5.001   6.283 -2.6113  1.3982 -0.1264
  172SAPE  H11B19451   3.829   4.860   6.383 -0.3595 -1.9514 -1.0934
  172SAPE     P19452   3.600   4.817   6.533 -0.1452 -0.0455  0.2095
  172SAPE   O1319453   3.469   4.850   6.590  0.0230  0.5094  0.1312
  172SAPE   O1419454   3.623   4.682   6.474 -0.3976 -0.4357  0.6852
  172SAPE   O1219455   3.632   4.909   6.416 -0.5491  0.1992  0.6106
  172SAPE   O1119456   3.718   4.869   6.630 -0.1792 -0.1060 -0.0917
  172SAPE    C119457   3.733   5.003   6.668 -0.0570  0.3231  0.1786
  172SAPE    HA19458   3.811   5.052   6.605  0.0231  0.3355  0.2880
  172SAPE    HB19459   3.639   5.061   6.664 -0.2581  0.1970  2.1538
  172SAPE    C219460   3.762   5.023   6.824  0.9004 -0.0601  0.6919
  172SAPE    HS19461   3.789   5.128   6.849  0.3365 -0.5950  3.9914
  172SAPE   O2119462   3.867   4.935   6.874  0.4563 -0.2421  0.1790
  172SAPE   C2119463   3.987   4.972   6.834 -0.2012 -0.0429  0.3429
  172SAPE   O2219464   4.017   5.055   6.756 -0.7338 -0.4452 -0.1345
  172SAPE   C2219465   4.089   4.868   6.896  0.6212  0.3950 -1.2487
  172SAPE   H2R19466   4.030   4.805   6.966 -0.3291  0.5974 -1.8404
  172SAPE   H2S19467   4.138   4.815   6.812 -0.7651 -0.0988 -1.7733
  172SAPE    C319468   3.636   4.984   6.906  0.2004  0.3154  0.5070
  172SAPE    HX19469   3.599   4.885   6.873  1.6047  0.2880 -1.0902
  172SAPE    HY19470   3.561   5.059   6.873 -1.8574 -1.9565 -0.2267
  172SAPE   O3119471   3.667   4.995   7.046  0.2706  0.2398 -0.3810
  172SAPE   C3119472   3.699   4.888   7.109 -0.0991 -0.0635 -0.5576
  172SAPE   O3219473   3.721   4.778   7.065  0.9702 -0.3399  0.0314
  172SAPE   C3219474   3.728   4.926   7.253 -0.0656  0.4271  0.0270
  172SAPE   H2X19475   3.636   4.965   7.301 -0.1019  1.7826 -1.1201
  172SAPE   H2Y19476   3.805   5.005   7.244 -0.9229  1.2065 -0.5413
  172SAPE   C2319477   4.188   4.940   6.988 -0.4838  0.1083  0.2982
  172SAPE   H3R19478   4.143   5.021   7.049  0.2773  1.3657 -0.7729
  172SAPE   H3S19479   4.272   4.988   6.933 -0.3843  0.3891  0.6938
  172SAPE   C2419480   4.255   4.843   7.083 -0.2351 -0.0196  0.2168
  172SAPE   H4R19481   4.350   4.881   7.126 -0.5179  0.7944  0.1495
  172SAPE   H4S19482   4.295   4.764   7.016  0.8485  0.7195 -0.0258
  172SAPE   C2519483   4.178   4.781   7.196 -0.3390 -0.7594  0.1803
  172SAPE   H5R19484   4.086   4.727   7.167 -0.0437 -2.8362  2.7743
  172SAPE   C2619485   4.210   4.788   7.328 -0.0382  0.2552 -0.4927
  172SAPE   H6R19486   4.134   4.748   7.396  2.5267 -1.3510  1.6158
  172SAPE   C2719487   4.324   4.860   7.402  0.4003  0.4087  0.1406
  172SAPE   H7R19488   4.291   4.933   7.479  0.7508  0.6813  0.0386
  172SAPE   H7S19489   4.382   4.930   7.338  0.5251 -0.5722 -0.8485
  172SAPE   C2819490   4.421   4.765   7.461 -0.5281  0.3477  0.2279
  172SAPE   H8R19491   4.488   4.709   7.393  0.3746  0.4969  0.9664
  172SAPE   C2919492   4.442   4.735   7.586 -0.4522 -0.1346 -0.2834
  172SAPE   H9R19493   4.510   4.653   7.615 -2.2722 -2.1141 -1.4005
  172SAPE  C21019494   4.373   4.790   7.709  0.0738  0.6089 -0.8151
  172SAPE  H10R19495   4.339   4.710   7.778  0.6031  0.8222 -0.3067
  172SAPE  H10S19496   4.280   4.848   7.688 -2.3928 -3.0470 -0.9616
  172SAPE  C21119497   4.476   4.875   7.786 -0.2828  0.5704  0.1682
  172SAPE  H11R19498   4.494   4.971   7.735  1.7080 -0.7865 -1.8626
  172SAPE  C21219499   4.546   4.859   7.897 -0.7557  0.3875 -0.0205
  172SAPE  H12R19500   4.618   4.935   7.932 -0.4352  0.2158 -0.3024
  172SAPE  C21319501   4.536   4.734   7.986  0.1163 -0.6767  0.6021
  172SAPE  H13R19502   4.642   4.715   8.013  0.7795  0.9796 -0.6712
  172SAPE  H13S19503   4.490   4.650   7.929 -0.6763  1.3707 -1.9742
  172SAPE  C21419504   4.460   4.743   8.107  0.0768  0.2500 -0.3744
  172SAPE  H14R19505   4.352   4.732   8.087 -0.1795 -0.9923  1.4502
  172SAPE  C21519506   4.506   4.747   8.237  0.3273  0.0211  0.1162
  172SAPE  H15R19507   4.423   4.763   8.308 -0.9473 -2.8383 -0.5570
  172SAPE  C21619508   4.651   4.755   8.281  0.2473 -0.2068 -0.7404
  172SAPE  H16R19509   4.676   4.852   8.329  0.0102 -0.0335 -0.9691
  172SAPE  H16S19510   4.727   4.739   8.202  1.1765 -1.3825  0.3354
  172SAPE  C21719511   4.675   4.639   8.385  0.3683  0.6210  0.1062
  172SAPE  H17R19512   4.593   4.645   8.460 -0.3513 -1.1123 -0.4808
  172SAPE  H17S19513   4.775   4.635   8.433  1.2405 -4.9452 -1.5081
  172SAPE  C21819514   4.671   4.500   8.317  0.9350 -0.5350 -0.0539
  172SAPE  H18R19515   4.719   4.508   8.217 -0.3997 -0.4282 -0.7008
  172SAPE  H18S19516   4.567   4.469   8.292  0.9257 -1.2191  0.7731
  172SAPE  C21919517   4.738   4.398   8.396  0.2492  0.2809 -0.0130
  172SAPE  H19R19518   4.842   4.423   8.428  1.2340  0.3810 -2.9751
  172SAPE  H19S19519   4.759   4.304   8.339  1.0623 -1.0613  2.3592
  172SAPE  C22019520   4.644   4.366   8.518 -0.6443 -0.6968 -0.0685
  172SAPE  H20R19521   4.544   4.349   8.472 -0.6490 -0.8048 -0.0174
  172SAPE  H20S19522   4.636   4.449   8.592  0.5281 -0.6828  0.0582
  172SAPE  H20T19523   4.671   4.275   8.575 -1.0723 -0.7198  0.0991
  172SAPE   C3319524   3.780   4.808   7.337  0.5733  0.4102 -0.4934
  172SAPE   H3X19525   3.861   4.748   7.290  2.4452  0.2891  2.6303
  172SAPE   H3Y19526   3.688   4.747   7.350 -1.0680  2.0910 -3.1918
  172SAPE   C3419527   3.833   4.844   7.479  0.9841  0.3214  1.3515
  172SAPE   H4X19528   3.760   4.908   7.532  0.3978  0.3964  0.4717
  172SAPE   H4Y19529   3.931   4.893   7.463  0.0723  1.0580 -3.1840
  172SAPE   C3519530   3.860   4.710   7.556 -0.3566 -0.2089 -0.0355
  172SAPE   H5X19531   3.921   4.651   7.484  1.2340  0.7264  0.4910
  172SAPE   H5Y19532   3.758   4.668   7.561 -0.2518 -0.3614  0.9719
  172SAPE   C3619533   3.922   4.723   7.693  0.3618 -0.1221 -0.3304
  172SAPE   H6X19534   4.031   4.738   7.676  0.6945 -0.5987  1.2380
  172SAPE   H6Y19535   3.925   4.621   7.737 -0.6866 -1.3896 -2.9851
  172SAPE   C3719536   3.857   4.826   7.784  1.0335  0.0647  0.7279
  172SAPE   H7X19537   3.757   4.799   7.823  1.1092  0.6440  1.3495
  172SAPE   H7Y19538   3.848   4.932   7.749  2.9880  0.3968  1.1028
  172SAPE   C3819539   3.951   4.834   7.907  0.3549  0.1303  0.5968
  172SAPE   H8X19540   4.054   4.845   7.867 -0.5402 -0.8228 -2.2850
  172SAPE   H8Y19541   3.941   4.735   7.957  1.3931  0.5398  1.6673
  172SAPE   C3919542   3.910   4.949   8.005 -0.8656  0.3056 -0.2258
  172SAPE   H9X19543   3.800   4.949   8.019 -0.7016  2.0751  1.5410
  172SAPE   H9Y19544   3.928   5.050   7.963 -0.0193 -0.7381 -2.4889
  172SAPE  C31019545   3.976   4.927   8.143  1.1195 -0.7718 -0.2784
  172SAPE  H10X19546   3.942   5.010   8.208 -2.1799 -1.1891 -1.3028
  172SAPE  H10Y19547   4.084   4.937   8.120  1.5418  0.8513  2.0678
  172SAPE  C31119548   3.954   4.803   8.224 -0.0375  0.1345 -0.1957
  172SAPE  H11X19549   4.002   4.815   8.324  0.4959 -1.1180 -0.2796
  172SAPE  H11Y19550   3.988   4.710   8.175  0.7077 -0.1172  0.7670
  172SAPE  C31219551   3.805   4.779   8.250  0.4111 -0.2503 -0.8450
  172SAPE  H12X19552   3.738   4.791   8.162 -2.1713  1.4286  1.1998
  172SAPE  H12Y19553   3.776   4.864   8.316 -0.0182 -1.0647  0.0411
  172SAPE  C31319554   3.770   4.655   8.336  0.8047  0.7642  0.0512
  172SAPE  H13X19555   3.814   4.562   8.295  0.8002  0.4617  0.7179
  172SAPE  H13Y19556   3.660   4.644   8.323  0.8773 -0.2739  0.2955
  172SAPE  C31419557   3.797   4.673   8.483  0.2229 -0.6613  0.9173
  172SAPE  H14X19558   3.773   4.780   8.501  1.3136 -0.0981 -0.7804
  172SAPE  H14Y19559   3.902   4.651   8.514  0.1216 -2.8585 -0.0853
  172SAPE  C31519560   3.700   4.585   8.556 -0.6481  0.5410 -0.6113
  172SAPE  H15X19561   3.723   4.482   8.520  1.9553  1.1576 -0.8735
  172SAPE  H15Y19562   3.598   4.627   8.543  0.0570  1.9575 -1.8485
  172SAPE  C31619563   3.710   4.573   8.714 -0.1574  0.0099  0.3671
  172SAPE  H16X19564   3.620   4.515   8.741 -1.3381  1.3690 -0.5370
  172SAPE  H16Y19565   3.716   4.676   8.755 -0.0438 -0.6192  1.9988
  172SAPE  C31719566   3.835   4.503   8.765 -0.1812  0.9090  0.2387
  172SAPE  H17X19567   3.921   4.565   8.731 -0.7879  0.0561 -3.2032
  172SAPE  H17Y19568   3.857   4.403   8.723  2.2846  1.2157  0.6281
  172SAPE  C31819569   3.842   4.487   8.919  0.4436 -0.4646  0.6051
  172SAPE  H18X19570   3.825   4.583   8.974  0.9042  1.5118 -2.4423
  172SAPE  H18Y19571   3.930   4.429   8.954 -0.9503 -0.6519  4.1964
  172SAPE  H18Z19572   3.763   4.420   8.958  1.2978 -1.4362  0.7123
  173SOPE     N19573   4.170   5.965  10.949 -0.1905 -0.4722 -0.4050
  173SOPE   HN119574   4.198   6.065  10.943 -0.4133 -0.4493 -1.2113
  173SOPE   HN219575   4.078   5.960  10.996  0.4597 -1.1978  0.8499
  173SOPE   HN319576   4.232   5.909  11.012 -0.6479 -2.2487 -1.4638
  173SOPE   C1219577   4.165   5.898  10.813  0.2845  0.9793  0.6952
  173SOPE  H12A19578   4.261   5.927  10.764  0.3922 -2.2775 -1.2761
  173SOPE  H12B19579   4.069   5.911  10.759 -0.7691 -1.9461  1.7046
  173SOPE   C1119580   4.173   5.737  10.824 -0.2561 -0.2653  0.0702
  173SOPE  H11A19581   4.192   5.694  10.723  1.9601  1.0043 -0.1365
  173SOPE  H11B19582   4.081   5.693  10.867 -1.3109  0.9276 -0.9020
  173SOPE     P19583   4.322   5.553  10.924  0.1074 -0.1607  0.3629
  173SOPE   O1319584   4.221   5.487  11.011 -0.0705  0.0556  0.2012
  173SOPE   O1419585   4.463   5.561  10.969  0.2813 -0.3885 -0.4598
  173SOPE   O1219586   4.278   5.707  10.915  0.7310 -0.0557  0.2188
  173SOPE   O1119587   4.316   5.490  10.780  0.3605  0.4878 -0.3664
  173SOPE    C119588   4.432   5.491  10.696  0.8582  0.9855 -0.2899
  173SOPE    HA19589   4.510   5.431  10.746 -1.5096  0.0450  2.6047
  173SOPE    HB19590   4.467   5.594  10.673 -1.9703  1.8466 -1.1990
  173SOPE    C219591   4.396   5.430  10.553  0.4427  0.2322  0.1909
  173SOPE    HS19592   4.486   5.436  10.488  1.2966  0.4114  1.3449
  173SOPE   O2119593   4.278   5.488  10.497 -0.0786 -0.3089 -0.2126
  173SOPE   C2119594   4.303   5.600  10.426  0.3422  0.0886  0.7323
  173SOPE   O2219595   4.411   5.658  10.427 -0.4948 -0.5724  0.0957
  173SOPE   C2219596   4.185   5.644  10.347  0.1118  0.5821 -0.3240
  173SOPE   H2R19597   4.218   5.741  10.305  0.6559  0.0561 -1.1329
  173SOPE   H2S19598   4.104   5.643  10.423 -0.0542 -1.9915 -0.4437
  173SOPE    C319599   4.369   5.283  10.576 -0.5347  0.0926 -0.0498
  173SOPE    HX19600   4.299   5.275  10.661  1.1103 -0.2112  1.3378
  173SOPE    HY19601   4.462   5.227  10.599  0.2933  1.5477  0.3019
  173SOPE   O3119602   4.311   5.225  10.462  0.3196  0.2325  0.2093
  173SOPE   C3119603   4.390   5.197  10.356 -0.0011 -0.8991 -0.5682
  173SOPE   O3219604   4.513   5.223  10.348  0.6779  0.0644 -0.0052
  173SOPE   C3219605   4.290   5.147  10.258 -1.0149  0.0669 -0.5622
  173SOPE   H2X19606   4.215   5.227  10.249  0.4139  1.8637  2.1587
  173SOPE   H2Y19607   4.244   5.050  10.287  1.0781 -0.3209  1.8439
  173SOPE   C2319608   4.154   5.550  10.231 -0.6263 -0.1485 -0.1516
  173SOPE   H3R19609   4.060   5.580  10.181 -1.5207  0.6291  1.8923
  173SOPE   H3S19610   4.134   5.448  10.269  0.5043 -0.4348 -0.2850
  173SOPE   C2419611   4.265   5.560  10.135  0.4481  0.8481 -0.1824
  173SOPE   H4R19612   4.281   5.669  10.119 -0.8286  1.4188  1.9951
  173SOPE   H4S19613   4.355   5.512  10.180  1.1132  1.6962 -0.5689
  173SOPE   C2519614   4.245   5.484  10.008 -0.1718  0.6480 -0.4270
  173SOPE   H5R19615   4.340   5.449   9.961 -0.6936  0.6359 -1.4999
  173SOPE   H5S19616   4.183   5.394  10.027  2.0161 -0.8887 -0.0902
  173SOPE   C2619617   4.171   5.569   9.911 -0.3169  0.2705  0.2540
  173SOPE   H6R19618   4.073   5.593   9.958  0.3395  0.4414  1.5627
  173SOPE   H6S19619   4.221   5.663   9.882 -1.8787  1.3851  1.0571
  173SOPE   C2719620   4.145   5.500   9.772  0.5341  0.8391  0.8122
  173SOPE   H7R19621   4.247   5.496   9.729  0.9717 -2.1571  1.8413
  173SOPE   H7S19622   4.108   5.399   9.803  2.3741 -0.0295  0.3301
  173SOPE   C2819623   4.061   5.572   9.670  0.7058 -0.6285 -0.2832
  173SOPE   H8R19624   4.031   5.502   9.589  0.9169  0.5838 -1.4345
  173SOPE   H8S19625   3.969   5.601   9.726  0.6062 -0.6903 -0.4145
  173SOPE   C2919626   4.127   5.695   9.608  0.0676 -0.0171  0.2667
  173SOPE   H9119627   4.101   5.791   9.655 -2.9685  0.2988 -1.7715
  173SOPE  C21019628   4.224   5.692   9.516 -0.6075 -0.1619  0.2411
  173SOPE  H10119629   4.267   5.787   9.481 -0.2557  0.0465  1.2228
  173SOPE  C21119630   4.287   5.574   9.440  0.0069  0.5084 -0.3736
  173SOPE  H11R19631   4.218   5.489   9.458 -3.0781  2.9255  0.1001
  173SOPE  H11S19632   4.387   5.555   9.484 -0.5264 -2.0275 -0.1085
  173SOPE  C21219633   4.302   5.613   9.293 -1.0289 -0.0892 -0.4706
  173SOPE  H12R19634   4.394   5.675   9.280  0.8665 -2.6054  0.1593
  173SOPE  H12S19635   4.211   5.667   9.260 -0.5776  1.1026  0.1707
  173SOPE  C21319636   4.307   5.491   9.196 -0.1705 -0.9568  0.4374
  173SOPE  H13R19637   4.215   5.433   9.218  0.1543 -1.9772 -0.7421
  173SOPE  H13S19638   4.396   5.425   9.199 -0.3573 -1.1555  2.1157
  173SOPE  C21419639   4.313   5.533   9.054  0.2367 -0.5624  0.7567
  173SOPE  H14R19640   4.406   5.593   9.047 -1.4747  2.2368  0.0966
  173SOPE  H14S19641   4.232   5.604   9.027  0.2964 -1.2447 -1.3896
  173SOPE  C21519642   4.303   5.414   8.955 -0.2503  0.6119 -0.4429
  173SOPE  H15R19643   4.365   5.332   8.996  1.0203  0.9610 -1.5976
  173SOPE  H15S19644   4.345   5.436   8.855  1.7834 -0.0823  0.2105
  173SOPE  C21619645   4.158   5.358   8.947  0.0336  0.0717  0.4752
  173SOPE  H16R19646   4.132   5.318   9.048 -0.2894  0.2516  0.4665
  173SOPE  H16S19647   4.158   5.265   8.885 -2.2915 -1.1084  2.0698
  173SOPE  C21719648   4.040   5.450   8.899 -0.3170  0.6561  0.9065
  173SOPE  H17R19649   4.009   5.499   8.993  2.7243  0.7219  1.9757
  173SOPE  H17S19650   3.963   5.378   8.862 -0.5534  0.9469  0.8302
  173SOPE  C21819651   4.072   5.531   8.774  0.3577  0.1421  0.0988
  173SOPE  H18R19652   4.148   5.604   8.806  2.1422 -1.0794 -1.1335
  173SOPE  H18S19653   3.991   5.596   8.734  1.6466  1.1844 -0.8981
  173SOPE  H18T19654   4.107   5.473   8.685  0.4257  0.7464 -0.2726
  173SOPE   C3319655   4.333   5.136  10.109 -0.1534 -0.1717 -0.2323
  173SOPE   H3X19656   4.390   5.040  10.107  1.4545  0.4739  3.9192
  173SOPE   H3Y19657   4.390   5.227  10.080  0.0751  0.9236  3.1923
  173SOPE   C3419658   4.213   5.104  10.013 -0.1810 -0.2723  0.0244
  173SOPE   H4X19659   4.130   5.178  10.022  1.5688  1.6025  1.9370
  173SOPE   H4Y19660   4.157   5.011  10.036 -0.3287  0.2303  1.8293
  173SOPE   C3519661   4.262   5.106   9.871 -0.0596  0.2401 -0.3883
  173SOPE   H5X19662   4.349   5.037   9.876 -1.1015 -1.0516  0.8865
  173SOPE   H5Y19663   4.303   5.209   9.867 -1.5166  0.8661  0.3672
  173SOPE   C3619664   4.161   5.071   9.766 -0.4880 -0.2355  0.5596
  173SOPE   H6X19665   4.087   5.153   9.775  1.1850  1.4225 -0.2127
  173SOPE   H6Y19666   4.115   4.972   9.790 -0.2636 -0.5579 -0.3045
  173SOPE   C3719667   4.211   5.077   9.619 -0.5206 -0.3474  0.3998
  173SOPE   H7X19668   4.254   4.979   9.588 -1.9683 -0.8072 -0.2073
  173SOPE   H7Y19669   4.284   5.161   9.613 -1.6633  0.8801  2.4701
  173SOPE   C3819670   4.103   5.113   9.522 -0.0311  0.2831  0.2687
  173SOPE   H8X19671   4.027   5.184   9.560  2.0654  2.4198  0.6728
  173SOPE   H8Y19672   4.045   5.020   9.499 -1.1098  0.8176  0.7513
  173SOPE   C3919673   4.153   5.155   9.381 -0.1784 -0.3356  0.1235
  173SOPE   H9X19674   4.202   5.254   9.386  3.7450 -2.0113 -1.0057
  173SOPE   H9Y19675   4.069   5.150   9.308 -1.2991  2.6788  1.0807
  173SOPE  C31019676   4.257   5.052   9.320 -0.4623 -0.5247  0.1715
  173SOPE  H10X19677   4.217   4.948   9.320  0.0615 -0.7314  0.0028
  173SOPE  H10Y19678   4.348   5.059   9.383  1.1711 -0.0808 -2.1219
  173SOPE  C31119679   4.290   5.090   9.172  0.9062  0.2434 -0.9513
  173SOPE  H11X19680   4.318   5.197   9.169 -0.7957  0.7164 -0.9227
  173SOPE  H11Y19681   4.204   5.088   9.103  1.6067  1.0540 -1.8745
  173SOPE  C31219682   4.407   5.015   9.109 -0.3145  0.1531  0.3624
  173SOPE  H12X19683   4.415   4.913   9.152  1.7826  0.3049  0.4036
  173SOPE  H12Y19684   4.504   5.061   9.136  0.4412 -0.4981 -1.1444
  173SOPE  C31319685   4.387   5.014   8.954 -0.0552 -1.0467  0.1491
  173SOPE  H13X19686   4.414   5.114   8.913 -0.3552 -1.2125 -0.4582
  173SOPE  H13Y19687   4.282   4.985   8.934 -0.5291  0.5880  0.1621
  173SOPE  C31419688   4.491   4.914   8.894  0.1223  0.0855 -0.5089
  173SOPE  H14X19689   4.470   4.814   8.937 -0.8932  0.1967 -0.7184
  173SOPE  H14Y19690   4.594   4.950   8.914 -0.6625  2.6184 -0.6504
  173SOPE  C31519691   4.478   4.900   8.739  0.1141  0.0237  0.2744
  173SOPE  H15X19692   4.552   4.825   8.703 -0.0037 -0.5164  1.1445
  173SOPE  H15Y19693   4.510   4.992   8.685  0.1671  2.1752  3.6724
  173SOPE  C31619694   4.330   4.846   8.712 -0.3803  0.8342  0.3384
  173SOPE  H16X19695   4.251   4.919   8.738  0.3056  2.2877 -1.4099
  173SOPE  H16Y19696   4.322   4.751   8.770  1.3454  0.7935  0.5695
  173SOPE  C31719697   4.305   4.817   8.568 -0.8888 -0.0095 -0.6050
  173SOPE  H17X19698   4.394   4.757   8.542 -0.1363  0.5979  0.5086
  173SOPE  H17Y19699   4.301   4.913   8.511  0.1547  1.1296  1.1581
  173SOPE  C31819700   4.174   4.739   8.533  0.3943  0.4102  0.4008
  173SOPE  H18X19701   4.087   4.801   8.563  0.5501  0.9173 -0.1670
  173SOPE  H18Y19702   4.176   4.640   8.582  1.6087  0.1862 -0.0754
  173SOPE  H18Z19703   4.172   4.726   8.423 -1.4470 -0.7629  0.5289
  174SOPE     N19704   2.235   4.263  11.044  0.0356  0.5385 -0.1322
  174SOPE   HN119705   2.257   4.217  10.953 -1.2618 -0.8672  0.2213
  174SOPE   HN219706   2.329   4.291  11.079  0.0525  1.8511 -1.1606
  174SOPE   HN319707   2.198   4.190  11.108  2.0362 -0.7940 -0.4021
  174SOPE   C1219708   2.153   4.386  11.034 -0.3764 -0.4632 -0.6104
  174SOPE  H12A19709   2.134   4.410  11.140 -1.5707 -1.4846 -0.5621
  174SOPE  H12B19710   2.062   4.365  10.973 -0.6428 -0.1389 -0.3274
  174SOPE   C1119711   2.230   4.501  10.974  0.2500 -0.3691  0.4065
  174SOPE  H11A19712   2.166   4.591  10.980 -2.0497 -1.8858 -0.3184
  174SOPE  H11B19713   2.253   4.488  10.866 -0.5643  1.5594 -0.0387
  174SOPE     P19714   2.476   4.601  11.004  0.2920  0.1871 -0.2732
  174SOPE   O1319715   2.585   4.601  11.096 -0.3389  0.6540  0.7169
  174SOPE   O1419716   2.418   4.732  10.967 -0.5446  0.0200 -0.1360
  174SOPE   O1219717   2.353   4.508  11.049 -0.3901  0.2343 -0.5769
  174SOPE   O1119718   2.524   4.527  10.871 -0.0379 -0.5625  0.3717
  174SOPE    C119719   2.645   4.590  10.821 -0.3476  0.0759 -0.6001
  174SOPE    HA19720   2.714   4.504  10.804  0.7756  0.7841  0.2250
  174SOPE    HB19721   2.698   4.662  10.887 -0.7947  1.2947 -1.5338
  174SOPE    C219722   2.626   4.668  10.689 -0.1147 -0.3150 -0.1198
  174SOPE    HS19723   2.725   4.691  10.645  0.0526  0.6441  0.7262
  174SOPE   O2119724   2.559   4.796  10.685  0.2165 -0.4084 -0.5673
  174SOPE   C2119725   2.596   4.896  10.764  0.8245 -0.4326 -0.3785
  174SOPE   O2219726   2.697   4.896  10.835  0.0775  0.7204 -0.9664
  174SOPE   C2219727   2.498   5.012  10.741  0.6184  0.4607 -0.4100
  174SOPE   H2R19728   2.485   5.053  10.843  1.1064 -0.2123 -0.0730
  174SOPE   H2S19729   2.411   4.974  10.682  1.6578 -0.3373 -1.4698
  174SOPE    C319730   2.544   4.578  10.600  0.0336  0.3810  0.1537
  174SOPE    HX19731   2.451   4.531  10.638  1.1317 -1.5253  0.6607
  174SOPE    HY19732   2.602   4.484  10.587 -1.0749 -0.4944  1.2984
  174SOPE   O3119733   2.507   4.645  10.478  0.2350 -0.2672  0.1674
  174SOPE   C3119734   2.597   4.642  10.384 -0.2153 -0.2656 -0.2955
  174SOPE   O3219735   2.707   4.589  10.394  0.2037 -0.2174 -0.4483
  174SOPE   C3219736   2.536   4.708  10.256 -0.2895  0.5115  0.0202
  174SOPE   H2X19737   2.475   4.794  10.290 -0.0987  0.3889  0.6893
  174SOPE   H2Y19738   2.469   4.631  10.213 -0.9027  1.3000 -0.4557
  174SOPE   C2319739   2.567   5.116  10.646 -0.7430  0.5501  0.2679
  174SOPE   H3R19740   2.671   5.138  10.677 -0.5549  2.0639 -1.3130
  174SOPE   H3S19741   2.506   5.208  10.633 -2.9094 -0.4777  2.3185
  174SOPE   C2419742   2.579   5.053  10.500 -0.1325  0.4744  0.0188
  174SOPE   H4R19743   2.647   4.965  10.495 -1.3110 -0.4213 -1.5764
  174SOPE   H4S19744   2.482   5.003  10.479  0.3132 -1.5329  2.3073
  174SOPE   C2519745   2.623   5.149  10.389 -0.5103 -0.7437 -0.3495
  174SOPE   H5R19746   2.534   5.216  10.386  0.3662  0.9590  4.0909
  174SOPE   H5S19747   2.713   5.204  10.425  0.0813 -2.4168  0.8949
  174SOPE   C2619748   2.653   5.095  10.255  0.0180 -0.2935  0.3266
  174SOPE   H6R19749   2.731   5.018  10.239  1.9646  1.9680 -2.0362
  174SOPE   H6S19750   2.557   5.051  10.222  0.1859 -0.4948  0.1043
  174SOPE   C2719751   2.685   5.208  10.151  0.2290  0.1963  0.2293
  174SOPE   H7R19752   2.651   5.176  10.050  2.1965  1.2034 -0.8037
  174SOPE   H7S19753   2.632   5.303  10.170  0.1937  0.9121 -2.9834
  174SOPE   C2819754   2.834   5.226  10.123  0.0662 -0.0436 -0.4455
  174SOPE   H8R19755   2.887   5.271  10.210 -0.0111  2.3346 -1.5624
  174SOPE   H8S19756   2.868   5.123  10.100 -0.9013 -0.5376  0.2509
  174SOPE   C2919757   2.852   5.311  10.001  0.0506  0.1105 -0.5877
  174SOPE   H9119758   2.880   5.414  10.024  1.5997 -0.4813  0.3375
  174SOPE  C21019759   2.826   5.284   9.868  0.1438  0.1867 -0.9406
  174SOPE  H10119760   2.854   5.356   9.790 -0.2677  0.2208 -1.0578
  174SOPE  C21119761   2.778   5.153   9.808  0.1922 -0.5459 -0.4273
  174SOPE  H11R19762   2.723   5.078   9.869  0.2194  0.6778  1.1492
  174SOPE  H11S19763   2.875   5.101   9.789 -0.1738 -2.3928  2.1505
  174SOPE  C21219764   2.698   5.173   9.680  0.3033 -0.6479 -0.0635
  174SOPE  H12R19765   2.612   5.235   9.712  1.0505  0.2402  0.2395
  174SOPE  H12S19766   2.664   5.069   9.656  1.8858 -0.6615 -2.7074
  174SOPE  C21319767   2.773   5.225   9.554  0.2590 -0.2931  0.1378
  174SOPE  H13R19768   2.855   5.154   9.529  2.0370  1.7444 -0.1051
  174SOPE  H13S19769   2.815   5.327   9.570 -0.6693  0.3082 -1.1477
  174SOPE  C21419770   2.678   5.229   9.437  0.0494 -0.1486 -0.4820
  174SOPE  H14R19771   2.579   5.269   9.467 -0.1574 -0.9197 -0.1080
  174SOPE  H14S19772   2.649   5.124   9.415 -0.5200  0.0735 -0.8029
  174SOPE  C21519773   2.750   5.303   9.320 -0.5748  1.1159 -0.8086
  174SOPE  H15R19774   2.846   5.253   9.298 -0.4943  1.1740 -0.5956
  174SOPE  H15S19775   2.776   5.406   9.353 -0.7328  0.9066 -0.0095
  174SOPE  C21619776   2.662   5.304   9.195 -0.7030  0.0810  0.1098
  174SOPE  H16R19777   2.561   5.338   9.224 -0.7715  2.0857 -2.2283
  174SOPE  H16S19778   2.658   5.202   9.150  2.5397  0.0553 -0.3571
  174SOPE  C21719779   2.719   5.387   9.072  0.7544  0.1180  0.6602
  174SOPE  H17R19780   2.682   5.491   9.080  0.5408  0.1769 -0.7958
  174SOPE  H17S19781   2.665   5.341   8.986 -0.0938 -0.0838  1.2826
  174SOPE  C21819782   2.870   5.380   9.064 -1.1930 -0.2327  0.4416
  174SOPE  H18R19783   2.912   5.277   9.063 -0.4844 -0.0972  4.1412
  174SOPE  H18S19784   2.931   5.430   9.142 -0.5439  0.4455 -0.4748
  174SOPE  H18T19785   2.898   5.428   8.968 -2.0411 -0.1569  0.2188
  174SOPE   C3319786   2.641   4.738  10.143 -0.2238  0.7075 -0.2527
  174SOPE   H3X19787   2.694   4.647  10.106  2.0515  3.1456 -3.5760
  174SOPE   H3Y19788   2.717   4.794  10.200  1.3572 -1.2085 -0.3817
  174SOPE   C3419789   2.575   4.794  10.019 -0.4785  0.0440  0.1451
  174SOPE   H4X19790   2.657   4.853   9.972  0.1351 -1.2456 -0.4521
  174SOPE   H4Y19791   2.505   4.878  10.040  1.5233  1.6518  0.7123
  174SOPE   C3519792   2.509   4.689   9.924  0.1323  0.4989  0.3508
  174SOPE   H5X19793   2.411   4.664   9.970  0.4810 -1.9649 -0.1332
  174SOPE   H5Y19794   2.556   4.590   9.913 -1.5931 -0.1733 -1.7975
  174SOPE   C3619795   2.497   4.749   9.783  0.6921 -0.5467 -0.4299
  174SOPE   H6X19796   2.469   4.856   9.774  0.9529 -0.3888  0.5282
  174SOPE   H6Y19797   2.417   4.699   9.725  0.8226  1.0019 -2.0357
  174SOPE   C3719798   2.628   4.735   9.706 -0.5801 -0.6689  0.3791
  174SOPE   H7X19799   2.663   4.631   9.692  2.1244  0.3483 -1.3542
  174SOPE   H7Y19800   2.708   4.794   9.756  0.2717 -0.7105 -0.8650
  174SOPE   C3819801   2.599   4.782   9.567  0.5559 -0.0668  0.6054
  174SOPE   H8X19802   2.543   4.877   9.570  0.3329 -0.1869  0.3177
  174SOPE   H8Y19803   2.522   4.713   9.527 -1.1057  0.5092  2.6319
  174SOPE   C3919804   2.721   4.789   9.472 -0.0645  0.6849  0.0577
  174SOPE   H9X19805   2.774   4.693   9.492 -1.4824 -0.0480  0.4461
  174SOPE   H9Y19806   2.785   4.871   9.510  0.7076 -0.4512  1.3111
  174SOPE  C31019807   2.690   4.793   9.324  0.3978  0.2206  0.0880
  174SOPE  H10X19808   2.613   4.866   9.293 -0.8468 -1.4520 -0.9827
  174SOPE  H10Y19809   2.646   4.694   9.297  1.1844 -0.6456  1.8531
  174SOPE  C31119810   2.816   4.812   9.239  0.0131  0.7917 -0.7888
  174SOPE  H11X19811   2.859   4.710   9.231  0.1698  0.8719 -0.9934
  174SOPE  H11Y19812   2.886   4.890   9.274  0.8353 -0.5982  0.7940
  174SOPE  C31219813   2.784   4.866   9.100  0.0204 -0.7750  0.0292
  174SOPE  H12X19814   2.749   4.968   9.126  2.6349 -0.3004  2.1204
  174SOPE  H12Y19815   2.703   4.804   9.056 -0.4219 -0.6714  0.6912
  174SOPE  C31319816   2.898   4.872   9.002 -0.1505 -0.0576  0.2759
  174SOPE  H13X19817   2.933   4.768   8.986 -0.7606  0.1029 -2.6213
  174SOPE  H13Y19818   2.968   4.944   9.049  0.1791  1.0340 -1.7752
  174SOPE  C31419819   2.858   4.915   8.859  0.0297  0.3432 -0.4642
  174SOPE  H14X19820   2.778   4.857   8.809 -1.3847  1.6924  0.1634
  174SOPE  H14Y19821   2.936   4.894   8.783  1.4133  0.3700  0.9027
  174SOPE  C31519822   2.813   5.063   8.862 -0.1317  0.0868 -0.4160
  174SOPE  H15X19823   2.905   5.120   8.886  0.4190 -1.1648  0.5645
  174SOPE  H15Y19824   2.737   5.082   8.940  1.0947  0.4423  0.7325
  174SOPE  C31619825   2.758   5.118   8.729 -0.3819  0.0520  0.2511
  174SOPE  H16X19826   2.674   5.054   8.694 -1.0786  0.9163  0.2970
  174SOPE  H16Y19827   2.841   5.111   8.656  0.7106 -2.1460  1.5985
  174SOPE  C31719828   2.706   5.259   8.742  0.1122 -0.5679  0.2027
  174SOPE  H17X19829   2.775   5.335   8.786  0.1861  0.5834 -1.7923
  174SOPE  H17Y19830   2.610   5.252   8.798 -2.0449  0.3778 -3.1169
  174SOPE  C31819831   2.656   5.311   8.605  0.5315  0.0348 -0.3499
  174SOPE  H18X19832   2.609   5.410   8.623  0.9258  0.4229 -1.3783
  174SOPE  H18Y19833   2.577   5.243   8.567  1.1161 -1.1803  0.5511
  174SOPE  H18Z19834   2.738   5.331   8.532  0.4061  1.1675 -0.1985
  175SOPE     N19835   5.536   6.064  10.746  0.1273 -0.0646  0.3200
  175SOPE   HN119836   5.529   5.961  10.747  2.4402 -0.2871  1.0722
  175SOPE   HN219837   5.519   6.108  10.839  2.4658 -1.3764  1.4565
  175SOPE   HN319838   5.468   6.099  10.675 -0.3023  0.8306  1.1416
  175SOPE   C1219839   5.679   6.074  10.692 -0.1822 -0.6871 -0.2291
  175SOPE  H12A19840   5.711   5.973  10.661 -1.5706 -0.8620 -1.1752
  175SOPE  H12B19841   5.746   6.106  10.775 -0.6543  0.2503 -0.1902
  175SOPE   C1119842   5.687   6.154  10.557  0.4950  0.1619  0.1440
  175SOPE  H11A19843   5.641   6.090  10.479 -2.4270  2.9238 -0.5970
  175SOPE  H11B19844   5.798   6.166  10.549  0.3337  1.6613 -0.2571
  175SOPE     P19845   5.663   6.419  10.516  0.4926 -0.1026  0.2017
  175SOPE   O1319846   5.777   6.463  10.601 -0.3469 -0.0883 -0.2970
  175SOPE   O1419847   5.545   6.512  10.506  0.2922 -0.3346 -0.1231
  175SOPE   O1219848   5.613   6.277  10.569 -0.6615  0.0069 -0.7186
  175SOPE   O1119849   5.724   6.396  10.377  0.3209  0.1466 -0.2919
  175SOPE    C119850   5.654   6.351  10.264 -0.3048 -0.3313 -0.1542
  175SOPE    HA19851   5.551   6.317  10.289 -0.3999 -0.6438 -0.9188
  175SOPE    HB19852   5.714   6.263  10.232 -0.1643 -1.7390  3.5707
  175SOPE    C219853   5.638   6.457  10.158  0.2548 -0.2440  0.0241
  175SOPE    HS19854   5.552   6.524  10.177  1.8478  2.1216 -0.7749
  175SOPE   O2119855   5.614   6.388  10.027 -0.2666  0.0135  0.4285
  175SOPE   C2119856   5.491   6.348  10.022  0.3709  0.8972  0.2797
  175SOPE   O2219857   5.404   6.348  10.107 -0.9784  0.0633  0.2519
  175SOPE   C2219858   5.461   6.306   9.877  0.0847  0.2014  0.1945
  175SOPE   H2R19859   5.553   6.274   9.822 -0.8599  0.0380 -1.3574
  175SOPE   H2S19860   5.409   6.386   9.821  0.0212 -0.3718 -0.5988
  175SOPE    C319861   5.760   6.556  10.142 -0.2652 -0.1439 -1.1735
  175SOPE    HX19862   5.851   6.495  10.157  0.3806  1.3731  1.7502
  175SOPE    HY19863   5.752   6.620  10.233 -0.6595 -0.3142 -1.0868
  175SOPE   O3119864   5.754   6.633  10.025 -0.1159 -0.3255  0.0655
  175SOPE   C3119865   5.764   6.762  10.034 -1.2693 -0.0350 -0.5606
  175SOPE   O3219866   5.775   6.823  10.140  0.0359  0.1266  0.6493
  175SOPE   C3219867   5.764   6.830   9.898  0.0604 -0.5061  0.0431
  175SOPE   H2X19868   5.769   6.939   9.919  2.3888 -0.2628 -1.4533
  175SOPE   H2Y19869   5.669   6.799   9.849 -0.4330 -0.3555  0.8846
  175SOPE   C2319870   5.354   6.188   9.876  0.1052 -0.3239  0.3126
  175SOPE   H3R19871   5.259   6.206   9.930 -0.1844  0.7320 -0.5163
  175SOPE   H3S19872   5.401   6.092   9.907 -1.6714 -2.3288 -2.6879
  175SOPE   C2419873   5.322   6.150   9.733  0.7727 -0.3040 -0.3881
  175SOPE   H4R19874   5.414   6.141   9.671  0.5428 -2.3054 -0.4929
  175SOPE   H4S19875   5.286   6.045   9.743 -2.0844  0.4848 -1.2402
  175SOPE   C2519876   5.209   6.232   9.682  0.2926  0.0488 -0.1811
  175SOPE   H5R19877   5.122   6.227   9.752  0.5944  2.8264  0.5340
  175SOPE   H5S19878   5.243   6.338   9.687 -0.8271  0.3794  1.9635
  175SOPE   C2619879   5.173   6.193   9.539 -0.0901  1.0389 -0.0372
  175SOPE   H6R19880   5.255   6.215   9.468  1.3127 -0.9704  0.8767
  175SOPE   H6S19881   5.159   6.083   9.544  0.0761  0.8842 -2.1797
  175SOPE   C2719882   5.050   6.242   9.478 -0.3773 -0.1400 -0.4433
  175SOPE   H7R19883   4.964   6.243   9.548  0.8551 -2.2875  1.2411
  175SOPE   H7S19884   5.055   6.350   9.450  0.5203 -0.3900 -1.2743
  175SOPE   C2819885   5.019   6.164   9.351  0.2730  0.2219 -1.1928
  175SOPE   H8R19886   5.104   6.179   9.281  0.0883 -0.1576 -1.4982
  175SOPE   H8S19887   5.020   6.057   9.379 -1.0800  0.9561  2.1383
  175SOPE   C2919888   4.894   6.217   9.284 -0.6728 -0.4089  1.2766
  175SOPE   H9119889   4.922   6.271   9.192 -0.5292 -1.8408  0.4517
  175SOPE  C21019890   4.768   6.188   9.311 -0.2714  0.1719  1.0623
  175SOPE  H10119891   4.696   6.218   9.234 -2.0235 -0.4681  2.3941
  175SOPE  C21119892   4.728   6.086   9.412  0.0471 -0.1665 -0.4600
  175SOPE  H11R19893   4.693   6.144   9.500 -0.5838 -2.2914  0.7652
  175SOPE  H11S19894   4.814   6.024   9.445 -0.0164  0.8929  1.8692
  175SOPE  C21219895   4.602   6.009   9.380 -0.1512  0.9846 -0.2614
  175SOPE  H12R19896   4.610   5.963   9.278  2.7767 -0.1933  0.3983
  175SOPE  H12S19897   4.522   6.084   9.369  0.1680  1.0783 -2.4982
  175SOPE  C21319898   4.558   5.905   9.480 -0.4230  0.4376 -0.5004
  175SOPE  H13R19899   4.634   5.825   9.493  0.3954  1.5036  1.8231
  175SOPE  H13S19900   4.457   5.865   9.454  0.0882 -1.4530  0.2204
  175SOPE  C21419901   4.552   5.970   9.621  0.0478  0.0157 -0.5664
  175SOPE  H14R19902   4.485   6.059   9.624 -2.1792 -1.6025 -0.1125
  175SOPE  H14S19903   4.655   6.001   9.652 -0.2704 -0.4352  1.0646
  175SOPE  C21519904   4.491   5.871   9.721  0.2740 -0.2219 -0.2202
  175SOPE  H15R19905   4.543   5.775   9.705  0.9355  0.0545  0.2354
  175SOPE  H15S19906   4.381   5.877   9.704  0.6270  0.9900 -2.4668
  175SOPE  C21619907   4.518   5.921   9.866 -0.1000 -0.8201  0.5486
  175SOPE  H16R19908   4.479   6.024   9.884  1.4373 -0.8591  5.3746
  175SOPE  H16S19909   4.628   5.904   9.871 -0.0043 -0.1954  0.7157
  175SOPE  C21719910   4.445   5.841   9.974 -0.1021  0.1372  0.3139
  175SOPE  H17R19911   4.446   5.733   9.946  0.2941 -0.4950  2.6223
  175SOPE  H17S19912   4.335   5.857   9.965 -1.5625 -4.2549  5.2018
  175SOPE  C21819913   4.489   5.864  10.117  0.0919  0.4074 -0.1778
  175SOPE  H18R19914   4.412   5.824  10.187  1.1499 -0.3208  0.6188
  175SOPE  H18S19915   4.501   5.969  10.150  1.9619  0.0881  0.2836
  175SOPE  H18T19916   4.586   5.810  10.131  0.7771  2.0752  2.1682
  175SOPE   C3319917   5.894   6.796   9.826 -0.4602  0.1415 -0.0737
  175SOPE   H3X19918   5.907   6.685   9.823  2.2178  0.3749 -0.0547
  175SOPE   H3Y19919   5.975   6.835   9.891  1.4688 -2.4151 -0.7504
  175SOPE   C3419920   5.914   6.859   9.687 -0.1018  0.1469 -0.3900
  175SOPE   H4X19921   6.022   6.840   9.665  0.3736  0.7259  1.2768
  175SOPE   H4Y19922   5.887   6.966   9.699 -3.5631 -0.8243  2.1099
  175SOPE   C3519923   5.825   6.800   9.575  0.4605 -0.5751 -0.3485
  175SOPE   H5X19924   5.724   6.797   9.622  1.9220  3.2313  3.7367
  175SOPE   H5Y19925   5.858   6.694   9.565  2.3443  0.1337 -2.6073
  175SOPE   C3619926   5.820   6.872   9.438  0.4133 -0.0899  0.1905
  175SOPE   H6X19927   5.818   6.980   9.463 -0.3643 -0.2923  1.0662
  175SOPE   H6Y19928   5.729   6.854   9.378  2.1908  0.1621 -2.7887
  175SOPE   C3719929   5.940   6.842   9.353 -0.6579 -0.8911  0.1094
  175SOPE   H7X19930   5.943   6.732   9.334 -0.8520 -0.9622  0.4714
  175SOPE   H7Y19931   6.030   6.876   9.408 -2.2600  3.4316  0.3963
  175SOPE   C3819932   5.929   6.920   9.223 -0.1354  0.2619  0.7844
  175SOPE   H8X19933   5.928   7.031   9.233  2.5385  0.5682 -1.2062
  175SOPE   H8Y19934   5.831   6.899   9.175  0.2296  1.6465 -0.6441
  175SOPE   C3919935   6.034   6.894   9.116  0.6820  0.3092  0.5636
  175SOPE   H9X19936   6.134   6.927   9.152  1.6578 -2.0761  0.2293
  175SOPE   H9Y19937   5.998   6.946   9.025  0.0277 -1.7441 -0.4108
  175SOPE  C31019938   6.056   6.747   9.059  0.1088 -0.8563  0.3476
  175SOPE  H10X19939   5.959   6.722   9.012  0.3774  2.0844 -2.0698
  175SOPE  H10Y19940   6.048   6.672   9.140 -0.9408 -0.2445  0.8407
  175SOPE  C31119941   6.179   6.739   8.976 -0.2158 -0.1888  0.9338
  175SOPE  H11X19942   6.265   6.776   9.035  1.5984  0.8739 -2.1353
  175SOPE  H11Y19943   6.154   6.812   8.896 -2.6047 -3.1119 -1.2467
  175SOPE  C31219944   6.216   6.603   8.917 -0.0067  0.2091  0.0094
  175SOPE  H12X19945   6.177   6.517   8.976  1.8159 -0.2565  0.5917
  175SOPE  H12Y19946   6.326   6.590   8.919 -0.0608 -0.3306 -0.1483
  175SOPE  C31319947   6.161   6.584   8.777  0.0849 -0.1245 -0.0726
  175SOPE  H13X19948   6.190   6.675   8.721 -2.2435  2.2245  2.2475
  175SOPE  H13Y19949   6.051   6.584   8.791  0.3094  1.7547  2.4154
  175SOPE  C31419950   6.209   6.455   8.703  0.4262  0.4004  0.3252
  175SOPE  H14X19951   6.317   6.451   8.728  0.4673 -0.1520  0.0679
  175SOPE  H14Y19952   6.187   6.474   8.596  0.7234  0.7977  0.3328
  175SOPE  C31519953   6.136   6.328   8.753 -0.3318 -0.0513  0.5615
  175SOPE  H15X19954   6.025   6.333   8.742 -0.4473 -2.1130  0.3150
  175SOPE  H15Y19955   6.169   6.312   8.857  0.5152  2.7520  0.8003
  175SOPE  C31619956   6.174   6.203   8.673  0.4131 -0.0171  0.6602
  175SOPE  H16X19957   6.285   6.199   8.672  0.4166 -2.4438  2.6044
  175SOPE  H16Y19958   6.133   6.204   8.570 -1.4720 -0.9319  1.3624
  175SOPE  C31719959   6.143   6.072   8.743  0.1969 -0.6335  0.1282
  175SOPE  H17X19960   6.055   6.107   8.801  0.9514  2.1344 -0.2974
  175SOPE  H17Y19961   6.212   6.049   8.826  0.7552  0.0633 -0.1395
  175SOPE  C31819962   6.116   5.943   8.664  0.3183  0.3101  0.0573
  175SOPE  H18X19963   6.109   5.860   8.737 -0.4275  1.1631  0.9826
  175SOPE  H18Y19964   6.196   5.920   8.590  0.9574 -1.6718  1.2708
  175SOPE  H18Z19965   6.022   5.954   8.606  0.1106 -0.4673  0.2336
  176SOPE     N19966   5.236   6.266  10.977  0.6829 -0.2711 -0.0947
  176SOPE   HN119967   5.337   6.243  10.977  1.0389  1.2164 -0.9571
  176SOPE   HN219968   5.232   6.369  10.961  0.3808 -0.3370 -0.4536
  176SOPE   HN319969   5.200   6.246  11.073  1.2071 -0.9134 -0.0268
  176SOPE   C1219970   5.165   6.179  10.878 -0.0701  0.5108  0.7175
  176SOPE  H12A19971   5.194   6.076  10.905  0.4983 -0.0100 -1.6309
  176SOPE  H12B19972   5.212   6.203  10.780 -0.8231  0.6243  0.3754
  176SOPE   C1119973   5.014   6.221  10.875 -1.1845  0.4620 -0.3341
  176SOPE  H11A19974   4.962   6.215  10.973 -3.8150  2.6993 -1.4687
  176SOPE  H11B19975   4.964   6.154  10.803  1.5555  0.4421 -2.4002
  176SOPE     P19976   4.900   6.408  10.727 -0.0726  0.1227  0.2435
  176SOPE   O1319977   4.930   6.552  10.709  0.2279 -0.7458 -0.1432
  176SOPE   O1419978   4.760   6.376  10.758 -0.4933  0.3407  0.6267
  176SOPE   O1219979   5.005   6.357  10.840  0.2690  0.3721  0.6673
  176SOPE   O1119980   4.949   6.325  10.599 -0.1410 -0.1245 -0.1581
  176SOPE    C119981   4.854   6.233  10.537  0.8793 -0.2188 -0.0622
  176SOPE    HA19982   4.753   6.277  10.526 -0.2788 -2.7162 -0.1900
  176SOPE    HB19983   4.832   6.154  10.613 -0.3711 -0.1244 -0.3157
  176SOPE    C219984   4.918   6.170  10.413  0.4553 -1.4299  0.3915
  176SOPE    HS19985   5.019   6.125  10.428  0.3860 -2.0593 -0.8983
  176SOPE   O2119986   4.901   6.273  10.308 -0.7839  0.3737  0.0811
  176SOPE   C2119987   4.982   6.281  10.212  0.1373  0.2112 -0.0969
  176SOPE   O2219988   5.085   6.218  10.200  0.0668 -0.2831 -0.6514
  176SOPE   C2219989   4.937   6.397  10.119 -0.2204  0.2941 -0.1499
  176SOPE   H2R19990   4.948   6.491  10.178  0.5632  0.5255 -0.6557
  176SOPE   H2S19991   4.830   6.382  10.092 -0.0304 -0.2168 -0.6240
  176SOPE    C319992   4.837   6.038  10.370 -0.0992  0.5561 -0.6355
  176SOPE    HX19993   4.731   6.064  10.351  0.0562 -0.3599 -3.1518
  176SOPE    HY19994   4.834   5.966  10.455 -1.3452 -1.7085 -2.4750
  176SOPE   O3119995   4.883   5.971  10.250 -0.0397  0.0292  0.2382
  176SOPE   C3119996   5.000   5.909  10.267 -0.1170  0.0724 -0.0233
  176SOPE   O3219997   5.057   5.903  10.375 -0.3273 -0.5506 -0.2348
  176SOPE   C3219998   5.044   5.837  10.137 -0.5848  0.4808  0.2547
  176SOPE   H2X19999   5.065   5.730  10.158  0.1550  0.4868 -0.4145
  176SOPE   H2Y20000   5.137   5.893  10.113  0.2973 -0.9076  0.3782
  176SOPE   C2320001   5.025   6.408   9.994 -0.6748  0.2948 -0.0504
  176SOPE   H3R20002   5.069   6.310   9.963 -3.0210 -1.3528  1.4433
  176SOPE   H3S20003   5.102   6.484  10.016 -0.2120 -0.2566  0.2672
  176SOPE   C2420004   4.952   6.451   9.867 -0.5709 -0.7731 -0.5652
  176SOPE   H4R20005   5.026   6.460   9.785  0.8358  1.2076  0.8322
  176SOPE   H4S20006   4.891   6.360   9.850  0.6256 -1.3608 -1.9211
  176SOPE   C2520007   4.869   6.575   9.887 -0.1131  0.6875  0.5409
  176SOPE   H5R20008   4.788   6.544   9.956 -0.7183 -1.6779 -1.1135
  176SOPE   H5S20009   4.923   6.649   9.949 -3.0957  0.5617  3.6281
  176SOPE   C2620010   4.809   6.625   9.754  0.2666 -0.9230 -0.2780
  176SOPE   H6R20011   4.769   6.535   9.703 -1.3584 -1.0086  1.0805
  176SOPE   H6S20012   4.734   6.706   9.768  1.9186  0.7584 -0.7189
  176SOPE   C2720013   4.905   6.686   9.653  0.1501 -0.2549 -0.0567
  176SOPE   H7R20014   4.964   6.765   9.703 -1.1038 -0.3259  1.6002
  176SOPE   H7S20015   4.973   6.609   9.610  1.5618  2.4197 -3.0744
  176SOPE   C2820016   4.826   6.743   9.536  0.2623  0.8574 -0.0135
  176SOPE   H8R20017   4.792   6.666   9.464 -1.1326  1.4284 -0.0036
  176SOPE   H8S20018   4.737   6.793   9.580 -0.6353 -1.2796  0.7316
  176SOPE   C2920019   4.893   6.844   9.454 -0.2159 -1.2846 -0.0013
  176SOPE   H9120020   4.919   6.934   9.512  0.9093 -1.6427  0.0700
  176SOPE  C21020021   4.949   6.834   9.330 -0.7947  0.0823  0.1657
  176SOPE  H10120022   4.984   6.921   9.272  3.3205 -1.1259  0.5154
  176SOPE  C21120023   4.938   6.717   9.237  0.1287  0.0760  0.0233
  176SOPE  H11R20024   4.917   6.620   9.287 -1.2426 -0.7760 -2.0804
  176SOPE  H11S20025   5.030   6.708   9.176  1.3390 -0.1423  1.8033
  176SOPE  C21220026   4.815   6.747   9.147 -0.0904 -0.0387  0.7125
  176SOPE  H12R20027   4.836   6.846   9.102  0.5356 -1.0628 -1.3836
  176SOPE  H12S20028   4.723   6.751   9.210 -0.5523 -0.1159  0.0452
  176SOPE  C21320029   4.783   6.637   9.046 -0.3070 -0.8661  0.1117
  176SOPE  H13R20030   4.880   6.595   9.011  0.3278 -0.2847  1.1233
  176SOPE  H13S20031   4.734   6.681   8.957  0.1001  1.4678  0.9653
  176SOPE  C21420032   4.706   6.516   9.112 -0.0784  0.5375  0.1695
  176SOPE  H14R20033   4.747   6.495   9.213 -0.3421 -1.4432 -0.0965
  176SOPE  H14S20034   4.735   6.430   9.047 -0.5243  1.0505 -0.7392
  176SOPE  C21520035   4.552   6.516   9.095 -0.2361  0.5899 -0.2331
  176SOPE  H15R20036   4.520   6.614   9.137 -2.5677 -0.2298  0.0838
  176SOPE  H15S20037   4.498   6.446   9.163  0.0111  0.4914 -0.1386
  176SOPE  C21620038   4.508   6.520   8.953  0.5990  0.0548 -0.3597
  176SOPE  H16R20039   4.580   6.454   8.901 -1.6737 -1.6118 -1.5816
  176SOPE  H16S20040   4.521   6.622   8.912 -0.1327  1.2065  2.0520
  176SOPE  C21720041   4.371   6.448   8.917  0.5941 -0.3204 -0.6832
  176SOPE  H17R20042   4.295   6.524   8.943 -0.0669 -0.0104 -3.2255
  176SOPE  H17S20043   4.346   6.365   8.986  0.1337  0.3980  0.0380
  176SOPE  C21820044   4.362   6.418   8.769  0.0039  0.0750 -0.0178
  176SOPE  H18R20045   4.366   6.514   8.712 -0.1394  0.1321  0.0675
  176SOPE  H18S20046   4.268   6.365   8.745  1.0970 -3.2890  2.4405
  176SOPE  H18T20047   4.448   6.358   8.732  0.2707  0.0354  0.6598
  176SOPE   C3320048   4.953   5.850  10.012  0.0151  0.5894 -0.4526
  176SOPE   H3X20049   4.940   5.959   9.996 -1.4049  0.6033  0.6249
  176SOPE   H3Y20050   4.852   5.810  10.035 -0.2006  0.8921 -0.8375
  176SOPE   C3420051   5.018   5.773   9.890  0.0967  0.4411 -0.0084
  176SOPE   H4X20052   5.001   5.667   9.917 -1.1486  0.3598 -0.9772
  176SOPE   H4Y20053   5.125   5.801   9.893 -0.4073  2.4878  0.3622
  176SOPE   C3520054   4.953   5.811   9.755  0.0385 -0.2709  0.7685
  176SOPE   H5X20055   4.957   5.922   9.746 -0.7834 -0.3796 -1.4504
  176SOPE   H5Y20056   4.845   5.785   9.752 -0.1393  0.4057  1.0053
  176SOPE   C3620057   5.028   5.747   9.637 -0.2012  0.6989  0.9341
  176SOPE   H6X20058   5.016   5.639   9.661 -0.0876 -0.0762 -2.0230
  176SOPE   H6Y20059   5.139   5.755   9.643  0.0567 -0.7902 -0.7452
  176SOPE   C3720060   4.973   5.765   9.493  0.3208  0.0980 -0.4096
  176SOPE   H7X20061   4.989   5.875   9.485 -0.0429  0.0613 -1.9979
  176SOPE   H7Y20062   4.865   5.740   9.501  0.3729  0.0092  0.0465
  176SOPE   C3820063   5.048   5.687   9.385  1.3873  0.3095 -0.3207
  176SOPE   H8X20064   5.005   5.585   9.384 -0.9270  1.1912 -2.7550
  176SOPE   H8Y20065   5.158   5.680   9.401  1.0189 -0.3940  2.3259
  176SOPE   C3920066   5.018   5.749   9.243  0.2335  0.6517  0.4107
  176SOPE   H9X20067   5.081   5.702   9.164 -0.6899 -0.3045  0.2167
  176SOPE   H9Y20068   5.039   5.858   9.240  1.9499  0.3994  1.7440
  176SOPE  C31020069   4.878   5.722   9.186  0.6802  0.1541  0.8016
  176SOPE  H10X20070   4.804   5.797   9.221  2.1256  1.0384  2.1123
  176SOPE  H10Y20071   4.867   5.616   9.219  1.5359 -0.5631 -1.0955
  176SOPE  C31120072   4.884   5.736   9.028  0.4421  0.1727  0.0827
  176SOPE  H11X20073   4.949   5.653   8.994 -0.2239 -0.6433  0.7557
  176SOPE  H11Y20074   4.928   5.834   8.999  0.9749 -0.6408 -1.9749
  176SOPE  C31220075   4.758   5.702   8.947 -0.1640 -0.5765  0.0513
  176SOPE  H12X20076   4.676   5.769   8.981 -0.2671 -0.3529 -0.6292
  176SOPE  H12Y20077   4.727   5.599   8.973  0.9084 -0.2581  3.0067
  176SOPE  C31320078   4.783   5.713   8.797 -0.5139 -0.1574  0.6123
  176SOPE  H13X20079   4.885   5.688   8.762 -1.1236  0.3383 -1.7069
  176SOPE  H13Y20080   4.784   5.821   8.770  1.2740 -0.4014 -0.4563
  176SOPE  C31420081   4.681   5.640   8.711  0.2170  0.3543 -0.3913
  176SOPE  H14X20082   4.678   5.532   8.737  2.0318  0.1843 -0.8049
  176SOPE  H14Y20083   4.695   5.662   8.603 -1.6208  0.5115 -0.6333
  176SOPE  C31520084   4.532   5.680   8.742  0.9593 -0.1974  1.0381
  176SOPE  H15X20085   4.518   5.634   8.842  0.3697  0.5471  1.3034
  176SOPE  H15Y20086   4.467   5.625   8.671 -0.1765  1.9266  0.3632
  176SOPE  C31620087   4.483   5.826   8.744 -0.2459 -0.3702  0.0670
  176SOPE  H16X20088   4.527   5.876   8.656 -1.8616 -0.2658 -0.7120
  176SOPE  H16Y20089   4.521   5.873   8.837 -0.5560 -2.6958  1.4693
  176SOPE  C31720090   4.331   5.828   8.742 -0.2044 -0.3160 -0.7211
  176SOPE  H17X20091   4.294   5.791   8.840  0.9028  2.2989  0.7962
  176SOPE  H17Y20092   4.288   5.764   8.662 -3.0829  2.0339 -1.2250
  176SOPE  C31820093   4.278   5.973   8.705  0.7598  0.0561 -0.4722
  176SOPE  H18X20094   4.308   6.046   8.783  0.1132  0.2235 -0.3707
  176SOPE  H18Y20095   4.167   5.972   8.699  0.7020  0.8675  0.3208
  176SOPE  H18Z20096   4.309   6.012   8.605 -0.0618  0.3428 -0.6238
  177SOPE     N20097   1.671   3.574  10.999  0.1891  0.0337 -0.1630
  177SOPE   HN120098   1.632   3.521  11.080 -0.1160  0.8237  0.2084
  177SOPE   HN220099   1.626   3.666  11.010 -0.8064 -0.3056 -1.1721
  177SOPE   HN320100   1.638   3.534  10.908  0.3754 -1.4792  0.3982
  177SOPE   C1220101   1.824   3.584  10.988  0.6271  0.4193 -0.6811
  177SOPE  H12A20102   1.874   3.485  10.979  1.3952  0.4881  1.8829
  177SOPE  H12B20103   1.851   3.629  11.086 -3.1203 -0.0980  0.7825
  177SOPE   C1120104   1.867   3.679  10.879 -0.0701 -0.3051 -0.1007
  177SOPE  H11A20105   1.817   3.649  10.785  1.8061 -2.2414 -0.5651
  177SOPE  H11B20106   1.975   3.662  10.855  0.6939 -0.8221  3.1963
  177SOPE     P20107   1.923   3.930  10.945  0.0606  0.1755  0.1657
  177SOPE   O1320108   2.071   3.890  10.939  0.3034 -0.0684  0.2780
  177SOPE   O1420109   1.871   3.979  11.073 -0.6596  0.4693  0.0154
  177SOPE   O1220110   1.826   3.814  10.898  0.0627  0.1535  0.0066
  177SOPE   O1120111   1.896   4.054  10.848 -0.3887  0.3036 -0.2278
  177SOPE    C120112   1.793   4.051  10.746 -0.0362 -0.7082  0.0011
  177SOPE    HA20113   1.694   4.047  10.797 -0.1417 -0.5465 -0.1921
  177SOPE    HB20114   1.810   3.954  10.694  2.7698 -0.8462  1.0042
  177SOPE    C220115   1.812   4.166  10.638 -0.1282 -0.0607 -0.1331
  177SOPE    HS20116   1.729   4.147  10.566  1.0399 -2.1603 -1.0251
  177SOPE   O2120117   1.943   4.144  10.576  0.3044  0.1923  0.2667
  177SOPE   C2120118   1.952   4.086  10.464  0.6424  1.2527 -0.0847
  177SOPE   O2220119   1.857   4.065  10.387 -0.1841  0.1487 -0.3401
  177SOPE   C2220120   2.091   4.036  10.440  0.4897  0.0411  0.2999
  177SOPE   H2R20121   2.109   3.965  10.523  0.4178 -0.5010 -0.1373
  177SOPE   H2S20122   2.169   4.115  10.446  2.1028 -1.5366  0.8986
  177SOPE    C320123   1.816   4.312  10.695  0.3273  0.0029  0.2871
  177SOPE    HX20124   1.890   4.308  10.778  3.3537 -0.4489 -2.2498
  177SOPE    HY20125   1.715   4.344  10.729 -0.3436  0.0373 -1.5907
  177SOPE   O3120126   1.856   4.413  10.595  0.0270 -0.2259  0.1826
  177SOPE   C3120127   1.981   4.459  10.593 -0.0450  0.1254  0.2941
  177SOPE   O3220128   2.073   4.436  10.671 -0.1039  0.4522 -0.1066
  177SOPE   C3220129   2.004   4.552  10.473 -0.0288  1.0834  0.9826
  177SOPE   H2X20130   2.081   4.632  10.482  0.1190  0.9113  1.2705
  177SOPE   H2Y20131   1.903   4.597  10.466  0.1295  1.4085  0.7702
  177SOPE   C2320132   2.113   3.969  10.303  0.2937  0.4262 -0.2165
  177SOPE   H3R20133   2.087   4.038  10.221  1.0842 -0.3974 -1.2009
  177SOPE   H3S20134   2.052   3.877  10.294  1.4275 -0.5108  1.2001
  177SOPE   C2420135   2.262   3.920  10.294  0.2195 -0.1952 -0.0096
  177SOPE   H4R20136   2.334   4.005  10.303 -0.1000  0.5877 -3.4188
  177SOPE   H4S20137   2.283   3.843  10.370 -2.0050 -1.2848 -0.4065
  177SOPE   C2520138   2.290   3.863  10.153  0.4381 -0.2778  0.8239
  177SOPE   H5R20139   2.389   3.811  10.150 -0.9397 -3.0357 -1.8570
  177SOPE   H5S20140   2.206   3.793  10.133  1.2733 -1.5362  1.5634
  177SOPE   C2620141   2.312   3.981  10.046  0.4629  0.3367  0.0119
  177SOPE   H6R20142   2.252   4.067  10.083 -1.4136 -0.8936 -0.0135
  177SOPE   H6S20143   2.415   4.019  10.035  0.5169  0.2555  0.2391
  177SOPE   C2720144   2.255   3.946   9.907 -0.8599  0.9258 -0.9796
  177SOPE   H7R20145   2.150   3.912   9.917 -0.2790 -0.7326 -0.1045
  177SOPE   H7S20146   2.258   4.032   9.837 -1.9954 -0.1312 -2.3824
  177SOPE   C2820147   2.342   3.843   9.835  0.5255  0.0657 -1.1136
  177SOPE   H8R20148   2.435   3.904   9.825  0.9533 -0.0519  1.4324
  177SOPE   H8S20149   2.357   3.754   9.899 -1.6191  0.3952 -0.0664
  177SOPE   C2920150   2.288   3.796   9.705 -0.3610  0.5790 -0.0324
  177SOPE   H9120151   2.209   3.722   9.724  0.0953 -0.4396 -1.8381
  177SOPE  C21020152   2.324   3.819   9.575 -0.0159  0.3734 -0.3401
  177SOPE  H10120153   2.265   3.789   9.487 -3.1997  1.4400  1.2439
  177SOPE  C21120154   2.435   3.910   9.537 -0.4178  0.3668 -0.3349
  177SOPE  H11R20155   2.514   3.845   9.493 -0.4722  0.3657 -0.4321
  177SOPE  H11S20156   2.483   3.955   9.627 -2.6517  2.1396  0.0592
  177SOPE  C21220157   2.400   4.024   9.445  0.0346  1.1174  0.3593
  177SOPE  H12R20158   2.478   4.103   9.445  1.6213 -0.3743 -1.1833
  177SOPE  H12S20159   2.312   4.077   9.487 -1.6294 -1.7067  0.7065
  177SOPE  C21320160   2.372   3.982   9.301 -0.0985  0.2495 -0.0175
  177SOPE  H13R20161   2.278   3.925   9.291  1.8765 -3.1897 -0.3408
  177SOPE  H13S20162   2.452   3.920   9.256 -0.9916  0.6453 -2.2949
  177SOPE  C21420163   2.378   4.107   9.219  0.1956  0.4477  0.1647
  177SOPE  H14R20164   2.472   4.163   9.236  1.3137 -2.1069  3.4014
  177SOPE  H14S20165   2.294   4.177   9.242  0.9842  1.9540 -1.3622
  177SOPE  C21520166   2.362   4.084   9.064  1.0951  0.1402  0.0818
  177SOPE  H15R20167   2.256   4.062   9.039  0.5915  2.2111  0.2155
  177SOPE  H15S20168   2.420   3.994   9.034  0.4862 -0.1463 -0.2454
  177SOPE  C21620169   2.415   4.201   8.975 -0.2305  0.3861  0.8434
  177SOPE  H16R20170   2.511   4.243   9.014 -0.1649 -0.9776  2.2601
  177SOPE  H16S20171   2.334   4.277   8.966 -0.9607 -0.4784 -0.1839
  177SOPE  C21720172   2.451   4.155   8.832 -0.4777  0.0832  0.7451
  177SOPE  H17R20173   2.519   4.068   8.845  2.1070  2.0375  1.2144
  177SOPE  H17S20174   2.517   4.237   8.796  0.3464 -0.9183 -0.1082
  177SOPE  C21820175   2.350   4.106   8.735 -0.4826  0.3534 -0.5361
  177SOPE  H18R20176   2.277   4.038   8.783 -1.3155  1.5573 -0.0250
  177SOPE  H18S20177   2.407   4.047   8.660  0.6360 -0.1761  0.7013
  177SOPE  H18T20178   2.294   4.189   8.686  0.4946  1.5088  0.2223
  177SOPE   C3320179   2.040   4.476  10.340  0.6463  0.0101  0.4313
  177SOPE   H3X20180   2.024   4.552  10.260  3.0297  0.3845  0.2362
  177SOPE   H3Y20181   1.962   4.398  10.327  0.5207  0.1231  0.5028
  177SOPE   C3420182   2.179   4.419  10.319 -0.5297 -0.0133 -0.4467
  177SOPE   H4X20183   2.191   4.347  10.404 -2.4810  0.4886  0.3142
  177SOPE   H4Y20184   2.254   4.500  10.313 -1.4056  0.8072 -0.4734
  177SOPE   C3520185   2.204   4.333  10.189  0.0080 -0.9020 -0.2029
  177SOPE   H5X20186   2.129   4.251  10.180  0.7866 -1.7512  0.6863
  177SOPE   H5Y20187   2.301   4.281  10.208 -0.0825 -1.2734 -0.7554
  177SOPE   C3620188   2.202   4.417  10.058  0.9414 -0.1351 -0.6170
  177SOPE   H6X20189   2.278   4.497  10.061  1.1468 -0.3367 -0.3908
  177SOPE   H6Y20190   2.099   4.460  10.050  1.7488  1.5034 -4.0076
  177SOPE   C3720191   2.216   4.346   9.926  0.2912  0.7977 -0.0752
  177SOPE   H7X20192   2.131   4.276   9.909  0.0787  0.8114  0.8498
  177SOPE   H7Y20193   2.313   4.292   9.938  0.5602  1.4066  0.5521
  177SOPE   C3820194   2.230   4.445   9.806 -0.3951 -0.4992 -0.0593
  177SOPE   H8X20195   2.319   4.508   9.827 -0.7085 -0.4945  1.3042
  177SOPE   H8Y20196   2.148   4.516   9.825  0.4900  0.4844  0.1682
  177SOPE   C3920197   2.225   4.375   9.674 -0.5558  0.2970  0.1969
  177SOPE   H9X20198   2.130   4.323   9.651 -0.4197  0.8946 -1.9739
  177SOPE   H9Y20199   2.308   4.303   9.663 -2.0540 -1.6096  0.8603
  177SOPE  C31020200   2.248   4.474   9.560 -0.0601 -0.3190  0.1852
  177SOPE  H10X20201   2.344   4.523   9.584 -0.4077 -0.0042  0.9413
  177SOPE  H10Y20202   2.170   4.553   9.567 -1.6906 -1.9304  1.3028
  177SOPE  C31120203   2.250   4.408   9.420 -0.1806 -0.4373 -0.4757
  177SOPE  H11X20204   2.148   4.378   9.386 -1.6900  2.8313  0.7309
  177SOPE  H11Y20205   2.320   4.322   9.415 -0.4112 -0.6962  0.5258
  177SOPE  C31220206   2.283   4.521   9.318  0.8758 -0.4239 -0.0573
  177SOPE  H12X20207   2.377   4.575   9.344  1.0436 -1.5551  1.9235
  177SOPE  H12Y20208   2.198   4.592   9.324  2.5240  1.5677  1.7269
  177SOPE  C31320209   2.289   4.463   9.180 -0.8436 -0.1898 -0.2797
  177SOPE  H13X20210   2.183   4.430   9.168 -0.5872 -0.2812 -2.9836
  177SOPE  H13Y20211   2.366   4.382   9.183 -1.1153 -0.4016  1.3130
  177SOPE  C31420212   2.317   4.564   9.073 -0.4252 -0.3394 -0.0204
  177SOPE  H14X20213   2.313   4.512   8.976 -2.4688 -0.5437  0.1301
  177SOPE  H14Y20214   2.422   4.594   9.094 -0.5022 -0.5740  0.7249
  177SOPE  C31520215   2.225   4.690   9.086 -0.4954 -0.0194  0.0866
  177SOPE  H15X20216   2.232   4.744   9.182  1.1460 -0.5627  0.3178
  177SOPE  H15Y20217   2.122   4.654   9.067 -0.8200  0.7844  0.2843
  177SOPE  C31620218   2.249   4.795   8.978  0.4684 -0.2627  0.0318
  177SOPE  H16X20219   2.165   4.867   8.980  0.2635 -0.3497 -2.2545
  177SOPE  H16Y20220   2.253   4.757   8.873  3.2360  1.4237 -0.5932
  177SOPE  C31720221   2.379   4.875   9.007 -0.4585 -0.9700  0.3644
  177SOPE  H17X20222   2.474   4.831   8.970 -0.2680 -2.5052  2.5019
  177SOPE  H17Y20223   2.416   4.881   9.111  2.1884 -0.8102 -0.5189
  177SOPE  C31820224   2.357   5.017   8.957  0.7822  0.0734  0.2970
  177SOPE  H18X20225   2.335   5.000   8.850 -2.5539 -1.4975  1.1076
  177SOPE  H18Y20226   2.445   5.085   8.972  1.2791  0.0068 -1.9833
  177SOPE  H18Z20227   2.266   5.069   8.994  1.5771 -0.5430  3.3668
  178SOPE     N20228   0.716   6.229  11.040 -0.0976  0.5006  0.3365
  178SOPE   HN120229   0.676   6.180  10.957  1.5039  2.9508 -2.0740
  178SOPE   HN220230   0.643   6.220  11.113 -1.4846  0.6613 -0.9797
  178SOPE   HN320231   0.714   6.329  11.010  0.9019  0.3505 -0.2805
  178SOPE   C1220232   0.857   6.177  11.065 -0.2176 -0.2525  0.1991
  178SOPE  H12A20233   0.848   6.085  11.127 -0.9839 -0.6881 -0.5437
  178SOPE  H12B20234   0.914   6.255  11.119  2.8898 -1.7606 -0.6413
  178SOPE   C1120235   0.935   6.151  10.932  0.0628 -0.0128 -0.5830
  178SOPE  H11A20236   1.041   6.150  10.966 -0.9843 -1.3326  3.1823
  178SOPE  H11B20237   0.918   6.244  10.874  0.4906  1.9109  2.1751
  178SOPE     P20238   0.956   5.899  10.885  0.0592  0.3391  0.1382
  178SOPE   O1320239   0.860   5.794  10.842 -0.1025 -0.0917 -0.2500
  178SOPE   O1420240   1.011   5.894  11.029  0.5250 -0.5074 -0.0217
  178SOPE   O1220241   0.897   6.037  10.855 -0.2756  0.0653  0.0482
  178SOPE   O1120242   1.076   5.903  10.781 -0.7697  0.1203 -0.4363
  178SOPE    C120243   1.064   5.952  10.651  0.5584  0.5309  0.5202
  178SOPE    HA20244   0.962   5.983  10.620  1.6103  0.3064 -3.6927
  178SOPE    HB20245   1.090   5.875  10.576  0.9015 -0.3856  1.5497
  178SOPE    C220246   1.165   6.067  10.627  0.2121 -0.5244 -0.7183
  178SOPE    HS20247   1.127   6.147  10.694 -2.1131 -1.9071 -0.2307
  178SOPE   O2120248   1.174   6.097  10.486  0.2423  0.8011  0.4793
  178SOPE   C2120249   1.096   6.192  10.440 -0.8939 -0.1271 -0.8459
  178SOPE   O2220250   1.022   6.257  10.513 -0.0350 -0.5482  0.5271
  178SOPE   C2220251   1.129   6.214  10.288  0.3845  0.3870  0.6889
  178SOPE   H2R20252   1.078   6.128  10.239  0.3040  0.1047  1.2700
  178SOPE   H2S20253   1.238   6.197  10.281  0.4386  0.9420  0.0525
  178SOPE    C320254   1.306   6.027  10.676 -0.2348  0.1754 -0.0315
  178SOPE    HX20255   1.321   5.930  10.623  1.5196 -0.1962  1.0501
  178SOPE    HY20256   1.304   6.001  10.785 -2.3022 -2.4779 -0.5868
  178SOPE   O3120257   1.393   6.142  10.645 -0.1295 -0.1837  0.0529
  178SOPE   C3120258   1.484   6.105  10.553 -0.2376  0.3477 -0.3524
  178SOPE   O3220259   1.493   6.000  10.489  0.0658  0.1714 -0.3393
  178SOPE   C3220260   1.573   6.225  10.541 -0.3724 -0.1565  0.1758
  178SOPE   H2X20261   1.642   6.236  10.628 -0.9230  0.4693  0.5444
  178SOPE   H2Y20262   1.514   6.319  10.541  0.2026  0.2146 -0.5548
  178SOPE   C2320263   1.088   6.347  10.230  0.1223 -0.1053 -0.1938
  178SOPE   H3R20264   1.143   6.424  10.287  1.5808 -0.5471 -0.9497
  178SOPE   H3S20265   0.982   6.380  10.233  0.5000  1.3162  3.9046
  178SOPE   C2420266   1.138   6.358  10.090 -0.0610  0.3060  0.1129
  178SOPE   H4R20267   1.235   6.303  10.088  0.2000  0.7781 -0.2830
  178SOPE   H4S20268   1.086   6.295  10.014 -0.2723  0.3528  0.2200
  178SOPE   C2520269   1.157   6.503  10.050 -0.6046 -0.0064  0.1652
  178SOPE   H5R20270   1.055   6.543  10.032 -0.2040  1.5984  1.2095
  178SOPE   H5S20271   1.201   6.558  10.136  1.1838 -0.1689 -0.6080
  178SOPE   C2620272   1.237   6.525   9.920  0.4857  0.5045 -0.7086
  178SOPE   H6R20273   1.261   6.634   9.919  2.2306  0.2368  1.7209
  178SOPE   H6S20274   1.336   6.476   9.914  0.2645  0.1041 -1.0586
  178SOPE   C2720275   1.147   6.514   9.794  0.4969  0.6811 -0.5761
  178SOPE   H7R20276   1.153   6.415   9.744 -0.4249  0.3211 -0.0042
  178SOPE   H7S20277   1.040   6.521   9.823  0.3051 -0.2262 -1.0151
  178SOPE   C2820278   1.175   6.622   9.680 -0.7664  0.1783 -0.0152
  178SOPE   H8R20279   1.090   6.636   9.610  0.5972  1.3597 -1.5149
  178SOPE   H8S20280   1.189   6.718   9.735 -0.0227 -0.3490  0.7293
  178SOPE   C2920281   1.302   6.587   9.603  0.9757  0.7092  0.4330
  178SOPE   H9120282   1.395   6.617   9.654  0.9030  0.6662  0.5908
  178SOPE  C21020283   1.302   6.531   9.477  0.3269  0.0486 -0.4752
  178SOPE  H10120284   1.400   6.510   9.432  1.5413  2.2229  0.9839
  178SOPE  C21120285   1.185   6.476   9.396  0.3312 -0.2378  0.1011
  178SOPE  H11R20286   1.096   6.542   9.394 -0.5235 -1.3831 -0.5733
  178SOPE  H11S20287   1.152   6.378   9.436 -2.3513  0.0244 -1.2583
  178SOPE  C21220288   1.233   6.439   9.259 -0.0247 -0.0845  0.0354
  178SOPE  H12R20289   1.299   6.518   9.218 -0.2083 -0.8073 -1.7682
  178SOPE  H12S20290   1.144   6.429   9.193 -0.6734 -2.2557  1.1391
  178SOPE  C21320291   1.315   6.310   9.251  0.6244 -0.1945  0.6371
  178SOPE  H13R20292   1.245   6.234   9.293 -0.3306  0.7047  0.7005
  178SOPE  H13S20293   1.407   6.310   9.315  1.4087 -0.8763 -0.4563
  178SOPE  C21420294   1.344   6.270   9.103  0.0179 -0.2546 -0.9108
  178SOPE  H14R20295   1.374   6.369   9.063 -2.7487  1.6189  1.2877
  178SOPE  H14S20296   1.251   6.242   9.047  0.9211 -1.6058 -1.8108
  178SOPE  C21520297   1.451   6.162   9.081  1.0022  0.9614  0.2115
  178SOPE  H15R20298   1.446   6.120   8.979 -0.5407  2.8075 -0.5351
  178SOPE  H15S20299   1.422   6.082   9.153  3.7884 -0.3316 -0.0037
  178SOPE  C21620300   1.597   6.206   9.106 -0.5514 -0.0603 -0.5803
  178SOPE  H16R20301   1.590   6.273   9.195 -0.3304 -0.4515 -0.2682
  178SOPE  H16S20302   1.637   6.269   9.023 -1.7503 -1.2032 -2.0893
  178SOPE  C21720303   1.701   6.096   9.128  0.3729 -1.2700 -0.4263
  178SOPE  H17R20304   1.692   6.017   9.051 -0.0850 -1.1275 -0.5232
  178SOPE  H17S20305   1.675   6.049   9.226 -0.4695  0.0308  0.0059
  178SOPE  C21820306   1.838   6.146   9.152 -0.6521  0.2503 -0.6050
  178SOPE  H18R20307   1.913   6.066   9.161 -1.7324 -0.8153 -0.7842
  178SOPE  H18S20308   1.834   6.212   9.241 -0.4855 -1.4551  0.7127
  178SOPE  H18T20309   1.872   6.200   9.060  0.1094 -1.2362 -1.2275
  178SOPE   C3320310   1.646   6.221  10.401 -0.6751  0.2783 -0.4373
  178SOPE   H3X20311   1.719   6.140  10.383 -1.2725 -0.5528  0.7161
  178SOPE   H3Y20312   1.707   6.314  10.401 -1.1822  0.6256  0.0478
  178SOPE   C3420313   1.553   6.243  10.289 -0.3952 -0.1132 -0.1582
  178SOPE   H4X20314   1.477   6.323  10.301 -0.3840  0.2056 -1.9073
  178SOPE   H4Y20315   1.501   6.150  10.259  2.0364 -0.6356 -3.3284
  178SOPE   C3520316   1.632   6.282  10.157  0.0681 -0.7530 -0.5427
  178SOPE   H5X20317   1.709   6.207  10.128 -0.3180 -0.7327 -1.6694
  178SOPE   H5Y20318   1.680   6.376  10.191 -1.4945 -0.1392  0.0732
  178SOPE   C3620319   1.533   6.310  10.048 -0.6137 -0.1876  0.0530
  178SOPE   H6X20320   1.472   6.397  10.082  0.6761  1.2123 -1.0365
  178SOPE   H6Y20321   1.464   6.228  10.022 -2.2124  1.7429 -2.2601
  178SOPE   C3720322   1.607   6.346   9.920 -0.2947 -0.0332  0.8651
  178SOPE   H7X20323   1.699   6.408   9.922 -0.7124  0.6652 -0.2918
  178SOPE   H7Y20324   1.542   6.413   9.859  0.2904 -0.7120 -0.5605
  178SOPE   C3820325   1.631   6.222   9.824  0.0124 -0.2721 -0.5207
  178SOPE   H8X20326   1.532   6.189   9.785 -1.6148  2.6138  0.8505
  178SOPE   H8Y20327   1.677   6.149   9.894 -0.8290  0.4555  0.8406
  178SOPE   C3920328   1.718   6.251   9.703  0.6233 -0.0575  0.5481
  178SOPE   H9X20329   1.755   6.153   9.667  0.1140 -0.7106  1.7742
  178SOPE   H9Y20330   1.801   6.322   9.723  0.3972  0.4744 -0.2950
  178SOPE  C31020331   1.625   6.318   9.591 -0.6609 -0.0699  0.0686
  178SOPE  H10X20332   1.594   6.413   9.639 -0.0206 -0.5926  1.5753
  178SOPE  H10Y20333   1.543   6.247   9.569 -1.5343  1.1167 -0.6438
  178SOPE  C31120334   1.702   6.357   9.464  0.2396 -0.1244 -0.5980
  178SOPE  H11X20335   1.634   6.386   9.381 -1.6512 -0.7780  0.6508
  178SOPE  H11Y20336   1.744   6.260   9.428 -1.1586 -0.1157 -2.4336
  178SOPE  C31220337   1.819   6.458   9.472  0.3625 -0.1808  0.0942
  178SOPE  H12X20338   1.890   6.431   9.553 -0.8426 -0.7707  0.9945
  178SOPE  H12Y20339   1.775   6.556   9.502 -1.3429 -1.1193  0.7924
  178SOPE  C31320340   1.897   6.462   9.340 -0.4721 -0.5806  0.6277
  178SOPE  H13X20341   1.815   6.469   9.267 -2.0077 -0.6191  2.2749
  178SOPE  H13Y20342   1.965   6.377   9.320  0.0501  0.2181 -1.1801
  178SOPE  C31420343   1.995   6.585   9.330 -0.1642 -0.0104 -0.1012
  178SOPE  H14X20344   2.094   6.582   9.379  0.2481 -0.0066 -0.9105
  178SOPE  H14Y20345   1.935   6.673   9.361 -0.1610  0.4147 -1.2380
  178SOPE  C31520346   2.029   6.623   9.182  0.1435  0.6740  0.5628
  178SOPE  H15X20347   1.944   6.602   9.113  1.5048  0.1131 -1.0171
  178SOPE  H15Y20348   2.109   6.560   9.136 -0.7242 -0.1539  0.1561
  178SOPE  C31620349   2.072   6.774   9.168 -0.5525 -0.2923 -0.7560
  178SOPE  H16X20350   2.148   6.786   9.249 -1.4882 -0.7946  0.2205
  178SOPE  H16Y20351   1.991   6.849   9.176 -0.8222 -0.3076 -2.9398
  178SOPE  C31720352   2.155   6.797   9.037  0.1404 -0.2043 -0.9437
  178SOPE  H17X20353   2.207   6.710   8.993 -0.5113 -0.3593 -1.4283
  178SOPE  H17Y20354   2.228   6.879   9.054 -0.0436 -0.1033 -0.6289
  178SOPE  C31820355   2.049   6.847   8.929  0.3842  0.5939  0.1401
  178SOPE  H18X20356   2.111   6.907   8.859  1.6715  0.0998  0.8239
  178SOPE  H18Y20357   1.966   6.905   8.975 -1.0350 -0.6687 -0.7395
  178SOPE  H18Z20358   2.001   6.759   8.882  1.6786 -1.3287  2.2155
  179SOPE     N20359   2.518   5.898   6.705 -0.0820 -0.2023 -0.7567
  179SOPE   HN120360   2.527   5.795   6.709  2.8537 -0.0491 -1.5403
  179SOPE   HN220361   2.608   5.945   6.682 -0.6155  0.9214 -0.6455
  179SOPE   HN320362   2.500   5.933   6.802  1.1474 -0.0599 -0.5646
  179SOPE   C1220363   2.396   5.938   6.621 -0.1786  0.3999 -0.0992
  179SOPE  H12A20364   2.416   5.909   6.516  1.3145  0.7913  0.0478
  179SOPE  H12B20365   2.390   6.049   6.614 -0.8606  0.2531 -4.6024
  179SOPE   C1120366   2.261   5.875   6.669 -0.4319  0.7107 -0.3519
  179SOPE  H11A20367   2.183   5.946   6.633 -0.2106  1.1048 -0.0580
  179SOPE  H11B20368   2.247   5.879   6.779 -1.4408 -2.9464 -0.2264
  179SOPE     P20369   2.123   5.655   6.617  0.2451 -0.3277 -0.0940
  179SOPE   O1320370   2.136   5.504   6.630 -0.0351 -0.2814 -0.0630
  179SOPE   O1420371   2.067   5.711   6.493  0.2075  0.3762 -0.2153
  179SOPE   O1220372   2.266   5.733   6.629 -0.6605 -0.8975 -0.4944
  179SOPE   O1120373   2.044   5.708   6.742 -0.0307  0.6975 -0.2498
  179SOPE    C120374   2.013   5.641   6.862  0.8819  0.6277  0.2319
  179SOPE    HA20375   2.016   5.530   6.857 -0.0725  0.5565  0.8998
  179SOPE    HB20376   1.905   5.654   6.885  0.0465 -0.2245 -2.7893
  179SOPE    C220377   2.093   5.662   6.988  0.5691  0.3628  0.2589
  179SOPE    HS20378   2.037   5.612   7.070  0.2534 -1.4208 -0.9753
  179SOPE   O2120379   2.111   5.809   7.014 -1.1729  0.0816  0.5545
  179SOPE   C2120380   2.007   5.879   7.029  1.3998  0.6104  0.1010
  179SOPE   O2220381   1.891   5.841   7.036 -0.1907 -0.5089  0.1645
  179SOPE   C2220382   2.042   6.021   7.052  0.5352 -0.7756 -0.2556
  179SOPE   H2R20383   1.946   6.060   7.091  0.8889  0.5094 -0.6254
  179SOPE   H2S20384   2.070   6.066   6.954 -1.4028  0.9597 -0.0892
  179SOPE    C320385   2.230   5.596   7.003 -0.5309 -0.7571  0.4291
  179SOPE    HX20386   2.304   5.632   6.928 -1.2058  0.4857  0.3346
  179SOPE    HY20387   2.220   5.487   6.985  1.2355 -0.9976  0.7040
  179SOPE   O3120388   2.272   5.598   7.138  0.5535  0.3656 -0.1244
  179SOPE   C3120389   2.358   5.692   7.168  0.1651 -0.6284  0.2182
  179SOPE   O3220390   2.407   5.776   7.091 -0.6357 -0.2638 -0.6631
  179SOPE   C3220391   2.405   5.695   7.310 -0.4975  0.4361 -0.6012
  179SOPE   H2X20392   2.418   5.800   7.345  1.3753 -0.2786  1.0402
  179SOPE   H2Y20393   2.499   5.636   7.322 -0.9279 -0.0482  0.5643
  179SOPE   C2320394   2.144   6.047   7.166  0.9346 -0.6709  0.0654
  179SOPE   H3R20395   2.156   6.157   7.164 -0.2873 -0.4510  2.0114
  179SOPE   H3S20396   2.242   5.996   7.154  1.6838  0.7135  0.1535
  179SOPE   C2420397   2.092   6.030   7.313  0.9497  0.4040  0.3058
  179SOPE   H4R20398   2.019   6.110   7.340  2.7390  1.7415  1.4116
  179SOPE   H4S20399   2.040   5.933   7.325  1.4272  0.1706  0.4994
  179SOPE   C2520400   2.203   6.028   7.420 -0.1464 -0.4774  0.6797
  179SOPE   H5R20401   2.279   5.951   7.395  0.8576  0.9653 -0.9569
  179SOPE   H5S20402   2.255   6.126   7.426 -1.5846  0.2198  4.0252
  179SOPE   C2620403   2.161   5.988   7.560  0.3094  0.0589 -0.2251
  179SOPE   H6R20404   2.131   5.881   7.561  1.8482 -0.3987 -0.3340
  179SOPE   H6S20405   2.257   5.993   7.616 -0.6962 -2.0735  1.8620
  179SOPE   C2720406   2.049   6.067   7.621  0.7150  0.3145 -0.0845
  179SOPE   H7R20407   2.063   6.176   7.602 -0.5457  0.4285 -0.4256
  179SOPE   H7S20408   1.959   6.051   7.558 -0.8458  1.8543  1.6056
  179SOPE   C2820409   2.004   6.047   7.764  0.0556 -0.2290  0.9332
  179SOPE   H8R20410   1.923   6.115   7.798  2.0051  1.4495  2.4592
  179SOPE   H8S20411   1.988   5.939   7.783 -0.3382 -0.3152  0.1454
  179SOPE   C2920412   2.123   6.098   7.834 -0.2726 -0.2719 -0.0178
  179SOPE   H9120413   2.204   6.144   7.777  1.0392  1.5038  3.0438
  179SOPE  C21020414   2.143   6.083   7.965  0.1171  0.7925 -0.3520
  179SOPE  H10120415   2.223   6.137   8.017 -2.3162  2.4638  1.9674
  179SOPE  C21120416   2.052   6.009   8.061 -0.3650  0.5338 -0.1255
  179SOPE  H11R20417   2.102   5.916   8.095 -0.3823  0.1793 -1.0482
  179SOPE  H11S20418   1.957   5.979   8.013  0.7694 -1.3775 -1.3157
  179SOPE  C21220419   2.011   6.102   8.177  0.1532  0.1833  0.1555
  179SOPE  H12R20420   1.955   6.182   8.123  0.6701 -0.6986 -1.7688
  179SOPE  H12S20421   2.095   6.145   8.237  0.1970 -1.8769  1.6638
  179SOPE  C21320422   1.922   6.027   8.275 -0.6400 -0.3187  0.3526
  179SOPE  H13R20423   1.989   5.968   8.341 -1.3116  2.0002  3.3518
  179SOPE  H13S20424   1.844   5.966   8.225 -0.2631  0.0347 -0.7013
  179SOPE  C21420425   1.859   6.134   8.361 -0.0656 -0.1695 -0.7209
  179SOPE  H14R20426   1.789   6.203   8.309 -0.9411 -0.3513  0.1824
  179SOPE  H14S20427   1.944   6.200   8.390  0.2550 -0.3130 -1.3177
  179SOPE  C21520428   1.789   6.073   8.486 -0.3615  0.3619  0.2077
  179SOPE  H15R20429   1.855   6.002   8.540 -2.0138 -0.6384  1.0134
  179SOPE  H15S20430   1.699   6.014   8.458  0.5934 -2.3151  2.3125
  179SOPE  C21620431   1.749   6.165   8.608  0.6017 -0.2041  0.7870
  179SOPE  H16R20432   1.683   6.250   8.580  4.3730  3.0233  0.8358
  179SOPE  H16S20433   1.849   6.211   8.625  1.7023 -0.4547 -3.7258
  179SOPE  C21720434   1.704   6.098   8.737  0.7125  0.3736 -1.1654
  179SOPE  H17R20435   1.655   6.158   8.817  0.6415 -2.3531  0.9674
  179SOPE  H17S20436   1.799   6.066   8.785 -0.3487  0.5754  1.2124
  179SOPE  C21820437   1.602   5.977   8.712  0.5824  0.6449 -0.7822
  179SOPE  H18R20438   1.604   5.921   8.807  5.0029  1.1610 -0.3552
  179SOPE  H18S20439   1.629   5.904   8.632 -1.6318  0.1948 -1.1834
  179SOPE  H18T20440   1.497   6.012   8.703  0.8968  1.4649 -1.4861
  179SOPE   C3320441   2.308   5.634   7.411 -0.0350 -0.0343 -0.5742
  179SOPE   H3X20442   2.260   5.539   7.378 -0.3787 -0.2892  0.5904
  179SOPE   H3Y20443   2.223   5.701   7.436  0.6438 -0.4438  3.5223
  179SOPE   C3420444   2.367   5.599   7.550 -0.2546  0.9678  0.4551
  179SOPE   H4X20445   2.451   5.526   7.544 -0.7251  0.4444  0.0201
  179SOPE   H4Y20446   2.288   5.537   7.597  0.1283 -0.0279 -0.1772
  179SOPE   C3520447   2.392   5.723   7.641 -0.3338 -0.5603  0.5626
  179SOPE   H5X20448   2.311   5.796   7.622 -0.0120 -0.5060 -0.7435
  179SOPE   H5Y20449   2.490   5.768   7.613 -0.8088 -1.4601 -3.1663
  179SOPE   C3620450   2.409   5.690   7.787  0.0266 -0.0468  0.4422
  179SOPE   H6X20451   2.499   5.629   7.808  0.5046  0.6366  0.3889
  179SOPE   H6Y20452   2.329   5.616   7.812 -1.4056  0.1594 -2.9461
  179SOPE   C3720453   2.419   5.815   7.878  0.7803 -0.2048  0.0172
  179SOPE   H7X20454   2.417   5.778   7.983 -1.8686 -0.9857 -0.2279
  179SOPE   H7Y20455   2.330   5.880   7.867  1.4824  0.4020 -3.2193
  179SOPE   C3820456   2.546   5.893   7.866 -0.3653 -0.8087  0.5791
  179SOPE   H8X20457   2.524   5.995   7.827  1.0358 -1.3044 -1.7081
  179SOPE   H8Y20458   2.602   5.855   7.778 -2.5355 -0.2085 -1.1540
  179SOPE   C3920459   2.635   5.910   7.990  0.3634  0.1463  0.4550
  179SOPE   H9X20460   2.742   5.913   7.961 -0.0777 -3.5014 -2.3340
  179SOPE   H9Y20461   2.629   5.808   8.035  0.4819  0.4958  1.2666
  179SOPE  C31020462   2.579   6.020   8.083 -0.1100  0.4174  0.4171
  179SOPE  H10X20463   2.471   6.002   8.099  0.1058 -0.5514  0.8261
  179SOPE  H10Y20464   2.601   6.119   8.037  2.8038 -0.5473 -0.4602
  179SOPE  C31120465   2.659   6.009   8.210  0.9198  0.2802 -0.4467
  179SOPE  H11X20466   2.766   6.034   8.189  0.7728  0.9907 -0.3812
  179SOPE  H11Y20467   2.658   5.909   8.258 -0.6355  1.6782  2.6693
  179SOPE  C31220468   2.628   6.121   8.323 -0.6707 -0.0466  0.3083
  179SOPE  H12X20469   2.638   6.220   8.274 -1.2543  0.5647  1.3961
  179SOPE  H12Y20470   2.699   6.104   8.406 -2.2136 -1.4699  1.4121
  179SOPE  C31320471   2.479   6.119   8.364 -0.4253  0.0037 -0.6069
  179SOPE  H13X20472   2.443   6.014   8.372 -0.0012 -0.0044  1.9648
  179SOPE  H13Y20473   2.436   6.169   8.275 -0.6897 -1.8178 -1.5544
  179SOPE  C31420474   2.441   6.197   8.490 -0.5854 -0.1238  0.0840
  179SOPE  H14X20475   2.477   6.302   8.477 -0.5711 -0.2002 -0.5163
  179SOPE  H14Y20476   2.483   6.161   8.586  0.3440  1.6390  0.3730
  179SOPE  C31520477   2.292   6.202   8.506  0.2176 -0.3640 -0.4049
  179SOPE  H15X20478   2.267   6.097   8.530 -0.7880  0.0150  0.2554
  179SOPE  H15Y20479   2.242   6.223   8.408 -2.0634 -0.3000  0.7047
  179SOPE  C31620480   2.254   6.305   8.604 -0.0886 -0.4574 -0.0218
  179SOPE  H16X20481   2.283   6.409   8.580  1.0550  0.2326  3.7115
  179SOPE  H16Y20482   2.311   6.280   8.696 -1.6541 -0.6871  0.9199
  179SOPE  C31720483   2.102   6.309   8.635 -1.1581  0.4957  0.3302
  179SOPE  H17X20484   2.084   6.205   8.671  1.7676 -0.4726 -0.6881
  179SOPE  H17Y20485   2.053   6.318   8.536  1.0325 -1.7228 -1.0962
  179SOPE  C31820486   2.057   6.416   8.742 -0.2431  0.6021  0.5796
  179SOPE  H18X20487   1.947   6.420   8.754 -0.4211  0.9482 -0.9996
  179SOPE  H18Y20488   2.090   6.518   8.714  1.0263  0.3834  1.1908
  179SOPE  H18Z20489   2.115   6.395   8.835  0.2528 -0.1602  0.1114
  180SOPE     N20490   2.041   0.509   6.326  0.4007 -0.0088  0.2990
  180SOPE   HN120491   2.142   0.507   6.352  0.8777 -1.3405 -1.5370
  180SOPE   HN220492   1.983   0.554   6.400 -0.5270 -2.2352  0.9979
  180SOPE   HN320493   2.011   0.411   6.307 -0.3483  0.3585 -0.5135
  180SOPE   C1220494   2.024   0.577   6.194  0.2499  0.7560 -0.8428
  180SOPE  H12A20495   1.916   0.600   6.187  0.4715  1.8264 -0.8765
  180SOPE  H12B20496   2.049   0.497   6.121  2.0809  1.4986 -1.0770
  180SOPE   C1120497   2.107   0.700   6.188  0.3374 -0.5116 -0.3720
  180SOPE  H11A20498   2.080   0.736   6.087  0.4664  0.2460 -0.1455
  180SOPE  H11B20499   2.216   0.691   6.206 -0.0469  0.8137  3.4850
  180SOPE     P20500   2.126   0.921   6.328 -0.1608 -0.2583  0.5129
  180SOPE   O1320501   2.042   0.988   6.428 -0.3052  0.0553  0.0993
  180SOPE   O1420502   2.163   0.999   6.210  0.0925 -0.7579  0.2349
  180SOPE   O1220503   2.048   0.796   6.273 -0.3138  0.9898 -0.5287
  180SOPE   O1120504   2.263   0.868   6.398 -0.2997  0.4101  0.1840
  180SOPE    C120505   2.282   0.778   6.502 -0.4503 -0.0401 -0.5068
  180SOPE    HA20506   2.390   0.752   6.493  0.0134  2.2911 -3.3882
  180SOPE    HB20507   2.222   0.685   6.494 -0.7194  0.2088 -1.5399
  180SOPE    C220508   2.240   0.844   6.636 -0.0920 -0.2255 -0.6165
  180SOPE    HS20509   2.129   0.847   6.630  0.0026  2.0991 -2.8596
  180SOPE   O2120510   2.285   0.982   6.648 -0.3556 -0.8313  0.9342
  180SOPE   C2120511   2.217   1.073   6.723  0.0465  0.6283  0.4472
  180SOPE   O2220512   2.104   1.040   6.764  0.0513  0.2042 -0.0211
  180SOPE   C2220513   2.294   1.200   6.755 -0.5631  0.3265  0.1938
  180SOPE   H2R20514   2.260   1.261   6.668 -0.5624  2.0687  1.3743
  180SOPE   H2S20515   2.403   1.183   6.760 -0.8516 -1.4382  1.2151
  180SOPE    C320516   2.300   0.768   6.760  0.1556  0.5022 -0.1371
  180SOPE    HX20517   2.410   0.780   6.751  0.4316 -1.0293  0.7889
  180SOPE    HY20518   2.290   0.658   6.749 -0.4149  0.6260 -1.0112
  180SOPE   O3120519   2.254   0.818   6.883  0.0835 -0.7617 -0.1832
  180SOPE   C3120520   2.139   0.773   6.934 -0.5817  0.8819  0.1139
  180SOPE   O3220521   2.065   0.693   6.877 -0.1292 -0.0240  0.0868
  180SOPE   C3220522   2.115   0.813   7.074 -0.2531  0.6526  0.1151
  180SOPE   H2X20523   2.129   0.923   7.073 -3.3076  1.1574 -2.2233
  180SOPE   H2Y20524   2.192   0.764   7.138 -0.8318 -1.1988 -0.5566
  180SOPE   C2320525   2.250   1.276   6.884  0.2714 -0.0083 -0.6132
  180SOPE   H3R20526   2.144   1.307   6.880  0.5719  1.1831  0.2144
  180SOPE   H3S20527   2.305   1.373   6.880 -1.7497  1.2082 -0.1736
  180SOPE   C2420528   2.290   1.190   7.009  0.3515 -0.1058 -0.0182
  180SOPE   H4R20529   2.221   1.103   7.007 -0.0232  0.1429 -3.3786
  180SOPE   H4S20530   2.398   1.162   7.007  0.7522  1.2479  1.0092
  180SOPE   C2520531   2.263   1.267   7.147 -0.2847 -0.1783  0.2595
  180SOPE   H5R20532   2.333   1.352   7.154 -0.9493  0.3539  0.5966
  180SOPE   H5S20533   2.162   1.311   7.163  0.5255  1.2309  1.7273
  180SOPE   C2620534   2.286   1.173   7.258  0.5170  0.0344  0.4529
  180SOPE   H6R20535   2.198   1.107   7.253  1.7560 -1.5870 -1.8621
  180SOPE   H6S20536   2.372   1.108   7.230 -0.0237 -0.7375  0.5797
  180SOPE   C2720537   2.303   1.240   7.393 -0.1247 -0.3447 -0.0265
  180SOPE   H7R20538   2.386   1.313   7.391  0.9211 -1.5088 -0.1409
  180SOPE   H7S20539   2.222   1.312   7.420  0.6563 -0.1603  2.0228
  180SOPE   C2820540   2.328   1.136   7.502  0.4969 -0.3640 -0.5413
  180SOPE   H8R20541   2.234   1.078   7.515  0.3457 -0.1445 -0.6397
  180SOPE   H8S20542   2.415   1.072   7.475  0.1941 -0.7292 -0.6539
  180SOPE   C2920543   2.366   1.202   7.628 -0.3843 -0.3560 -0.0132
  180SOPE   H9120544   2.438   1.284   7.614  0.1336 -0.8986 -0.6177
  180SOPE  C21020545   2.307   1.182   7.753 -0.1935 -0.7207 -0.1852
  180SOPE  H10120546   2.345   1.254   7.827 -3.0492  0.2193  0.5153
  180SOPE  C21120547   2.207   1.083   7.805  0.0678  0.6504 -0.4467
  180SOPE  H11R20548   2.241   1.028   7.895 -1.2807 -0.1347 -0.3953
  180SOPE  H11S20549   2.196   1.003   7.728 -0.5323  0.5627 -0.2762
  180SOPE  C21220550   2.067   1.146   7.845 -0.2443  0.4805 -0.2067
  180SOPE  H12R20551   2.027   1.196   7.754  0.4449 -0.5922 -1.1215
  180SOPE  H12S20552   2.081   1.223   7.924 -1.2953 -1.6077  2.1441
  180SOPE  C21320553   1.955   1.043   7.871 -0.1051  0.6350  0.5237
  180SOPE  H13R20554   1.984   0.987   7.962  1.0205  0.1828 -0.1050
  180SOPE  H13S20555   1.966   0.971   7.788 -2.1582 -0.0623  0.7851
  180SOPE  C21420556   1.809   1.089   7.871  0.6847 -0.0486 -0.1078
  180SOPE  H14R20557   1.736   1.005   7.874  0.0808  0.4859  0.7233
  180SOPE  H14S20558   1.788   1.146   7.778 -0.2937 -0.4295 -0.1298
  180SOPE  C21520559   1.777   1.187   7.987 -0.9213 -0.2290 -0.6982
  180SOPE  H15R20560   1.673   1.224   7.979 -1.6289 -2.0740 -0.3321
  180SOPE  H15S20561   1.844   1.276   7.993  2.7197 -2.7105 -1.3263
  180SOPE  C21620562   1.774   1.109   8.123 -0.4118 -0.9145 -0.5267
  180SOPE  H16R20563   1.881   1.089   8.145  0.0421  0.6669 -1.1603
  180SOPE  H16S20564   1.710   1.019   8.108 -2.7162  0.5760 -0.2427
  180SOPE  C21720565   1.727   1.196   8.248 -0.0160 -0.2479 -0.0253
  180SOPE  H17R20566   1.715   1.134   8.339 -0.0506 -0.6946 -0.3325
  180SOPE  H17S20567   1.629   1.237   8.218 -1.0165 -1.2748  1.7001
  180SOPE  C21820568   1.822   1.315   8.270  0.4230  0.6291  0.0373
  180SOPE  H18R20569   1.923   1.270   8.276  0.6226  1.0525 -0.0798
  180SOPE  H18S20570   1.790   1.363   8.365 -1.4404  0.6046 -0.5447
  180SOPE  H18T20571   1.830   1.393   8.192 -0.2839 -0.0929 -0.7680
  180SOPE   C3320572   1.971   0.779   7.136  0.3374 -0.4839  0.5352
  180SOPE   H3X20573   1.953   0.669   7.133 -1.8781 -0.1614 -0.4655
  180SOPE   H3Y20574   1.894   0.824   7.069 -1.4726 -1.9769  1.5173
  180SOPE   C3420575   1.958   0.833   7.278  0.9764 -0.2222  0.0016
  180SOPE   H4X20576   1.882   0.913   7.264 -1.1443 -2.3565 -1.5698
  180SOPE   H4Y20577   2.052   0.873   7.320  0.7149 -0.2100  0.5850
  180SOPE   C3520578   1.908   0.731   7.376 -0.1082  0.1105  0.5457
  180SOPE   H5X20579   1.997   0.666   7.397  1.0185  1.1759 -0.7483
  180SOPE   H5Y20580   1.841   0.654   7.333 -0.6964 -1.9608  4.5807
  180SOPE   C3620581   1.855   0.798   7.499 -0.1257 -0.3659 -0.3030
  180SOPE   H6X20582   1.800   0.892   7.478  0.7248  0.8909  2.6188
  180SOPE   H6Y20583   1.934   0.838   7.566 -1.1282  1.7831 -0.3161
  180SOPE   C3720584   1.759   0.713   7.580  0.0324  0.1669 -0.5763
  180SOPE   H7X20585   1.815   0.622   7.612 -0.0333  0.5016  0.5146
  180SOPE   H7Y20586   1.676   0.678   7.515  1.4827 -2.7975 -1.0360
  180SOPE   C3820587   1.706   0.781   7.711  0.1759 -0.3217 -0.1393
  180SOPE   H8X20588   1.631   0.856   7.678  1.4451  0.1610 -2.0547
  180SOPE   H8Y20589   1.793   0.831   7.760  0.0194  0.9306 -1.0967
  180SOPE   C3920590   1.642   0.676   7.807  0.2396  0.2230  0.2581
  180SOPE   H9X20591   1.724   0.614   7.847  1.5915  0.9725 -1.2738
  180SOPE   H9Y20592   1.560   0.624   7.753  1.6734 -0.1519 -1.6564
  180SOPE  C31020593   1.562   0.726   7.929  0.5345 -0.6234 -0.2410
  180SOPE  H10X20594   1.486   0.798   7.890  1.4137  1.4186  1.6180
  180SOPE  H10Y20595   1.632   0.790   7.986  1.3359 -1.5850 -0.1092
  180SOPE  C31120596   1.503   0.616   8.008  0.7877 -0.1259 -0.1670
  180SOPE  H11X20597   1.558   0.522   8.032 -0.1571 -0.0183  2.9292
  180SOPE  H11Y20598   1.416   0.582   7.947 -1.1575 -0.9602  2.8628
  180SOPE  C31220599   1.439   0.672   8.136  0.1925  0.6710  0.0148
  180SOPE  H12X20600   1.361   0.742   8.100 -0.4675 -1.1195 -2.2671
  180SOPE  H12Y20601   1.515   0.733   8.191 -0.8804  2.3713 -0.3059
  180SOPE  C31320602   1.377   0.562   8.227 -0.2170  0.1764 -0.3169
  180SOPE  H13X20603   1.319   0.502   8.154  0.3584  0.7219 -1.2430
  180SOPE  H13Y20604   1.312   0.621   8.295 -2.9546  1.3060 -3.5988
  180SOPE  C31420605   1.470   0.463   8.301 -0.1369 -0.7066 -0.4603
  180SOPE  H14X20606   1.539   0.523   8.364 -0.5187  0.9083 -1.5268
  180SOPE  H14Y20607   1.545   0.424   8.229  0.9022  0.1886  0.1214
  180SOPE  C31520608   1.398   0.350   8.370  0.9894 -0.0617  0.3779
  180SOPE  H15X20609   1.474   0.271   8.389  1.3292  0.7694  2.9597
  180SOPE  H15Y20610   1.319   0.313   8.302  2.1673 -1.1463 -0.4534
  180SOPE  C31620611   1.324   0.388   8.497 -0.4978 -0.0867 -0.1910
  180SOPE  H16X20612   1.273   0.297   8.535 -2.0281 -0.2785 -2.5050
  180SOPE  H16Y20613   1.248   0.465   8.470 -2.1032 -1.1805  0.9952
  180SOPE  C31720614   1.413   0.456   8.607  0.2076  0.4201 -0.0080
  180SOPE  H17X20615   1.431   0.558   8.565  0.2866  0.3475 -0.1506
  180SOPE  H17Y20616   1.504   0.395   8.623  1.0151  1.1360 -1.5771
  180SOPE  C31820617   1.345   0.478   8.744 -0.2122  0.3546 -0.5383
  180SOPE  H18X20618   1.256   0.541   8.721 -0.4849  0.6106  1.0476
  180SOPE  H18Y20619   1.397   0.547   8.814 -1.2773  1.5199 -0.8419
  180SOPE  H18Z20620   1.324   0.379   8.790 -0.8552  0.6130 -0.2528
  181SOPE     N20621   6.340   2.357   6.255 -0.3580 -0.7789 -0.1862
  181SOPE   HN120622   6.346   2.365   6.358 -0.7046  0.2569 -0.2299
  181SOPE   HN220623   6.277   2.434   6.222  2.5219  2.0815  0.5490
  181SOPE   HN320624   6.302   2.263   6.232  0.7977 -1.9337  2.2810
  181SOPE   C1220625   6.476   2.392   6.195 -0.1722  0.6634 -0.4721
  181SOPE  H12A20626   6.478   2.398   6.084 -0.9392  0.1279 -0.5170
  181SOPE  H12B20627   6.547   2.316   6.236 -2.1693 -0.4986  0.9922
  181SOPE   C1120628   6.526   2.534   6.238  0.2590 -0.2616 -0.0327
  181SOPE  H11A20629   6.540   2.522   6.348 -2.3422 -2.8406  0.1276
  181SOPE  H11B20630   6.438   2.600   6.223 -1.6183 -2.5624  0.4074
  181SOPE     P20631   6.733   2.684   6.218  0.1453 -0.0396  0.2174
  181SOPE   O1320632   6.814   2.744   6.110 -0.3517 -0.6278 -0.7700
  181SOPE   O1420633   6.816   2.634   6.329  0.1656  0.5508  0.8556
  181SOPE   O1220634   6.650   2.564   6.157  0.1742 -0.1762 -0.0065
  181SOPE   O1120635   6.625   2.784   6.276  0.6131  0.1791 -0.5042
  181SOPE    C120636   6.647   2.922   6.283 -1.0038  0.8337 -0.0455
  181SOPE    HA20637   6.549   2.974   6.275 -1.8459 -0.7786 -0.7534
  181SOPE    HB20638   6.707   2.963   6.199 -1.0777  1.4506  0.2000
  181SOPE    C220639   6.706   2.945   6.427 -0.5692  0.0703  0.1236
  181SOPE    HS20640   6.767   2.858   6.459 -0.0088 -0.1687 -1.4708
  181SOPE   O2120641   6.595   2.948   6.517 -0.3620 -0.8453  0.1626
  181SOPE   C2120642   6.631   2.963   6.644 -0.0960 -0.2634 -0.3827
  181SOPE   O2220643   6.748   2.965   6.687 -0.0518  0.0596 -0.0491
  181SOPE   C2220644   6.499   2.967   6.728  0.2111  0.2956 -0.3967
  181SOPE   H2R20645   6.478   2.860   6.745 -1.4088  0.3410 -1.8617
  181SOPE   H2S20646   6.416   3.012   6.670 -0.1376  0.6568  0.3620
  181SOPE    C320647   6.780   3.086   6.435  0.1567  0.5229  0.0364
  181SOPE    HX20648   6.813   3.119   6.334 -2.1011  1.1417 -0.5664
  181SOPE    HY20649   6.865   3.062   6.502 -1.3366 -2.7517  0.9527
  181SOPE   O3120650   6.702   3.197   6.478 -0.2324  0.2902 -0.3896
  181SOPE   C3120651   6.782   3.295   6.529  0.2598 -0.8225 -0.1604
  181SOPE   O3220652   6.903   3.307   6.528 -0.1335  0.8099  0.0411
  181SOPE   C3220653   6.682   3.390   6.590 -0.3872 -0.1388 -0.3689
  181SOPE   H2X20654   6.605   3.327   6.639 -2.4870  1.3441 -1.6230
  181SOPE   H2Y20655   6.623   3.453   6.521 -1.0809 -0.4103 -0.0321
  181SOPE   C2320656   6.525   3.038   6.865  0.1351 -0.3059  0.0075
  181SOPE   H3R20657   6.541   3.146   6.843 -2.7905 -0.1656 -1.9765
  181SOPE   H3S20658   6.621   3.012   6.915  1.2997  1.4676 -1.1620
  181SOPE   C2420659   6.402   3.036   6.959  0.1404  0.2245 -0.4059
  181SOPE   H4R20660   6.306   3.080   6.923 -0.3468  2.6796  3.3243
  181SOPE   H4S20661   6.367   2.934   6.985 -1.9702  1.2828  1.1578
  181SOPE   C2520662   6.443   3.091   7.093 -0.4030 -0.3184 -0.3224
  181SOPE   H5R20663   6.547   3.056   7.109 -0.0596  0.5447 -0.5918
  181SOPE   H5S20664   6.439   3.202   7.089  0.9978 -0.1201  2.1376
  181SOPE   C2620665   6.363   3.039   7.206  0.1454  0.4142  0.1563
  181SOPE   H6R20666   6.256   3.067   7.202  0.1420  0.4396  0.3869
  181SOPE   H6S20667   6.373   2.929   7.211  0.8450  0.4542 -0.2410
  181SOPE   C2720668   6.423   3.071   7.341 -0.0359  0.3937 -0.2131
  181SOPE   H7R20669   6.534   3.068   7.346 -0.0617 -1.3473 -0.0375
  181SOPE   H7S20670   6.389   3.173   7.366 -0.9004  0.0172  0.1898
  181SOPE   C2820671   6.376   2.979   7.459  0.1277 -0.8556  0.8910
  181SOPE   H8R20672   6.269   2.995   7.484 -0.4183 -3.3780  0.3817
  181SOPE   H8S20673   6.383   2.874   7.425 -1.2558 -0.4245 -0.8841
  181SOPE   C2920674   6.451   3.001   7.590  0.0012 -0.2207 -0.1793
  181SOPE   H9120675   6.504   2.906   7.606 -2.6561 -1.6378  0.8065
  181SOPE  C21020676   6.456   3.101   7.681 -0.0869  0.2219 -0.0641
  181SOPE  H10120677   6.515   3.086   7.772  0.0414  1.8012  0.1438
  181SOPE  C21120678   6.372   3.220   7.668 -0.1039 -0.0055  0.1774
  181SOPE  H11R20679   6.292   3.217   7.744  1.0432  1.5261  1.5185
  181SOPE  H11S20680   6.318   3.232   7.571 -0.6958 -0.0187  0.5020
  181SOPE  C21220681   6.449   3.361   7.684  0.1615  0.6855 -0.3057
  181SOPE  H12R20682   6.396   3.454   7.655  0.2001  0.9465  0.4282
  181SOPE  H12S20683   6.534   3.357   7.612  1.4188  0.4166  1.1390
  181SOPE  C21320684   6.514   3.383   7.825 -0.7717 -0.1652  0.2467
  181SOPE  H13R20685   6.608   3.442   7.819 -0.5220 -0.4571  1.0618
  181SOPE  H13S20686   6.533   3.286   7.876 -2.7537 -1.5095 -1.4416
  181SOPE  C21420687   6.420   3.456   7.915  0.0457 -0.1828  0.7734
  181SOPE  H14R20688   6.333   3.389   7.934  1.8172 -2.5162  1.1954
  181SOPE  H14S20689   6.387   3.548   7.861  1.2396 -0.1170  0.1262
  181SOPE  C21520690   6.481   3.504   8.042 -0.0753 -0.0084 -0.5242
  181SOPE  H15R20691   6.567   3.573   8.025  0.0474 -0.6577 -2.8589
  181SOPE  H15S20692   6.534   3.424   8.097 -0.3147 -0.2597 -0.6608
  181SOPE  C21620693   6.387   3.572   8.144 -0.3785  0.1040  0.0412
  181SOPE  H16R20694   6.298   3.508   8.165 -0.7282  0.1335 -1.2314
  181SOPE  H16S20695   6.362   3.668   8.094  0.8305  0.5022  0.1892
  181SOPE  C21720696   6.461   3.598   8.279 -0.1661  0.1297 -0.1964
  181SOPE  H17R20697   6.543   3.670   8.258  0.3375 -1.0061 -2.4187
  181SOPE  H17S20698   6.493   3.494   8.301  1.8817  0.4876 -1.2115
  181SOPE  C21820699   6.358   3.641   8.385 -0.0435 -0.0599 -0.2662
  181SOPE  H18R20700   6.320   3.738   8.347 -0.3027  0.9164  2.3103
  181SOPE  H18S20701   6.402   3.652   8.487 -2.1769  1.7810  0.5236
  181SOPE  H18T20702   6.279   3.564   8.397  1.4016 -1.4140  1.1252
  181SOPE   C3320703   6.750   3.483   6.696 -0.6250 -0.1030 -0.4433
  181SOPE   H3X20704   6.683   3.570   6.717 -2.4897 -1.1554 -1.7034
  181SOPE   H3Y20705   6.838   3.533   6.652 -3.0405  4.1909 -0.9353
  181SOPE   C3420706   6.777   3.404   6.831  0.2047 -0.0859  0.5373
  181SOPE   H4X20707   6.857   3.329   6.814 -0.0676  0.1544 -2.2265
  181SOPE   H4Y20708   6.684   3.348   6.856 -0.4907  1.1694  0.8791
  181SOPE   C3520709   6.818   3.500   6.937  0.4418  0.2919 -0.0834
  181SOPE   H5X20710   6.739   3.574   6.961  2.4293  3.4250 -2.3112
  181SOPE   H5Y20711   6.897   3.561   6.888 -0.3805  0.6946 -0.9490
  181SOPE   C3620712   6.858   3.417   7.063 -0.2859  0.1338  0.5943
  181SOPE   H6X20713   6.942   3.347   7.043 -1.6991 -1.5880  0.4089
  181SOPE   H6Y20714   6.774   3.351   7.093 -0.5344 -0.7405 -1.7756
  181SOPE   C3720715   6.892   3.507   7.187  0.3975  0.4591  0.0039
  181SOPE   H7X20716   6.953   3.587   7.141 -0.6153 -0.1374 -2.5222
  181SOPE   H7Y20717   6.967   3.455   7.251  0.5477  1.3703  0.5768
  181SOPE   C3820718   6.765   3.542   7.272 -0.4957  0.2828  0.3758
  181SOPE   H8X20719   6.727   3.445   7.310  0.0253  0.4939  1.4985
  181SOPE   H8Y20720   6.685   3.585   7.209 -0.4382  1.0684  0.8223
  181SOPE   C3920721   6.784   3.644   7.392  0.5369  0.3819  0.0902
  181SOPE   H9X20722   6.814   3.743   7.351 -2.0213  1.6510  1.0404
  181SOPE   H9Y20723   6.865   3.616   7.463  0.8252 -0.1989 -0.4565
  181SOPE  C31020724   6.662   3.646   7.478  0.1534 -0.0278 -0.2456
  181SOPE  H10X20725   6.631   3.549   7.523  0.6620  0.7085  1.7751
  181SOPE  H10Y20726   6.575   3.672   7.413 -1.5964  0.7466  2.2624
  181SOPE  C31120727   6.659   3.755   7.587  0.3071 -0.0831 -0.5324
  181SOPE  H11X20728   6.568   3.745   7.649 -1.6179  0.1436 -3.1502
  181SOPE  H11Y20729   6.647   3.854   7.536  2.8394  0.4746 -0.1740
  181SOPE  C31220730   6.774   3.760   7.691  0.4628 -0.5113  0.0468
  181SOPE  H12X20731   6.866   3.790   7.635  1.5993 -2.1867  0.9246
  181SOPE  H12Y20732   6.785   3.654   7.721 -0.9202 -1.3650 -2.2640
  181SOPE  C31320733   6.771   3.855   7.813  0.3241 -0.1079 -0.3744
  181SOPE  H13X20734   6.789   3.960   7.781  1.2928 -0.1590 -0.0264
  181SOPE  H13Y20735   6.847   3.815   7.883 -0.0282 -0.8332 -0.3948
  181SOPE  C31420736   6.636   3.851   7.885 -0.2647 -0.5792 -0.9968
  181SOPE  H14X20737   6.618   3.744   7.911 -0.4189 -0.6606 -1.4210
  181SOPE  H14Y20738   6.551   3.882   7.821 -0.3826  1.3439  0.0238
  181SOPE  C31520739   6.640   3.941   8.012  0.4516  0.0103  0.3190
  181SOPE  H15X20740   6.684   4.041   7.993 -0.7273  0.7676  1.4171
  181SOPE  H15Y20741   6.705   3.891   8.087  1.2279 -0.6090 -0.7309
  181SOPE  C31620742   6.498   3.958   8.069  0.1512  0.2549 -0.4430
  181SOPE  H16X20743   6.452   3.858   8.080  0.8123 -0.3357 -2.5867
  181SOPE  H16Y20744   6.438   4.008   7.990 -1.8789 -1.8373 -0.3304
  181SOPE  C31720745   6.489   4.028   8.206  0.2431  0.2323  0.2256
  181SOPE  H17X20746   6.543   4.125   8.204  0.7634 -0.0514 -1.4864
  181SOPE  H17Y20747   6.533   3.959   8.280 -1.4114 -2.0034 -0.7559
  181SOPE  C31820748   6.347   4.064   8.250 -0.1224 -0.6793 -0.5185
  181SOPE  H18X20749   6.304   3.980   8.309 -0.0723 -0.1024  0.3634
  181SOPE  H18Y20750   6.278   4.084   8.165  0.5620 -0.8693 -1.1264
  181SOPE  H18Z20751   6.339   4.151   8.319  0.6173  1.3384 -2.8231
  182SOPE     N20752   1.193   1.185   6.312  0.4895 -0.7339  0.4387
  182SOPE   HN120753   1.156   1.123   6.237 -0.1151  0.7434 -0.5395
  182SOPE   HN220754   1.176   1.285   6.288  0.6022 -1.4167 -2.8943
  182SOPE   HN320755   1.296   1.181   6.317  0.5216 -1.3439 -0.5869
  182SOPE   C1220756   1.123   1.147   6.435  0.7230 -0.1120  0.4765
  182SOPE  H12A20757   1.018   1.180   6.421  0.9861  0.4663 -0.1758
  182SOPE  H12B20758   1.168   1.209   6.516  1.6098  0.7658 -0.6530
  182SOPE   C1120759   1.133   1.000   6.471  0.1390 -0.2727  0.1925
  182SOPE  H11A20760   1.043   0.971   6.529 -1.1369 -2.1989 -2.5396
  182SOPE  H11B20761   1.226   0.986   6.530  1.0960 -1.7185 -1.5402
  182SOPE     P20762   1.061   0.774   6.347 -0.3409 -0.2893 -0.2347
  182SOPE   O1320763   1.112   0.710   6.224  0.9072 -0.2547 -0.0258
  182SOPE   O1420764   0.914   0.791   6.362  0.3321  0.0011 -0.5891
  182SOPE   O1220765   1.137   0.913   6.357 -0.0517  0.3217 -0.2457
  182SOPE   O1120766   1.107   0.693   6.471 -0.6487  0.2991  0.0641
  182SOPE    C120767   1.238   0.671   6.507 -1.4964  0.2493  0.0763
  182SOPE    HA20768   1.292   0.764   6.534  0.8371 -0.5279 -1.5574
  182SOPE    HB20769   1.299   0.620   6.429  2.0175  3.5276  0.3962
  182SOPE    C220770   1.251   0.571   6.625  0.4226  0.4100 -0.4548
  182SOPE    HS20771   1.216   0.473   6.586  1.2486 -2.0213  4.2321
  182SOPE   O2120772   1.165   0.616   6.736 -0.6059 -0.1924 -0.3109
  182SOPE   C2120773   1.138   0.519   6.829 -0.2522  0.1424  0.4543
  182SOPE   O2220774   1.134   0.401   6.808  0.2476  0.1393 -0.4084
  182SOPE   C2220775   1.108   0.591   6.964 -0.7786  0.8268  0.3060
  182SOPE   H2R20776   1.028   0.665   6.942  0.7258  2.4358 -0.0445
  182SOPE   H2S20777   1.193   0.654   6.999 -1.2824  1.5291  0.2945
  182SOPE    C320778   1.403   0.549   6.670 -1.5295 -0.1806 -0.1462
  182SOPE    HX20779   1.452   0.649   6.677  1.7593 -1.7913  2.6581
  182SOPE    HY20780   1.450   0.488   6.590  0.3180 -0.9455  1.4507
  182SOPE   O3120781   1.426   0.489   6.800  0.5279 -0.3615  0.1188
  182SOPE   C3120782   1.458   0.364   6.812 -0.5131  0.2999 -0.5125
  182SOPE   O3220783   1.459   0.273   6.730  0.1496 -0.1481  0.0628
  182SOPE   C3220784   1.496   0.346   6.962  0.5367  0.0206 -0.5644
  182SOPE   H2X20785   1.493   0.444   7.015  0.2376  0.0565 -0.6428
  182SOPE   H2Y20786   1.604   0.321   6.960  0.8186  0.9463  1.1572
  182SOPE   C2320787   1.053   0.488   7.072  0.1172  0.2762  0.4683
  182SOPE   H3R20788   1.136   0.415   7.070  0.5035  0.6953  0.8202
  182SOPE   H3S20789   0.961   0.445   7.029  1.6188 -1.0075 -1.6224
  182SOPE   C2420790   1.023   0.546   7.207  0.0410 -0.0779  0.0024
  182SOPE   H4R20791   0.948   0.627   7.199 -2.3411 -2.1222  0.4557
  182SOPE   H4S20792   0.973   0.460   7.257 -1.7046 -0.2133 -1.8602
  182SOPE   C2520793   1.151   0.580   7.290 -0.8172  0.8912 -0.3286
  182SOPE   H5R20794   1.211   0.661   7.243  2.0868 -1.2275 -0.5127
  182SOPE   H5S20795   1.124   0.613   7.393 -1.0119  1.6293 -0.6097
  182SOPE   C2620796   1.247   0.463   7.312  0.9301  0.6542 -0.7093
  182SOPE   H6R20797   1.186   0.371   7.324  0.8247  0.5357 -1.9852
  182SOPE   H6S20798   1.304   0.453   7.217  1.0253  1.1224 -0.7042
  182SOPE   C2720799   1.346   0.478   7.427 -0.2373  0.4647 -0.4344
  182SOPE   H7R20800   1.438   0.514   7.376 -0.1963 -2.4927 -2.6904
  182SOPE   H7S20801   1.315   0.556   7.500  2.5788  2.9744 -1.7165
  182SOPE   C2820802   1.369   0.343   7.479 -0.1069  0.7054 -0.5858
  182SOPE   H8R20803   1.270   0.300   7.505  0.3776 -0.0069  0.1011
  182SOPE   H8S20804   1.419   0.295   7.392 -0.7940 -1.4896  0.1672
  182SOPE   C2920805   1.450   0.357   7.608  0.5071 -0.6137  0.1201
  182SOPE   H9120806   1.510   0.449   7.608  2.0780 -1.6071  0.3975
  182SOPE  C21020807   1.464   0.264   7.706  0.4079 -1.0068  0.5213
  182SOPE  H10120808   1.514   0.294   7.799  2.6391  2.7810 -1.6321
  182SOPE  C21120809   1.393   0.130   7.716 -0.5663  0.1576 -0.7521
  182SOPE  H11R20810   1.448   0.052   7.659 -0.0750  0.5066 -0.7677
  182SOPE  H11S20811   1.289   0.137   7.678 -1.2187 -1.0523  0.7112
  182SOPE  C21220812   1.380   0.108   7.871 -0.1805  0.8789 -0.0937
  182SOPE  H12R20813   1.321   0.187   7.922 -2.2119  0.7484 -2.0863
  182SOPE  H12S20814   1.480   0.103   7.920  0.0067 -0.0211 -0.5446
  182SOPE  C21320815   1.306  -0.030   7.889 -0.0183 -0.6501 -0.5574
  182SOPE  H13R20816   1.358  -0.119   7.848 -2.0091 -2.3112  0.3571
  182SOPE  H13S20817   1.217  -0.031   7.822 -0.2944  0.3450 -0.2175
  182SOPE  C21420818   1.262  -0.066   8.031 -0.0177 -1.2144  0.0501
  182SOPE  H14R20819   1.342  -0.076   8.108  0.7203  2.0344 -0.1377
  182SOPE  H14S20820   1.224  -0.168   8.010  0.6403 -1.0803 -2.0375
  182SOPE  C21520821   1.164   0.029   8.092  0.4595 -0.3198  0.3622
  182SOPE  H15R20822   1.069   0.021   8.034 -0.0720  0.4696  1.0879
  182SOPE  H15S20823   1.197   0.135   8.087  0.9830 -0.5023 -0.1307
  182SOPE  C21620824   1.131   0.002   8.239 -0.3897 -0.4561 -0.4626
  182SOPE  H16R20825   1.076   0.088   8.282 -0.6500  0.0703 -1.7929
  182SOPE  H16S20826   1.220  -0.020   8.302 -0.0001 -1.3843 -1.3149
  182SOPE  C21720827   1.034  -0.115   8.252  0.2189  0.0628 -0.0644
  182SOPE  H17R20828   1.086  -0.198   8.199  1.9513 -1.5828  3.7852
  182SOPE  H17S20829   0.938  -0.095   8.201  0.3463 -3.0846 -1.7790
  182SOPE  C21820830   1.004  -0.157   8.396 -0.5870 -0.4192  0.3274
  182SOPE  H18R20831   1.100  -0.174   8.448  0.4698  2.2430 -0.5400
  182SOPE  H18S20832   0.937  -0.245   8.397 -1.8539  0.4036 -2.1744
  182SOPE  H18T20833   0.947  -0.078   8.451 -3.4499 -2.3005  0.2426
  182SOPE   C3320834   1.414   0.241   7.044  0.6026  0.1518 -0.4435
  182SOPE   H3X20835   1.305   0.237   7.024 -0.0630 -0.2377  2.7770
  182SOPE   H3Y20836   1.423   0.271   7.150 -0.0843  1.5350 -0.7530
  182SOPE   C3420837   1.461   0.095   7.030  0.0828  0.9068  0.2656
  182SOPE   H4X20838   1.571   0.096   7.044  0.7377  0.6188 -3.8039
  182SOPE   H4Y20839   1.449   0.063   6.925 -0.2629  1.1514  0.2303
  182SOPE   C3520840   1.391  -0.012   7.121  0.4523  0.8200 -0.0995
  182SOPE   H5X20841   1.450  -0.106   7.123 -0.6460  0.0746 -1.2207
  182SOPE   H5Y20842   1.293  -0.041   7.078  1.3657  0.0512 -1.7441
  182SOPE   C3620843   1.377   0.033   7.270  0.2164 -0.1724  0.0509
  182SOPE   H6X20844   1.300   0.111   7.285 -1.1549 -1.5672  0.4285
  182SOPE   H6Y20845   1.467   0.074   7.322  0.3515 -1.4849  0.9041
  182SOPE   C3720846   1.345  -0.091   7.355  1.2501  0.2622 -0.7530
  182SOPE   H7X20847   1.255  -0.139   7.312  0.6103 -1.3189  2.1080
  182SOPE   H7Y20848   1.326  -0.060   7.459 -1.0599  0.0232 -1.0644
  182SOPE   C3820849   1.462  -0.193   7.362  0.3426 -0.2122 -0.0066
  182SOPE   H8X20850   1.541  -0.145   7.423 -1.1570  0.3515  1.5779
  182SOPE   H8Y20851   1.516  -0.228   7.271 -0.8260 -0.4979 -0.6207
  182SOPE   C3920852   1.423  -0.322   7.438  0.0008  0.2865 -0.1179
  182SOPE   H9X20853   1.504  -0.398   7.440 -0.4969 -0.2419  0.6287
  182SOPE   H9Y20854   1.341  -0.374   7.383 -1.0066 -0.8822  2.2952
  182SOPE  C31020855   1.382  -0.303   7.586 -0.0252  0.7196 -0.0434
  182SOPE  H10X20856   1.290  -0.240   7.589 -0.5855  0.3577 -4.1654
  182SOPE  H10Y20857   1.457  -0.237   7.636  1.2687 -1.1892  0.6376
  182SOPE  C31120858   1.364  -0.430   7.661 -0.5242 -0.2736  0.5588
  182SOPE  H11X20859   1.461  -0.484   7.662 -1.8466 -2.9105 -0.5824
  182SOPE  H11Y20860   1.295  -0.484   7.592 -1.3851  0.6056  0.7207
  182SOPE  C31220861   1.305  -0.425   7.805 -0.4673  0.0740  0.5568
  182SOPE  H12X20862   1.249  -0.517   7.830 -0.5704 -0.0487 -0.0859
  182SOPE  H12Y20863   1.230  -0.342   7.808  1.1318  1.6724 -0.8640
  182SOPE  C31320864   1.407  -0.409   7.919  0.0308 -0.1544 -0.3199
  182SOPE  H13X20865   1.463  -0.313   7.914 -1.9108  0.9979 -1.9343
  182SOPE  H13Y20866   1.484  -0.488   7.921  0.9772  0.7408  1.6632
  182SOPE  C31420867   1.349  -0.421   8.069  0.0129 -0.1518  0.4723
  182SOPE  H14X20868   1.249  -0.373   8.075  0.2438  0.3961  0.0285
  182SOPE  H14Y20869   1.411  -0.349   8.127  0.5478  1.0777 -1.5262
  182SOPE  C31520870   1.353  -0.562   8.126 -0.1831 -0.8977  0.4180
  182SOPE  H15X20871   1.457  -0.593   8.154  0.4704  0.6975 -0.1415
  182SOPE  H15Y20872   1.315  -0.633   8.050  1.0938 -0.2457 -0.8823
  182SOPE  C31620873   1.274  -0.557   8.254  0.0482  0.2421  0.0221
  182SOPE  H16X20874   1.171  -0.518   8.241  0.1201  0.3838 -0.1318
  182SOPE  H16Y20875   1.316  -0.491   8.333 -0.2577  1.3475 -0.7185
  182SOPE  C31720876   1.262  -0.704   8.310  0.0536 -0.8796  0.2094
  182SOPE  H17X20877   1.362  -0.743   8.338  0.4186  2.1917  4.0537
  182SOPE  H17Y20878   1.212  -0.758   8.227 -0.1382  0.5445 -0.6324
  182SOPE  C31820879   1.174  -0.701   8.433 -0.2572 -0.9107  0.5020
  182SOPE  H18X20880   1.191  -0.618   8.506 -4.0580  1.6988 -1.2238
  182SOPE  H18Y20881   1.181  -0.795   8.491  1.8184 -1.4719 -0.6031
  182SOPE  H18Z20882   1.069  -0.692   8.396  0.4344 -0.6607 -1.4851
  183SOPE     N20883   4.181   4.054   6.375 -0.0025  1.2670  0.0966
  183SOPE   HN120884   4.086   4.021   6.404  0.4951  1.2812  1.8616
  183SOPE   HN220885   4.184   4.102   6.282 -1.7672  0.8272 -0.2300
  183SOPE   HN320886   4.216   3.956   6.367 -1.6082  0.7249 -0.8734
  183SOPE   C1220887   4.239   4.135   6.483 -0.4791 -0.5706  0.4681
  183SOPE  H12A20888   4.192   4.107   6.580 -0.0291 -0.0950  0.8336
  183SOPE  H12B20889   4.202   4.239   6.468 -1.1980 -0.9688 -0.6436
  183SOPE   C1120890   4.394   4.109   6.479  0.8712 -0.6024 -0.2180
  183SOPE  H11A20891   4.439   4.163   6.565 -0.0333 -0.4760  0.1914
  183SOPE  H11B20892   4.441   4.156   6.390 -0.2701 -1.1444 -1.1286
  183SOPE     P20893   4.460   3.903   6.607 -0.1427  0.2674 -0.6859
  183SOPE   O1320894   4.584   3.963   6.667  0.1404  0.2728  0.5062
  183SOPE   O1420895   4.456   3.760   6.578  0.3446 -0.3906  0.0193
  183SOPE   O1220896   4.421   3.971   6.471 -0.0854 -0.0800 -0.0145
  183SOPE   O1120897   4.334   3.944   6.700 -0.1349 -0.7430  0.2449
  183SOPE    C120898   4.232   3.847   6.747 -0.0361 -0.3133 -0.6128
  183SOPE    HA20899   4.229   3.744   6.706 -0.8081 -1.1559  1.4445
  183SOPE    HB20900   4.134   3.889   6.715 -0.8828 -1.0088  0.9407
  183SOPE    C220901   4.233   3.847   6.904  0.2012  0.6422  0.3704
  183SOPE    HS20902   4.337   3.831   6.939  0.3537 -1.3467 -0.8432
  183SOPE   O2120903   4.145   3.744   6.951  0.1265 -0.0651  0.4679
  183SOPE   C2120904   4.194   3.623   6.938 -0.4642 -0.2234 -0.2671
  183SOPE   O2220905   4.313   3.599   6.915 -0.5563  0.0489 -0.3380
  183SOPE   C2220906   4.079   3.525   6.949 -0.0067 -0.2807 -0.1273
  183SOPE   H2R20907   4.016   3.520   6.858 -1.4530 -0.4033  0.8429
  183SOPE   H2S20908   4.017   3.546   7.039  1.2936 -0.7855  0.9173
  183SOPE    C320909   4.179   3.983   6.952 -0.7389  0.2620 -0.2464
  183SOPE    HX20910   4.069   3.997   6.945 -0.8365 -0.9696 -1.9706
  183SOPE    HY20911   4.234   4.057   6.891  0.8438  0.8026  1.6970
  183SOPE   O3120912   4.229   3.999   7.087 -0.4449  0.0141 -0.0964
  183SOPE   C3120913   4.145   3.950   7.181 -0.0328  0.2656  0.2856
  183SOPE   O3220914   4.032   3.912   7.155 -0.1002 -0.2692  0.1953
  183SOPE   C3220915   4.211   3.949   7.318 -0.7282 -0.5658  0.2371
  183SOPE   H2X20916   4.245   4.054   7.325 -1.2935 -0.4236  1.0592
  183SOPE   H2Y20917   4.308   3.895   7.320  0.1038  0.8981  1.0090
  183SOPE   C2320918   4.138   3.387   6.988  0.6892 -0.1776 -0.3142
  183SOPE   H3R20919   4.213   3.390   7.070 -0.1164 -0.4656  0.4564
  183SOPE   H3S20920   4.192   3.347   6.900  1.1800 -1.4007  0.5205
  183SOPE   C2420921   4.025   3.284   7.029  0.0776 -0.2672 -0.1450
  183SOPE   H4R20922   3.955   3.323   7.106  1.8822  0.4865  1.1922
  183SOPE   H4S20923   3.971   3.264   6.934 -0.4536  2.9821 -0.6515
  183SOPE   C2520924   4.090   3.149   7.078 -0.3267 -0.3948 -0.2473
  183SOPE   H5R20925   4.022   3.064   7.058 -0.9688  0.6693 -3.0199
  183SOPE   H5S20926   4.181   3.129   7.017 -0.7130  0.2034 -1.0437
  183SOPE   C2620927   4.126   3.141   7.225  0.1983 -0.3084  0.4264
  183SOPE   H6R20928   4.209   3.071   7.250 -1.0422 -1.8520  0.3573
  183SOPE   H6S20929   4.161   3.243   7.253  2.8232 -1.5004  1.8974
  183SOPE   C2720930   4.007   3.097   7.300  0.0253 -0.5672 -0.4997
  183SOPE   H7R20931   3.925   3.169   7.280  0.4897  0.4995  1.2287
  183SOPE   H7S20932   3.989   2.991   7.271  1.0188 -0.7099 -0.6418
  183SOPE   C2820933   4.023   3.113   7.453 -0.4374  0.5585 -0.5573
  183SOPE   H8R20934   4.053   3.214   7.488 -0.0048 -0.1005  1.0917
  183SOPE   H8S20935   3.927   3.085   7.501  0.3615 -1.4575 -0.0198
  183SOPE   C2920936   4.119   3.005   7.511 -0.4896  0.1829 -0.1819
  183SOPE   H9120937   4.146   2.926   7.439 -0.5026  1.5353 -1.7206
  183SOPE  C21020938   4.189   3.012   7.629 -0.3502 -0.2094  0.4632
  183SOPE  H10120939   4.260   2.930   7.648 -1.1063 -0.7815  0.8859
  183SOPE  C21120940   4.187   3.122   7.734 -0.1465 -0.3081  0.0874
  183SOPE  H11R20941   4.119   3.205   7.704  0.6399 -0.4142 -2.1817
  183SOPE  H11S20942   4.288   3.164   7.754 -0.7792  0.5548  1.6602
  183SOPE  C21220943   4.129   3.070   7.874 -0.3831 -0.7983 -0.1510
  183SOPE  H12R20944   4.030   3.024   7.854 -2.1402  1.8741  1.7129
  183SOPE  H12S20945   4.095   3.148   7.946 -0.6174 -1.0555  0.0189
  183SOPE  C21320946   4.223   2.978   7.954 -0.0748  0.3309 -0.0466
  183SOPE  H13R20947   4.329   3.009   7.968 -0.1093  0.5312 -0.2159
  183SOPE  H13S20948   4.243   2.885   7.896  0.0427 -0.5234  1.3214
  183SOPE  C21420949   4.170   2.951   8.099 -0.4932  0.4428  0.5812
  183SOPE  H14R20950   4.079   2.891   8.077  0.6306 -0.3863 -2.1588
  183SOPE  H14S20951   4.130   3.038   8.155 -0.8159  0.1789  0.7711
  183SOPE  C21520952   4.252   2.859   8.180 -0.1340  0.5089  0.0605
  183SOPE  H15R20953   4.348   2.910   8.202  0.4197 -0.5301  0.1231
  183SOPE  H15S20954   4.271   2.770   8.116  0.6314  1.0982 -0.5474
  183SOPE  C21620955   4.186   2.800   8.305  0.2661  0.1932 -0.1857
  183SOPE  H16R20956   4.086   2.763   8.273  0.3394  0.8162 -1.1916
  183SOPE  H16S20957   4.168   2.874   8.386 -0.0206 -2.2715  2.1379
  183SOPE  C21720958   4.238   2.662   8.363 -0.2719 -0.7128  0.1787
  183SOPE  H17R20959   4.194   2.655   8.465  0.3022  0.0462  0.4898
  183SOPE  H17S20960   4.347   2.681   8.365 -0.4034  0.6694 -1.9930
  183SOPE  C21820961   4.216   2.534   8.282  0.4595 -0.3785  0.2421
  183SOPE  H18R20962   4.280   2.451   8.320 -0.9972 -0.4977  2.6665
  183SOPE  H18S20963   4.238   2.539   8.174  1.3304 -1.6583  0.3422
  183SOPE  H18T20964   4.114   2.492   8.292  0.5566 -1.4037 -2.3312
  183SOPE   C3320965   4.125   3.903   7.439  0.0724 -0.2300  0.6206
  183SOPE   H3X20966   4.094   3.796   7.442  4.1394 -1.6610 -1.1566
  183SOPE   H3Y20967   4.026   3.954   7.434  0.4670  0.4784 -0.1251
  183SOPE   C3420968   4.188   3.935   7.578 -0.1173 -0.4857 -0.0209
  183SOPE   H4X20969   4.235   4.034   7.560 -0.0827 -0.5805 -0.4703
  183SOPE   H4Y20970   4.266   3.858   7.596  0.7709  0.6163  0.9393
  183SOPE   C3520971   4.087   3.939   7.698 -0.5383  0.4139  0.4866
  183SOPE   H5X20972   4.019   3.855   7.672 -1.4206  1.0284  0.8113
  183SOPE   H5Y20973   4.028   4.031   7.682 -0.0065  0.2641 -3.7376
  183SOPE   C3620974   4.144   3.950   7.838 -0.2661 -0.0892  0.9086
  183SOPE   H6X20975   4.168   4.055   7.862  0.3668 -0.1891  0.7284
  183SOPE   H6Y20976   4.235   3.886   7.840  0.2503  0.6341  0.8380
  183SOPE   C3720977   4.051   3.896   7.948  0.4026  0.3804 -0.7310
  183SOPE   H7X20978   4.002   3.803   7.912 -1.4254  0.9478  0.1496
  183SOPE   H7Y20979   3.967   3.968   7.961  1.0304  1.1675 -0.9362
  183SOPE   C3820980   4.127   3.875   8.076  0.5077 -0.0705 -0.3991
  183SOPE   H8X20981   4.170   3.968   8.119  1.1489 -1.0740  1.2111
  183SOPE   H8Y20982   4.216   3.814   8.049  0.7967 -0.2085  0.8253
  183SOPE   C3920983   4.051   3.805   8.191 -1.0234 -0.0022 -0.2852
  183SOPE   H9X20984   4.049   3.701   8.152 -0.4969  0.4473 -1.5494
  183SOPE   H9Y20985   3.944   3.835   8.196 -0.8653  0.8693 -1.5690
  183SOPE  C31020986   4.121   3.809   8.335 -0.1206  0.4312 -0.0670
  183SOPE  H10X20987   4.122   3.914   8.371 -0.9149  0.3411  0.2568
  183SOPE  H10Y20988   4.228   3.792   8.313 -0.1036  0.7995 -0.2801
  183SOPE  C31120989   4.078   3.712   8.449 -0.0150  0.6873 -0.2780
  183SOPE  H11X20990   4.149   3.718   8.535 -1.0841  1.1249  0.6074
  183SOPE  H11Y20991   4.087   3.615   8.397  0.7052  0.2363  0.6630
  183SOPE  C31220992   3.932   3.735   8.495 -0.1646 -0.0957 -0.1258
  183SOPE  H12X20993   3.864   3.741   8.407  0.7009 -1.5505 -0.9292
  183SOPE  H12Y20994   3.931   3.827   8.557 -0.3056 -2.2541  3.3327
  183SOPE  C31320995   3.885   3.627   8.594  0.4227  0.0492  0.1285
  183SOPE  H13X20996   3.970   3.600   8.661  1.7581  1.4233 -0.9428
  183SOPE  H13Y20997   3.849   3.536   8.541 -0.5289  0.6097 -0.1969
  183SOPE  C31420998   3.765   3.663   8.686  0.6368  0.3137  0.4824
  183SOPE  H14X20999   3.796   3.735   8.764 -0.8195  1.2196  0.2678
  183SOPE  H14Y21000   3.726   3.572   8.737 -1.9715  1.1305  0.1066
  183SOPE  C31521001   3.639   3.728   8.621 -0.4836 -0.7864 -0.2387
  183SOPE  H15X21002   3.666   3.824   8.572 -2.4463 -0.4492 -0.7798
  183SOPE  H15Y21003   3.569   3.760   8.702 -0.3071 -1.7435  0.3037
  183SOPE  C31621004   3.586   3.643   8.506 -0.2616 -0.3650 -0.1983
  183SOPE  H16X21005   3.569   3.540   8.545  1.7957 -0.5077  0.4494
  183SOPE  H16Y21006   3.661   3.632   8.425  0.4969  0.3313  0.3907
  183SOPE  C31721007   3.449   3.699   8.449 -1.0487  0.0710 -0.3851
  183SOPE  H17X21008   3.394   3.736   8.538  1.2587 -0.4008  1.3453
  183SOPE  H17Y21009   3.395   3.617   8.396 -1.3876 -1.4989  2.1912
  183SOPE  C31821010   3.463   3.814   8.349  0.0432  0.6899 -0.5184
  183SOPE  H18X21011   3.362   3.848   8.319 -0.8330 -2.0674 -0.9250
  183SOPE  H18Y21012   3.495   3.780   8.248 -2.3641 -0.8999 -0.8303
  183SOPE  H18Z21013   3.535   3.890   8.386  1.1064 -0.1660 -0.7829
  184SOPE     N21014   2.939   3.862   6.183 -0.0316  0.2276  0.1333
  184SOPE   HN121015   2.921   3.835   6.084 -0.9920  1.6614 -0.1171
  184SOPE   HN221016   2.885   3.950   6.199  0.0025  0.3760 -0.5186
  184SOPE   HN321017   3.042   3.878   6.188  0.3500 -1.1245 -1.9950
  184SOPE   C1221018   2.879   3.762   6.276  0.0326  0.1442  0.3795
  184SOPE  H12A21019   2.905   3.792   6.380 -0.0817  2.7501 -0.2792
  184SOPE  H12B21020   2.914   3.660   6.251 -0.8772 -0.5632  1.8369
  184SOPE   C1121021   2.728   3.771   6.272 -0.2722 -1.4393  0.6945
  184SOPE  H11A21022   2.682   3.686   6.328 -0.6706 -0.7618  1.4114
  184SOPE  H11B21023   2.689   3.754   6.169  1.7486  0.0285 -0.3505
  184SOPE     P21024   2.571   3.937   6.406  0.2762  0.1468  0.0958
  184SOPE   O1321025   2.448   3.867   6.368 -0.2188  0.3796  0.2695
  184SOPE   O1421026   2.561   4.086   6.414 -0.0528 -0.5526  0.4182
  184SOPE   O1221027   2.687   3.905   6.300 -0.4246  0.2404  0.0659
  184SOPE   O1121028   2.627   3.887   6.539  0.0324  0.0176  0.4534
  184SOPE    C121029   2.610   3.756   6.591 -0.3353 -0.2769  0.4140
  184SOPE    HA21030   2.706   3.725   6.638 -0.6586  0.6160  1.7179
  184SOPE    HB21031   2.599   3.689   6.502  2.8432  0.9525 -1.0682
  184SOPE    C221032   2.510   3.741   6.706 -0.3158  0.9492 -0.2639
  184SOPE    HS21033   2.416   3.794   6.678 -0.8041  0.7337  0.8765
  184SOPE   O2121034   2.564   3.801   6.826 -0.0067  0.2708 -1.0015
  184SOPE   C2121035   2.471   3.847   6.901 -0.2549 -0.3069  0.1720
  184SOPE   O2221036   2.350   3.854   6.878 -0.3749  0.5963  0.3846
  184SOPE   C2221037   2.535   3.895   7.027 -0.0639 -0.4846 -0.0864
  184SOPE   H2R21038   2.554   4.003   7.010 -1.0516 -0.1384  0.9018
  184SOPE   H2S21039   2.624   3.832   7.044  1.1307  0.5420 -2.0732
  184SOPE    C321040   2.484   3.590   6.725  0.8113 -0.3989  0.1370
  184SOPE    HX21041   2.581   3.541   6.748  1.9337  0.3606 -2.5858
  184SOPE    HY21042   2.453   3.548   6.627 -3.0894  0.1644  0.9735
  184SOPE   O3121043   2.391   3.562   6.828  0.4023 -0.8306  0.1487
  184SOPE   C3121044   2.263   3.528   6.813  0.0419 -0.5540  0.1986
  184SOPE   O3221045   2.210   3.498   6.707  0.1437  0.1515 -0.2510
  184SOPE   C3221046   2.201   3.535   6.947  0.4692  0.1600 -0.4705
  184SOPE   H2X21047   2.172   3.638   6.977  1.0547  0.7369 -1.8156
  184SOPE   H2Y21048   2.279   3.511   7.022  0.3268 -1.1498 -0.7171
  184SOPE   C2321049   2.432   3.890   7.148 -0.4172 -0.7918  0.2811
  184SOPE   H3R21050   2.412   3.785   7.181 -3.4922 -0.6354 -0.7941
  184SOPE   H3S21051   2.331   3.928   7.125 -0.2648 -1.3226 -1.3379
  184SOPE   C2421052   2.487   3.971   7.267  0.2216 -0.9626 -0.4047
  184SOPE   H4R21053   2.587   3.934   7.298  1.3043  1.2553 -1.0624
  184SOPE   H4S21054   2.499   4.074   7.229 -1.1602 -0.0490  1.4740
  184SOPE   C2521055   2.391   3.964   7.390 -0.4869 -0.5603  0.0794
  184SOPE   H5R21056   2.287   3.995   7.365 -0.1096  0.1910 -0.5717
  184SOPE   H5S21057   2.394   3.855   7.414 -2.3695 -0.7857 -0.5118
  184SOPE   C2621058   2.437   4.041   7.513 -0.2903 -0.6215  1.0916
  184SOPE   H6R21059   2.545   4.034   7.535  0.1337 -1.4424 -0.9729
  184SOPE   H6S21060   2.422   4.150   7.491  1.1482 -0.3388  1.4438
  184SOPE   C2721061   2.357   4.009   7.636  0.1369  0.0744  0.2553
  184SOPE   H7R21062   2.256   4.048   7.612  0.3954  1.0434  0.6712
  184SOPE   H7S21063   2.353   3.901   7.662  1.0706  0.3297  1.6007
  184SOPE   C2821064   2.416   4.083   7.760  0.1507 -0.7391  0.1335
  184SOPE   H8R21065   2.351   4.047   7.843 -0.6566 -0.0338 -0.1699
  184SOPE   H8S21066   2.523   4.066   7.781  0.3031  0.6930  0.5789
  184SOPE   C2921067   2.385   4.235   7.754 -0.2367 -0.1876  0.2547
  184SOPE   H9121068   2.367   4.280   7.655 -0.9942 -0.7818  0.1101
  184SOPE  C21021069   2.372   4.314   7.858 -0.1127  0.6923 -0.3071
  184SOPE  H10121070   2.330   4.415   7.845  0.3101  0.7973 -0.9037
  184SOPE  C21121071   2.369   4.272   8.004 -0.5804 -0.3211  0.7932
  184SOPE  H11R21072   2.396   4.165   8.013 -1.5963 -0.7324 -0.7304
  184SOPE  H11S21073   2.265   4.276   8.043 -0.3615  2.0820  1.3187
  184SOPE  C21221074   2.467   4.356   8.087 -0.6415  0.0218 -0.4398
  184SOPE  H12R21075   2.451   4.466   8.085 -0.1778  0.1233  0.5385
  184SOPE  H12S21076   2.571   4.334   8.053  0.0480  0.7972  1.0614
  184SOPE  C21321077   2.454   4.332   8.241 -0.2191  0.8894  0.8520
  184SOPE  H13R21078   2.461   4.222   8.256  1.6399  0.9625  0.7073
  184SOPE  H13S21079   2.348   4.355   8.265 -0.9521  0.6838 -1.7753
  184SOPE  C21421080   2.547   4.424   8.327  0.0224 -0.0978 -0.3489
  184SOPE  H14R21081   2.512   4.529   8.322 -2.4738 -0.9137 -2.5273
  184SOPE  H14S21082   2.648   4.423   8.282 -0.3171 -0.3129 -1.1213
  184SOPE  C21521083   2.556   4.377   8.477  0.7665 -0.1394  0.3870
  184SOPE  H15R21084   2.634   4.443   8.519  1.0139  0.7459 -1.3821
  184SOPE  H15S21085   2.589   4.271   8.480 -2.0522 -1.0836  2.0476
  184SOPE  C21621086   2.424   4.391   8.551 -0.2161  0.1243  0.0647
  184SOPE  H16R21087   2.423   4.368   8.660 -1.1215 -1.1632 -0.1915
  184SOPE  H16S21088   2.337   4.335   8.510 -0.8289  0.0452  1.4120
  184SOPE  C21721089   2.389   4.541   8.550  0.4497 -0.4619  0.4436
  184SOPE  H17R21090   2.362   4.577   8.449  0.5842 -1.4451  0.0532
  184SOPE  H17S21091   2.477   4.602   8.579  0.4058 -0.3111  0.2558
  184SOPE  C21821092   2.262   4.564   8.639 -0.3779  0.8070  0.0680
  184SOPE  H18R21093   2.175   4.503   8.606 -0.1008  1.0556 -1.1520
  184SOPE  H18S21094   2.236   4.672   8.634  0.4235  1.2430  3.1227
  184SOPE  H18T21095   2.278   4.538   8.746  1.4032  0.0362 -0.3559
  184SOPE   C3321096   2.082   3.437   6.968 -0.9685 -0.3455 -0.1354
  184SOPE   H3X21097   2.114   3.333   6.946 -0.3080  0.4851 -3.6320
  184SOPE   H3Y21098   2.003   3.457   6.894 -1.8676 -2.0117  0.3459
  184SOPE   C3421099   2.016   3.434   7.106 -0.0549 -0.8101 -0.1364
  184SOPE   H4X21100   1.944   3.519   7.107 -1.1717 -1.6530  2.9854
  184SOPE   H4Y21101   2.084   3.458   7.190 -0.3501 -2.0875  0.4745
  184SOPE   C3521102   1.930   3.316   7.138  0.5224  0.4794  0.2100
  184SOPE   H5X21103   2.005   3.239   7.166 -1.4610 -1.4489  0.4818
  184SOPE   H5Y21104   1.875   3.291   7.045  1.0084 -1.9382  0.4923
  184SOPE   C3621105   1.827   3.325   7.249 -0.8685  0.6367 -0.1370
  184SOPE   H6X21106   1.776   3.228   7.267  0.1552  0.0665 -0.2195
  184SOPE   H6Y21107   1.745   3.394   7.221 -1.1802  0.9459  1.4185
  184SOPE   C3721108   1.887   3.385   7.381  0.4221  0.2825 -0.3102
  184SOPE   H7X21109   1.903   3.494   7.365  2.0323  0.0427 -0.5654
  184SOPE   H7Y21110   1.990   3.352   7.406 -0.5392 -1.2712  1.8857
  184SOPE   C3821111   1.794   3.357   7.496 -0.1411 -0.2442 -0.2660
  184SOPE   H8X21112   1.770   3.249   7.509 -0.6044 -0.0133  0.8907
  184SOPE   H8Y21113   1.698   3.406   7.471 -0.8369 -1.8800 -0.9461
  184SOPE   C3921114   1.854   3.400   7.633  0.7433 -0.1455  0.1073
  184SOPE   H9X21115   1.895   3.503   7.634  1.2193 -0.0611  5.9232
  184SOPE   H9Y21116   1.937   3.329   7.656  0.7635 -0.8121 -1.8776
  184SOPE  C31021117   1.758   3.369   7.745  0.2956 -0.0152 -0.1056
  184SOPE  H10X21118   1.736   3.260   7.739 -0.2944  0.1590 -1.7520
  184SOPE  H10Y21119   1.653   3.395   7.719 -0.1386  0.6672  2.1534
  184SOPE  C31121120   1.803   3.430   7.883  0.0933 -0.6176  0.1934
  184SOPE  H11X21121   1.722   3.422   7.958 -0.5012 -0.1009 -0.3883
  184SOPE  H11Y21122   1.841   3.534   7.874  0.7114 -0.7553  1.0024
  184SOPE  C31221123   1.921   3.352   7.945 -0.0202  0.4952 -0.3668
  184SOPE  H12X21124   2.014   3.363   7.885 -0.4806 -1.2414 -1.4602
  184SOPE  H12Y21125   1.891   3.246   7.938  0.2050  0.3546  0.6734
  184SOPE  C31321126   1.954   3.386   8.092 -0.5308 -0.3098 -0.1459
  184SOPE  H13X21127   1.858   3.395   8.147 -0.2454 -0.2542  0.3466
  184SOPE  H13Y21128   2.006   3.484   8.093 -1.3611  0.2323 -2.5873
  184SOPE  C31421129   2.041   3.282   8.161  0.2703  0.2521 -0.0584
  184SOPE  H14X21130   2.143   3.314   8.131  0.8628 -0.2018  1.3839
  184SOPE  H14Y21131   2.016   3.182   8.119 -1.5542  0.5184  0.3342
  184SOPE  C31521132   2.035   3.264   8.310  0.0284 -0.7052  0.3260
  184SOPE  H15X21133   1.944   3.206   8.338 -0.5342 -0.0641 -0.1350
  184SOPE  H15Y21134   2.037   3.363   8.360 -0.2506 -0.9840  0.8969
  184SOPE  C31621135   2.155   3.177   8.367  0.8346 -0.2939  0.6639
  184SOPE  H16X21136   2.257   3.220   8.354  1.5075 -1.9833 -0.0089
  184SOPE  H16Y21137   2.147   3.077   8.318 -1.7683  0.5331 -0.7618
  184SOPE  C31721138   2.126   3.154   8.519  0.3940  0.1837  0.4619
  184SOPE  H17X21139   2.195   3.075   8.553 -0.1728 -0.6028 -0.1636
  184SOPE  H17Y21140   2.019   3.131   8.537  0.2445 -1.1727 -1.7506
  184SOPE  C31821141   2.160   3.274   8.592 -0.1267 -0.1631  1.1585
  184SOPE  H18X21142   2.093   3.356   8.558 -1.4148 -1.7285 -0.2752
  184SOPE  H18Y21143   2.258   3.316   8.559  0.2396 -2.3612 -0.8066
  184SOPE  H18Z21144   2.143   3.254   8.699 -3.0060  0.4375  0.8833
  185SAPI   C1221145   2.743   5.785  10.846 -0.2619 -0.4676 -0.1031
  185SAPI    H221146   2.698   5.775  10.745 -1.5632 -0.7758  0.4802
  185SAPI    O221147   2.879   5.752  10.821  0.8735 -0.1760  0.2197
  185SAPI   HO221148   2.892   5.716  10.733  0.2110 -0.7924  0.3657
  185SAPI   C1321149   2.738   5.930  10.881  0.5792 -0.8563  0.4959
  185SAPI    H321150   2.630   5.948  10.899 -0.0056 -2.5753 -1.0444
  185SAPI    O321151   2.778   6.012  10.768  0.5398  0.1403 -0.3961
  185SAPI   HO321152   2.869   5.984  10.760  0.2790 -2.2807  2.6870
  185SAPI   C1421153   2.808   5.962  11.011  0.5288  0.0118 -0.9711
  185SAPI    H421154   2.912   5.924  11.007 -0.0574 -2.1415  1.4598
  185SAPI    O421155   2.824   6.097  11.043 -0.1440 -0.8804  0.4363
  185SAPI   HO421156   2.916   6.104  11.070  0.1106  4.7560 -0.6692
  185SAPI   C1521157   2.757   5.877  11.124 -0.4002 -0.7341  0.0480
  185SAPI    H521158   2.653   5.910  11.145 -1.5107 -3.2902 -0.9718
  185SAPI    O521159   2.829   5.902  11.245 -0.0857  0.8131 -0.0843
  185SAPI   HO521160   2.916   5.862  11.246  0.2553  1.4374  2.6674
  185SAPI   C1621161   2.756   5.733  11.091  0.5211  0.5966 -0.0060
  185SAPI    H621162   2.864   5.707  11.087  0.5363  0.5216  0.6979
  185SAPI    O621163   2.690   5.667  11.195 -0.3183 -0.0064 -0.7488
  185SAPI   HO621164   2.599   5.695  11.181 -0.3773  0.0556 -0.2601
  185SAPI   C1121165   2.680   5.710  10.957  0.2442  0.1450  0.6736
  185SAPI    H121166   2.577   5.747  10.977  0.2894  0.0125  1.1654
  185SAPI     P21167   2.579   5.521  10.798 -0.0143  0.3899  0.0976
  185SAPI   O1321168   2.479   5.625  10.762 -0.3749 -0.1069 -0.1179
  185SAPI   O1421169   2.537   5.389  10.845  0.5076 -0.1962 -0.6952
  185SAPI   O1221170   2.665   5.575  10.924 -0.7202 -0.3357  0.1859
  185SAPI   O1121171   2.689   5.513  10.681 -0.0977  0.5502  0.1520
  185SAPI    C121172   2.777   5.407  10.694  0.4110  0.7257  0.4821
  185SAPI    HA21173   2.797   5.390  10.802 -0.3189  0.6483  0.6112
  185SAPI    HB21174   2.729   5.319  10.646  1.7637  1.3412 -2.2002
  185SAPI    C221175   2.920   5.434  10.632  0.3218 -0.5730  0.0226
  185SAPI    HS21176   2.973   5.509  10.694 -0.1546  1.1589 -1.5652
  185SAPI   O2121177   2.926   5.470  10.491  0.7002 -0.4800 -0.4270
  185SAPI   C2121178   2.897   5.599  10.476  0.1270 -0.3112  0.5051
  185SAPI   O2221179   2.902   5.685  10.561 -0.2755 -0.0787 -0.2432
  185SAPI   C2221180   2.882   5.617  10.327  0.1361 -0.6311 -0.3792
  185SAPI   H2R21181   2.929   5.715  10.308 -1.1456  0.0780 -0.0282
  185SAPI   H2S21182   2.929   5.539  10.263  2.4938 -0.0341  0.5090
  185SAPI    C321183   3.002   5.310  10.651  0.4049  0.2191 -0.3843
  185SAPI    HX21184   3.002   5.263  10.752 -0.2851 -1.8583 -1.2815
  185SAPI    HY21185   3.105   5.342  10.622 -0.1526  1.4721 -1.0634
  185SAPI   O3121186   2.944   5.200  10.575 -0.8316 -0.1134 -0.2530
  185SAPI   C3121187   3.026   5.113  10.525 -0.4864 -0.0901 -0.2841
  185SAPI   O3221188   3.146   5.108  10.551  0.3576 -0.1701 -0.1990
  185SAPI   C3221189   2.963   5.008  10.440  0.2227  0.6978 -0.4230
  185SAPI   H2X21190   2.946   5.056  10.341  0.1398  2.3501  0.3520
  185SAPI   H2Y21191   2.864   4.977  10.479  0.9234  0.3300  1.1517
  185SAPI   C2321192   2.732   5.623  10.292 -0.0878 -0.3404  0.1641
  185SAPI   H3R21193   2.671   5.684  10.361  0.6382 -0.4662  0.9367
  185SAPI   H3S21194   2.690   5.521  10.300 -0.0993 -0.4887 -1.4649
  185SAPI   C2421195   2.704   5.679  10.147  0.7921 -0.0815  0.1491
  185SAPI   H4R21196   2.594   5.675  10.126  0.7281  0.1294  0.4396
  185SAPI   H4S21197   2.745   5.600  10.081 -0.7803 -0.3840 -0.5176
  185SAPI   C2521198   2.774   5.813  10.117  0.0411 -0.3327 -0.8289
  185SAPI   H5R21199   2.795   5.880  10.202  2.5366  1.6497 -2.8382
  185SAPI   C2621200   2.813   5.846   9.996  0.6840 -0.9814 -0.2752
  185SAPI   H6R21201   2.854   5.947   9.981  1.1060 -1.1392 -0.1905
  185SAPI   C2721202   2.788   5.765   9.872  0.7620 -0.3419 -0.3434
  185SAPI   H7R21203   2.762   5.823   9.781 -0.1793 -0.1168  0.0461
  185SAPI   H7S21204   2.699   5.699   9.885 -0.7036  1.6167  0.1970
  185SAPI   C2821205   2.905   5.674   9.824  0.2387 -0.7915  0.8076
  185SAPI   H8R21206   2.980   5.648   9.900  1.3229 -1.8820 -0.6077
  185SAPI   C2921207   2.928   5.635   9.695  0.1400 -0.5210  0.3373
  185SAPI   H9R21208   3.000   5.555   9.672  0.4209  0.1764 -1.3790
  185SAPI  C21021209   2.854   5.671   9.570  0.2129  0.0289 -0.9921
  185SAPI  H10R21210   2.776   5.747   9.592  2.4899  2.3405 -0.3833
  185SAPI  H10S21211   2.796   5.585   9.531  1.2879 -0.8937 -0.5929
  185SAPI  C21121212   2.933   5.745   9.461  0.1146  0.6642  0.2144
  185SAPI  H11R21213   3.037   5.777   9.478  0.2790  1.9662 -2.6557
  185SAPI  C21221214   2.878   5.782   9.341 -0.3185 -0.2484 -0.8564
  185SAPI  H12R21215   2.935   5.830   9.260  0.3234  1.1652  0.3866
  185SAPI  C21321216   2.729   5.761   9.314  0.1293 -0.8002 -0.1840
  185SAPI  H13R21217   2.671   5.838   9.370  1.9458  1.1685 -0.9001
  185SAPI  H13S21218   2.693   5.664   9.356  0.0632 -0.2953  0.9739
  185SAPI  C21421219   2.709   5.777   9.166  0.7085 -0.6807 -0.3278
  185SAPI  H14R21220   2.740   5.687   9.111 -2.2308 -2.2250  0.3620
  185SAPI  C21521221   2.644   5.873   9.109  0.1865  0.3532 -0.2160
  185SAPI  H15R21222   2.643   5.876   8.999 -2.1004 -0.1603 -0.2604
  185SAPI  C21621223   2.574   5.992   9.164 -0.5033 -0.1668 -0.3246
  185SAPI  H16R21224   2.598   6.080   9.101 -2.0151 -0.2101 -1.0170
  185SAPI  H16S21225   2.590   6.017   9.271  2.4314  2.0023 -1.1626
  185SAPI  C21721226   2.421   5.977   9.139 -0.1986 -0.8718 -0.4100
  185SAPI  H17R21227   2.358   6.056   9.185  0.7032 -0.5931  0.3678
  185SAPI  H17S21228   2.390   5.884   9.192  0.1867 -0.1522  1.1187
  185SAPI  C21821229   2.390   5.975   8.988 -0.3083 -0.0447 -0.3263
  185SAPI  H18R21230   2.412   5.869   8.963 -1.5383 -0.5675  0.7226
  185SAPI  H18S21231   2.469   6.033   8.935  0.1080 -0.8683 -0.6376
  185SAPI  C21921232   2.249   6.019   8.941 -0.6644 -0.2269 -1.0637
  185SAPI  H19R21233   2.253   6.130   8.945 -1.0692 -0.1464 -2.3178
  185SAPI  H19S21234   2.172   5.980   9.010 -0.7704  1.5071 -0.1458
  185SAPI  C22021235   2.235   5.967   8.800 -0.4158  0.0474  0.0569
  185SAPI  H20R21236   2.217   5.858   8.800 -1.5265  0.2171  0.1848
  185SAPI  H20S21237   2.325   5.980   8.737 -1.4466 -0.4162 -1.5819
  185SAPI  H20T21238   2.145   5.998   8.742 -0.3269  0.4222  0.1169
  185SAPI   C3321239   3.058   4.886  10.433 -0.8643 -0.4920  0.5946
  185SAPI   H3X21240   3.056   4.833  10.530 -0.3006  1.7230  1.8906
  185SAPI   H3Y21241   3.161   4.916  10.403 -1.6674  2.1311  0.1553
  185SAPI   C3421242   3.014   4.775  10.335  0.2780 -0.2740  0.2868
  185SAPI   H4X21243   2.911   4.741  10.359 -0.2198  2.0771  1.7584
  185SAPI   H4Y21244   3.075   4.683  10.350 -0.4176 -0.8821 -0.4729
  185SAPI   C3521245   3.032   4.811  10.186 -0.0279  0.4085 -0.3966
  185SAPI   H5X21246   3.136   4.841  10.162  0.1368  0.8309  0.7731
  185SAPI   H5Y21247   2.968   4.896  10.153  0.3433 -0.7789 -4.6903
  185SAPI   C3621248   3.004   4.685  10.102  0.6138 -0.2874  0.5714
  185SAPI   H6X21249   2.903   4.645  10.124  0.7318 -1.4849 -0.8731
  185SAPI   H6Y21250   3.075   4.608  10.138 -0.4916 -0.9217  1.4394
  185SAPI   C3721251   3.014   4.710   9.952 -0.1913 -0.5106 -0.0380
  185SAPI   H7X21252   3.117   4.747   9.934 -0.1983 -1.5731 -2.7759
  185SAPI   H7Y21253   2.943   4.791   9.928  2.5711  1.3003 -2.9700
  185SAPI   C3821254   2.986   4.595   9.857 -0.2674 -0.1238  0.3585
  185SAPI   H8X21255   2.877   4.575   9.854 -0.1886 -0.9485  1.9350
  185SAPI   H8Y21256   3.028   4.503   9.904  1.0536 -0.1192 -0.7396
  185SAPI   C3921257   3.053   4.622   9.723 -0.0298 -0.4809 -0.1217
  185SAPI   H9X21258   3.159   4.651   9.735 -0.4725  2.5578 -2.2370
  185SAPI   H9Y21259   3.008   4.718   9.688 -2.7214 -1.1691  1.1463
  185SAPI  C31021260   3.032   4.496   9.634 -0.4672  0.0789  0.2554
  185SAPI  H10X21261   2.923   4.488   9.613 -0.2709  0.4240 -0.9194
  185SAPI  H10Y21262   3.050   4.406   9.697 -0.2188 -1.2088 -1.6016
  185SAPI  C31121263   3.128   4.493   9.508 -0.1662  0.5749  0.0276
  185SAPI  H11X21264   3.121   4.393   9.461 -1.8172  0.4040  0.5709
  185SAPI  H11Y21265   3.236   4.492   9.535  0.6972  0.3671 -3.0379
  185SAPI  C31221266   3.097   4.594   9.403  0.8310  0.4493  0.0682
  185SAPI  H12X21267   3.128   4.699   9.420  0.8229  0.2881  1.1427
  185SAPI  H12Y21268   2.987   4.602   9.390  0.7501 -0.5092  0.0795
  185SAPI  C31321269   3.154   4.557   9.265  0.6120  0.1083 -0.3448
  185SAPI  H13X21270   3.077   4.493   9.216 -0.2210 -0.1900  1.2962
  185SAPI  H13Y21271   3.245   4.493   9.264 -0.4168 -1.4102 -0.7331
  185SAPI  C31421272   3.165   4.686   9.178 -0.3348  0.1053 -0.5115
  185SAPI  H14X21273   3.243   4.754   9.221 -0.6983  0.5904 -0.6052
  185SAPI  H14Y21274   3.067   4.739   9.180  0.4177  1.5414  0.4186
  185SAPI  C31521275   3.210   4.664   9.036 -0.8691  0.8690  0.0855
  185SAPI  H15X21276   3.143   4.594   8.981 -0.7574  0.7673  0.0787
  185SAPI  H15Y21277   3.294   4.592   9.050 -2.3414 -1.1407 -0.7751
  185SAPI  C31621278   3.241   4.788   8.948 -0.3882 -0.2242  0.5883
  185SAPI  H16X21279   3.275   4.878   9.005 -3.0973  1.1773  0.1298
  185SAPI  H16Y21280   3.149   4.833   8.907  0.4265 -2.2415 -4.0068
  185SAPI  C31721281   3.345   4.772   8.844 -0.3204  0.0261  0.0387
  185SAPI  H17X21282   3.442   4.741   8.888  0.0405 -0.0028 -0.7628
  185SAPI  H17Y21283   3.367   4.870   8.797 -2.5187  0.4646 -0.2068
  185SAPI  C31821284   3.317   4.667   8.732  0.3771 -0.0940  0.7639
  185SAPI  H18X21285   3.222   4.701   8.684  1.2893  1.0809 -0.2774
  185SAPI  H18Y21286   3.308   4.561   8.765 -0.0599 -0.1475  0.4925
  185SAPI  H18Z21287   3.386   4.661   8.645 -1.9112 -0.3562 -1.1494
  186SAPI   C1221288   3.682   2.396  10.977  0.1598  0.0519  0.2903
  186SAPI    H221289   3.750   2.469  11.027  0.0867 -0.1370  0.6667
  186SAPI    O221290   3.726   2.268  11.019 -0.4697  0.6713 -1.1479
  186SAPI   HO221291   3.729   2.272  11.115  2.9906 -0.7994 -1.0279
  186SAPI   C1321292   3.543   2.427  11.033  0.0749  0.1879 -0.1887
  186SAPI    H321293   3.519   2.533  11.010 -0.0876 -0.2465 -2.1503
  186SAPI    O321294   3.540   2.404  11.174  0.3504  0.1248 -0.5500
  186SAPI   HO321295   3.452   2.382  11.206  2.1466 -1.7512  3.9356
  186SAPI   C1421296   3.436   2.331  10.976  0.2519 -0.0784 -0.1961
  186SAPI    H421297   3.466   2.227  11.003  3.1830  1.1074  1.6209
  186SAPI    O421298   3.308   2.358  11.040  0.6221  0.5399 -0.2480
  186SAPI   HO421299   3.291   2.453  11.043  0.7949  0.5444  0.9489
  186SAPI   C1521300   3.434   2.350  10.823 -0.0716  0.2854 -0.4242
  186SAPI    H521301   3.398   2.454  10.812  3.5299  1.8599  1.1340
  186SAPI    O521302   3.333   2.267  10.766  0.0887  0.7135 -0.0905
  186SAPI   HO521303   3.343   2.177  10.798  1.3198  0.7289 -0.3565
  186SAPI   C1621304   3.574   2.323  10.764  0.3409 -0.0006  0.4826
  186SAPI    H621305   3.600   2.219  10.793 -1.3547 -0.7795 -0.6105
  186SAPI    O621306   3.571   2.332  10.623  0.0264 -0.4610 -0.2233
  186SAPI   HO621307   3.644   2.283  10.585 -0.4524 -1.4035  0.0259
  186SAPI   C1121308   3.674   2.415  10.823 -0.8406 -0.6297  0.5055
  186SAPI    H121309   3.645   2.516  10.787 -0.8368 -0.7937  0.0298
  186SAPI     P21310   3.923   2.496  10.780  0.1818  0.1331  0.4099
  186SAPI   O1321311   4.053   2.431  10.762 -0.0074  0.4003 -0.1987
  186SAPI   O1421312   3.908   2.599  10.889 -0.2095 -0.3448 -0.5056
  186SAPI   O1221313   3.808   2.384  10.787  0.1310 -0.2842 -0.0145
  186SAPI   O1121314   3.887   2.576  10.643 -0.3911 -0.3758 -0.5953
  186SAPI    C121315   3.934   2.522  10.520  0.0290 -0.5742  0.6611
  186SAPI    HA21316   4.040   2.551  10.502  0.1970  0.6760  3.1770
  186SAPI    HB21317   3.933   2.411  10.516  0.0168 -0.5367 -1.0045
  186SAPI    C221318   3.848   2.575  10.401 -0.2590  0.4638  0.1628
  186SAPI    HS21319   3.886   2.531  10.307  0.3351  1.6837 -0.1864
  186SAPI   O2121320   3.853   2.719  10.397  0.2516  0.2813  0.4177
  186SAPI   C2121321   3.962   2.774  10.344 -0.3066  0.4514  0.2458
  186SAPI   O2221322   4.045   2.715  10.276  0.4786 -0.1361  0.7025
  186SAPI   C2221323   3.961   2.919  10.384  0.4113 -0.5505  0.5700
  186SAPI   H2R21324   3.962   2.919  10.495  0.9456  0.1273  0.5706
  186SAPI   H2S21325   4.063   2.960  10.372  0.5474 -0.5776  1.5933
  186SAPI    C321326   3.706   2.526  10.427  0.3016 -0.4307 -0.3333
  186SAPI    HX21327   3.662   2.578  10.515  1.7024  1.5994 -0.7656
  186SAPI    HY21328   3.709   2.417  10.450 -1.8669 -0.4866 -0.1130
  186SAPI   O3121329   3.629   2.543  10.307  0.8640  0.3585 -0.2231
  186SAPI   C3121330   3.558   2.652  10.294  0.7866  0.0756 -0.2932
  186SAPI   O3221331   3.534   2.735  10.385  0.3979  0.6297 -0.0194
  186SAPI   C3221332   3.494   2.665  10.158  0.4715  0.3092 -0.5761
  186SAPI   H2X21333   3.457   2.564  10.128  4.2678 -0.4671 -3.4297
  186SAPI   H2Y21334   3.581   2.675  10.090  1.1086 -0.5568  0.0844
  186SAPI   C2321335   3.843   3.016  10.335  0.0058  0.5719 -0.4390
  186SAPI   H3R21336   3.850   3.109  10.395 -1.7574  1.0378 -0.8919
  186SAPI   H3S21337   3.742   2.978  10.361 -0.8997 -0.1397 -4.4071
  186SAPI   C2421338   3.839   3.044  10.189 -0.6612  0.2009  0.0980
  186SAPI   H4R21339   3.929   3.091  10.145 -1.9969  1.5700 -1.2986
  186SAPI   H4S21340   3.762   3.124  10.181  0.7014  1.5145 -0.3206
  186SAPI   C2521341   3.795   2.930  10.103 -0.0598 -0.1803 -0.8075
  186SAPI   H5R21342   3.694   2.889  10.114 -0.0575 -0.2428 -1.0147
  186SAPI   C2621343   3.885   2.877  10.020  0.6647  0.4149 -0.2759
  186SAPI   H6R21344   3.848   2.793   9.960  1.6803 -2.0107  2.2263
  186SAPI   C2721345   4.027   2.905   9.981  0.5377  0.1816 -0.1561
  186SAPI   H7R21346   4.084   2.966  10.055 -1.0332  0.5375  0.8151
  186SAPI   H7S21347   4.014   2.974   9.895 -1.1944  0.1805  0.0576
  186SAPI   C2821348   4.106   2.783   9.932 -0.5831 -0.4926 -0.2909
  186SAPI   H8R21349   4.145   2.728  10.019 -0.8830  0.3086  0.3590
  186SAPI   C2921350   4.132   2.732   9.806  0.1239  0.1767 -0.6884
  186SAPI   H9R21351   4.168   2.628   9.800 -1.2635 -0.5696  1.9941
  186SAPI  C21021352   4.094   2.799   9.670 -0.4217 -0.2557  0.0993
  186SAPI  H10R21353   3.985   2.818   9.673 -0.6404 -1.4509  0.1658
  186SAPI  H10S21354   4.123   2.720   9.598  5.9688  0.0107  1.7158
  186SAPI  C21121355   4.163   2.932   9.651 -0.6114  0.0642 -0.2892
  186SAPI  H11R21356   4.173   2.988   9.745 -0.3254  0.6317 -0.6520
  186SAPI  C21221357   4.174   3.001   9.537 -0.4952  0.0004  0.5780
  186SAPI  H12R21358   4.213   3.104   9.534 -0.5716  0.0649  1.5146
  186SAPI  C21321359   4.137   2.953   9.406  0.2083 -0.5209  0.1175
  186SAPI  H13R21360   4.055   3.021   9.374  1.8273  0.5257 -2.0998
  186SAPI  H13S21361   4.094   2.851   9.413 -1.1414  0.1630  3.7364
  186SAPI  C21421362   4.250   2.953   9.308 -0.3876  0.2180  0.3578
  186SAPI  H14R21363   4.335   3.011   9.347 -0.4365  0.4581  0.1039
  186SAPI  C21521364   4.257   2.881   9.188 -0.2510  0.1385  0.3477
  186SAPI  H15R21365   4.347   2.900   9.128 -1.0897  0.0104 -1.0234
  186SAPI  C21621366   4.145   2.793   9.130 -0.2630  0.6157 -0.3382
  186SAPI  H16R21367   4.056   2.785   9.196  0.2438  0.6668  0.3596
  186SAPI  H16S21368   4.168   2.686   9.112 -0.9682  0.5765 -1.1017
  186SAPI  C21721369   4.086   2.850   8.993 -0.7924  0.1407 -0.6842
  186SAPI  H17R21370   4.057   2.956   9.013  0.9064  0.5958 -0.4480
  186SAPI  H17S21371   3.998   2.790   8.962 -1.7988  1.4173 -0.4232
  186SAPI  C21821372   4.183   2.837   8.869 -0.2994  0.1789 -0.0647
  186SAPI  H18R21373   4.254   2.922   8.875  0.0653 -0.2066  1.5646
  186SAPI  H18S21374   4.121   2.842   8.777  0.5861  0.0321 -0.6869
  186SAPI  C21921375   4.262   2.711   8.864  0.0755  0.2008  0.2690
  186SAPI  H19R21376   4.198   2.622   8.884  0.7492  0.2395  2.8632
  186SAPI  H19S21377   4.333   2.714   8.950 -1.4403  0.4469  1.5472
  186SAPI  C22021378   4.348   2.689   8.735 -0.7008 -0.3454 -0.3948
  186SAPI  H20R21379   4.374   2.582   8.720  1.2770 -0.0199  0.2928
  186SAPI  H20S21380   4.441   2.750   8.741 -0.2747 -0.9051 -1.0793
  186SAPI  H20T21381   4.282   2.719   8.651 -1.1157  1.2220  0.4682
  186SAPI   C3321382   3.383   2.775  10.158 -0.4859  0.7638 -0.5778
  186SAPI   H3X21383   3.428   2.875  10.173  1.4365 -0.0874 -0.4499
  186SAPI   H3Y21384   3.310   2.744  10.236  1.7781 -0.1397  1.2766
  186SAPI   C3421385   3.315   2.780  10.020 -0.1873 -0.2874 -0.8715
  186SAPI   H4X21386   3.269   2.680  10.000 -0.1650 -0.7923  1.3507
  186SAPI   H4Y21387   3.392   2.803   9.944 -1.5411 -0.9887 -2.5243
  186SAPI   C3521388   3.195   2.883  10.007  0.5331  0.3469 -0.0696
  186SAPI   H5X21389   3.217   2.986  10.044 -0.9929  0.4519  0.6018
  186SAPI   H5Y21390   3.122   2.839  10.077  0.8164  1.1292  0.7397
  186SAPI   C3621391   3.132   2.877   9.862 -0.5196 -0.2413  0.2243
  186SAPI   H6X21392   3.034   2.928   9.853 -1.0010 -0.6620  2.3520
  186SAPI   H6Y21393   3.132   2.771   9.828  0.3227  0.4817 -2.2413
  186SAPI   C3721394   3.213   2.957   9.755 -0.2056 -0.4709 -0.1925
  186SAPI   H7X21395   3.321   2.938   9.772 -0.1781 -1.0390 -0.9561
  186SAPI   H7Y21396   3.190   3.063   9.781  0.4744 -0.4619  0.4110
  186SAPI   C3821397   3.172   2.929   9.612  0.4501 -0.1105  0.0520
  186SAPI   H8X21398   3.078   2.988   9.605  0.2372 -0.2163  1.6904
  186SAPI   H8Y21399   3.155   2.821   9.591  0.1601  0.0631 -0.6510
  186SAPI   C3921400   3.277   2.977   9.509  0.1060 -0.5840 -0.0507
  186SAPI   H9X21401   3.378   2.955   9.549 -0.3102 -0.8123  0.9117
  186SAPI   H9Y21402   3.273   3.087   9.494 -0.9068 -0.6099 -0.0347
  186SAPI  C31021403   3.262   2.926   9.367 -1.2205 -0.2778  0.5076
  186SAPI  H10X21404   3.259   2.815   9.367 -1.0295 -0.2841 -0.0898
  186SAPI  H10Y21405   3.355   2.940   9.309 -0.4623 -0.3716  1.6561
  186SAPI  C31121406   3.147   2.997   9.296  0.4412 -0.8472  0.3975
  186SAPI  H11X21407   3.164   3.107   9.304  0.7940 -0.8381 -0.3432
  186SAPI  H11Y21408   3.050   2.974   9.345 -0.1427 -1.8587 -1.1770
  186SAPI  C31221409   3.121   2.940   9.155 -0.7553  0.1320 -0.0578
  186SAPI  H12X21410   3.116   2.830   9.141  0.4147  0.0268  0.2813
  186SAPI  H12Y21411   3.206   2.964   9.088 -1.1656 -1.4383 -1.2119
  186SAPI  C31321412   3.006   3.010   9.093  0.3476 -0.6974  0.1804
  186SAPI  H13X21413   2.914   3.027   9.153  0.5899  0.4209  0.2596
  186SAPI  H13Y21414   2.991   2.964   8.993 -1.7632  0.7342 -0.2354
  186SAPI  C31421415   3.043   3.155   9.046  0.3600  0.3469 -0.1009
  186SAPI  H14X21416   3.131   3.138   8.980 -0.0814 -4.3555  0.1549
  186SAPI  H14Y21417   3.068   3.215   9.136  0.6188 -0.7090  0.5541
  186SAPI  C31521418   2.936   3.238   8.962  0.2945  0.1207  0.6185
  186SAPI  H15X21419   2.848   3.245   9.029 -0.2702  0.7035 -0.1634
  186SAPI  H15Y21420   2.898   3.175   8.879  4.8616 -0.6655 -1.2090
  186SAPI  C31621421   2.985   3.379   8.920  0.4418  0.3156 -0.2344
  186SAPI  H16X21422   2.905   3.436   8.868 -0.3517 -0.2184  0.3681
  186SAPI  H16Y21423   3.072   3.367   8.853  0.9907 -0.7100  0.6311
  186SAPI  C31721424   3.028   3.461   9.044 -0.0685  0.2393  0.1962
  186SAPI  H17X21425   3.109   3.407   9.097  0.0255 -0.5453 -0.7088
  186SAPI  H17Y21426   2.940   3.470   9.111 -1.1108 -2.0857 -0.7427
  186SAPI  C31821427   3.076   3.605   9.010 -0.1211  0.5818  0.7601
  186SAPI  H18X21428   3.111   3.656   9.102  1.6853  1.4740 -0.3661
  186SAPI  H18Y21429   3.001   3.667   8.957 -0.7679 -1.4123 -0.7707
  186SAPI  H18Z21430   3.169   3.599   8.949 -1.0179  1.3657 -0.7341
  187SAPI   C1221431   2.857   6.431   6.512  0.5337 -0.3127  0.3772
  187SAPI    H221432   2.891   6.428   6.617 -0.2440  1.4986  0.7192
  187SAPI    O221433   2.720   6.464   6.505 -0.5179 -0.2265 -0.9056
  187SAPI   HO221434   2.682   6.445   6.590  1.6674 -4.5010 -0.6128
  187SAPI   C1321435   2.945   6.531   6.439  0.2640 -0.0923  0.3978
  187SAPI    H321436   3.052   6.501   6.448  0.1149 -0.4637  1.0018
  187SAPI    O321437   2.932   6.659   6.498 -0.0868 -0.0065  0.3445
  187SAPI   HO321438   2.854   6.702   6.465  2.0369  2.0113 -2.5609
  187SAPI   C1421439   2.907   6.527   6.287 -0.1005  0.2372 -0.0976
  187SAPI    H421440   2.800   6.551   6.276  0.0526  0.4813 -1.1042
  187SAPI    O421441   2.991   6.628   6.231  0.8844  0.0772  0.4394
  187SAPI   HO421442   3.056   6.573   6.187 -1.1834 -2.2564  0.0754
  187SAPI   C1521443   2.925   6.385   6.230 -0.1204 -0.0951  0.3960
  187SAPI    H521444   3.031   6.352   6.235 -0.4216 -1.3360 -0.5212
  187SAPI    O521445   2.907   6.390   6.095  0.2085 -0.3137  0.0463
  187SAPI   HO521446   2.905   6.298   6.069  1.5893 -0.6518  1.0273
  187SAPI   C1621447   2.837   6.282   6.306 -0.1553  0.1709  0.3038
  187SAPI    H621448   2.728   6.304   6.295 -0.3165  1.1453  3.1629
  187SAPI    O621449   2.870   6.152   6.260 -0.3268  0.3508  0.1084
  187SAPI   HO621450   2.884   6.090   6.332  2.8554 -1.2795 -1.6696
  187SAPI   C1121451   2.871   6.291   6.455  0.3327 -0.0670 -0.0191
  187SAPI    H121452   2.978   6.265   6.462 -0.7762 -6.0491  0.0751
  187SAPI     P21453   2.872   6.061   6.611  0.0708 -0.3825 -0.2015
  187SAPI   O1321454   2.984   6.016   6.531  0.1993  0.6531 -0.4334
  187SAPI   O1421455   2.760   5.967   6.645  0.3866 -0.1831 -0.1907
  187SAPI   O1221456   2.802   6.190   6.531 -0.4240 -0.5401 -0.5252
  187SAPI   O1121457   2.934   6.113   6.750 -0.1622 -0.2077  0.3965
  187SAPI    C121458   2.864   6.207   6.832  0.1010  0.0671 -0.0239
  187SAPI    HA21459   2.927   6.299   6.835  1.6320 -0.9472  0.6854
  187SAPI    HB21460   2.761   6.226   6.795 -0.0212  0.3488  0.4421
  187SAPI    C221461   2.856   6.149   6.975  0.2438 -0.2426  0.6219
  187SAPI    HS21462   2.773   6.199   7.030 -0.8074  0.5608 -1.5877
  187SAPI   O2121463   2.989   6.170   7.033 -0.0848  0.0360 -0.4438
  187SAPI   C2121464   2.996   6.181   7.163 -0.2740  0.6149  0.3039
  187SAPI   O2221465   2.895   6.183   7.234 -0.0360  0.5065  0.0394
  187SAPI   C2221466   3.137   6.199   7.209  0.1413  0.3799  0.4544
  187SAPI   H2R21467   3.193   6.108   7.180  0.7280  0.6859  0.6063
  187SAPI   H2S21468   3.172   6.277   7.138 -2.2335  0.8834 -0.2511
  187SAPI    C321469   2.821   5.997   6.979 -0.9927 -0.6530 -0.1711
  187SAPI    HX21470   2.893   5.953   6.907 -1.9146  1.1787 -2.3333
  187SAPI    HY21471   2.717   5.986   6.941 -1.4181  0.7631  0.5067
  187SAPI   O3121472   2.840   5.932   7.105  0.0863 -0.3011  0.0091
  187SAPI   C3121473   2.735   5.953   7.194  0.0733  0.1844  0.3112
  187SAPI   O3221474   2.633   6.010   7.161 -0.4991  0.3753 -0.9585
  187SAPI   C3221475   2.762   5.885   7.327  0.2355 -0.2142 -0.5524
  187SAPI   H2X21476   2.872   5.888   7.344  0.2260  0.1701 -0.5648
  187SAPI   H2Y21477   2.743   5.779   7.298 -0.2670 -0.1371 -0.5103
  187SAPI   C2321478   3.147   6.235   7.354  0.0162  0.5348 -0.2485
  187SAPI   H3R21479   3.103   6.155   7.418  0.3124 -0.0688 -0.7850
  187SAPI   H3S21480   3.077   6.317   7.381  0.7599  1.0056  0.2604
  187SAPI   C2421481   3.288   6.271   7.408 -0.6289 -0.4427 -0.4560
  187SAPI   H4R21482   3.265   6.280   7.517 -0.4678  1.6700 -0.5487
  187SAPI   H4S21483   3.307   6.374   7.371 -1.7055 -0.3427 -0.7498
  187SAPI   C2521484   3.401   6.182   7.367 -0.5796 -0.0572 -0.3230
  187SAPI   H5R21485   3.428   6.178   7.260 -0.7308  1.1778 -0.4229
  187SAPI   C2621486   3.472   6.103   7.453  0.0512  0.3144  0.1429
  187SAPI   H6R21487   3.564   6.049   7.426  0.8027  2.1949 -1.3407
  187SAPI   C2721488   3.443   6.105   7.598 -0.4485  0.2895 -0.0226
  187SAPI   H7R21489   3.356   6.040   7.622 -1.7372  0.8853 -2.7479
  187SAPI   H7S21490   3.428   6.208   7.635 -0.1118  2.1648 -4.5266
  187SAPI   C2821491   3.551   6.049   7.686  0.2445 -0.5276  0.5603
  187SAPI   H8R21492   3.607   5.962   7.650  3.8204  2.1894 -1.1346
  187SAPI   C2921493   3.595   6.093   7.805  0.0254  0.2491 -0.4672
  187SAPI   H9R21494   3.674   6.034   7.855 -0.8179  0.5571  1.2634
  187SAPI  C21021495   3.550   6.207   7.891  0.1871 -0.2685  0.0048
  187SAPI  H10R21496   3.478   6.271   7.835  2.0828  1.0256 -1.0779
  187SAPI  H10S21497   3.636   6.275   7.906 -0.6368  0.3169  2.5257
  187SAPI  C21121498   3.489   6.159   8.021 -0.0040 -0.5815  0.1080
  187SAPI  H11R21499   3.388   6.119   8.006  0.5033 -1.0285 -2.6190
  187SAPI  C21221500   3.551   6.151   8.143 -0.0185 -0.1040  0.0573
  187SAPI  H12R21501   3.491   6.106   8.224  1.2383  0.2326  1.2125
  187SAPI  C21321502   3.690   6.205   8.171 -0.2284 -0.1402 -0.0831
  187SAPI  H13R21503   3.663   6.282   8.247 -2.2397  0.1693 -1.0359
  187SAPI  H13S21504   3.746   6.255   8.089 -4.0734  0.8389 -2.3720
  187SAPI  C21421505   3.779   6.104   8.244 -0.6679 -0.2738  1.3486
  187SAPI  H14R21506   3.795   6.006   8.196  0.8155 -0.4904  2.2251
  187SAPI  C21521507   3.853   6.123   8.356 -0.0235  0.2906  0.1926
  187SAPI  H15R21508   3.908   6.032   8.383 -0.8630 -0.9549 -2.0143
  187SAPI  C21621509   3.856   6.246   8.444 -0.9697 -0.0935  0.1600
  187SAPI  H16R21510   3.789   6.324   8.402  0.1519  0.2571 -1.0568
  187SAPI  H16S21511   3.954   6.297   8.451 -0.9359 -0.1592  0.1700
  187SAPI  C21721512   3.811   6.222   8.588 -1.0790 -0.2416  0.2263
  187SAPI  H17R21513   3.712   6.172   8.590 -1.0567 -0.2787  1.8790
  187SAPI  H17S21514   3.805   6.321   8.638  0.1534  0.8694 -1.7115
  187SAPI  C21821515   3.913   6.138   8.668  0.0357  0.0786 -0.5492
  187SAPI  H18R21516   4.012   6.188   8.674  0.5413 -0.7780 -1.4444
  187SAPI  H18S21517   3.930   6.038   8.622  0.1118 -1.2778  2.2155
  187SAPI  C21921518   3.853   6.119   8.810  0.0167  0.0917 -0.4809
  187SAPI  H19R21519   3.781   6.034   8.811  0.4435 -0.3128 -2.0129
  187SAPI  H19S21520   3.803   6.215   8.835 -1.2555 -0.6985  0.1315
  187SAPI  C22021521   3.966   6.103   8.917  0.5791 -0.1940  0.1526
  187SAPI  H20R21522   4.048   6.177   8.905 -0.9151  1.3488 -1.0141
  187SAPI  H20S21523   4.023   6.008   8.911  1.1888  0.0652  1.4140
  187SAPI  H20T21524   3.931   6.122   9.021  1.8381  0.3123  0.5054
  187SAPI   C3321525   2.682   5.937   7.448 -0.3155  0.0117 -0.2562
  187SAPI   H3X21526   2.651   5.844   7.499  1.0214  0.1821  0.9117
  187SAPI   H3Y21527   2.592   5.996   7.418 -0.7848  0.1147  1.2470
  187SAPI   C3421528   2.747   6.037   7.545 -0.6445 -0.5864 -0.6615
  187SAPI   H4X21529   2.672   6.053   7.626 -0.3123  0.2727 -0.5163
  187SAPI   H4Y21530   2.762   6.132   7.490  1.2998 -0.6694 -0.3172
  187SAPI   C3521531   2.894   6.002   7.596  0.4826 -0.0751 -0.2734
  187SAPI   H5X21532   2.949   6.045   7.509  1.0173  0.2814  0.2409
  187SAPI   H5Y21533   2.922   5.894   7.600 -0.2812 -0.2405  1.7835
  187SAPI   C3621534   2.932   6.069   7.733 -0.0314 -0.1727  0.2603
  187SAPI   H6X21535   2.915   6.000   7.819 -0.7995  2.3702  2.2739
  187SAPI   H6Y21536   2.874   6.160   7.759  1.2473  0.2769  1.7363
  187SAPI   C3721537   3.080   6.122   7.737 -0.2421 -0.2020 -0.1897
  187SAPI   H7X21538   3.089   6.192   7.651 -0.6306 -0.6595 -0.6138
  187SAPI   H7Y21539   3.150   6.040   7.710 -1.4023 -0.2673 -3.3528
  187SAPI   C3821540   3.114   6.194   7.870 -0.2938  0.1616  0.2106
  187SAPI   H8X21541   3.043   6.275   7.895 -1.4300 -0.7545  0.0457
  187SAPI   H8Y21542   3.211   6.245   7.850 -0.8530  1.6246  1.1204
  187SAPI   C3921543   3.125   6.101   7.995  0.1534 -0.3267  0.7396
  187SAPI   H9X21544   3.222   6.047   7.995  0.2251 -0.2577 -0.7921
  187SAPI   H9Y21545   3.046   6.025   7.980  0.2118 -0.0703 -1.1787
  187SAPI  C31021546   3.110   6.170   8.127  0.7566 -0.3368 -0.9485
  187SAPI  H10X21547   3.007   6.211   8.132  1.3244  1.1640 -0.9421
  187SAPI  H10Y21548   3.184   6.252   8.139  2.3364 -2.0603  2.8640
  187SAPI  C31121549   3.127   6.077   8.251 -0.1575  0.0793  0.0445
  187SAPI  H11X21550   3.220   6.018   8.237 -0.2666  0.5959 -3.7158
  187SAPI  H11Y21551   3.034   6.019   8.269 -0.2133  0.4929  1.1506
  187SAPI  C31221552   3.151   6.163   8.380 -0.4269 -0.1898 -0.3223
  187SAPI  H12X21553   3.055   6.212   8.406  0.1795  0.6041  0.4955
  187SAPI  H12Y21554   3.218   6.245   8.346 -1.2439 -0.0770 -1.7526
  187SAPI  C31321555   3.199   6.084   8.498  0.2674 -0.9299 -0.8766
  187SAPI  H13X21556   3.126   6.002   8.519 -0.7111 -0.1868 -1.3095
  187SAPI  H13Y21557   3.181   6.154   8.583  0.1966  0.8963 -2.3444
  187SAPI  C31421558   3.341   6.039   8.500  0.2537 -0.6151 -1.2351
  187SAPI  H14X21559   3.397   6.135   8.485 -1.5930  0.5060 -1.2177
  187SAPI  H14Y21560   3.367   5.977   8.412  0.2086 -1.6840 -0.5167
  187SAPI  C31521561   3.392   5.961   8.622 -0.3424  0.9391 -0.3729
  187SAPI  H15X21562   3.343   5.861   8.627  0.9395  0.3490  1.0382
  187SAPI  H15Y21563   3.367   6.006   8.720  1.3548  1.2074 -0.0367
  187SAPI  C31621564   3.547   5.944   8.621  0.7296 -0.3716  0.2877
  187SAPI  H16X21565   3.597   5.954   8.720 -0.4875 -0.8249  0.9674
  187SAPI  H16Y21566   3.576   6.032   8.560 -0.6959  0.8749  1.3195
  187SAPI  C31721567   3.606   5.822   8.550 -0.3641  0.0601 -0.4196
  187SAPI  H17X21568   3.618   5.849   8.443  2.3234 -0.4615 -0.3223
  187SAPI  H17Y21569   3.539   5.734   8.566 -2.5783  1.8316  0.7499
  187SAPI  C31821570   3.750   5.788   8.592  0.4005 -0.5149  0.2149
  187SAPI  H18X21571   3.771   5.775   8.700  1.9280  1.9893  0.3011
  187SAPI  H18Y21572   3.817   5.873   8.568 -0.4447  0.4176  1.0833
  187SAPI  H18Z21573   3.785   5.696   8.539  1.7777 -1.6381  2.8960
  188SAPI   C1221574   4.739   3.350   6.519  0.7760  0.3283 -0.3010
  188SAPI    H221575   4.725   3.306   6.620 -0.8971  0.7582 -0.3167
  188SAPI    O221576   4.725   3.489   6.523  0.5027  0.2285  0.1559
  188SAPI   HO221577   4.721   3.516   6.615 -0.6283  2.0100 -0.3648
  188SAPI   C1321578   4.886   3.320   6.478 -0.5094 -0.3093  0.1626
  188SAPI    H321579   4.904   3.211   6.486 -0.0521 -0.2170  0.3711
  188SAPI    O321580   4.982   3.380   6.574 -0.2812  0.2180 -0.0401
  188SAPI   HO321581   4.967   3.474   6.569 -1.0736  0.4023  3.4131
  188SAPI   C1421582   4.906   3.370   6.334 -0.1979 -0.2247 -0.6183
  188SAPI    H421583   4.898   3.480   6.337 -1.3442 -0.3061 -0.2901
  188SAPI    O421584   5.040   3.332   6.293  0.7285 -0.2457  0.3282
  188SAPI   HO421585   5.046   3.238   6.311 -3.1875 -0.8889 -0.7467
  188SAPI   C1521586   4.795   3.314   6.240 -0.0198  0.5977 -0.2384
  188SAPI    H521587   4.806   3.204   6.245 -0.0813  0.6324  1.1709
  188SAPI    O521588   4.820   3.359   6.108 -0.0062 -0.2988 -0.0417
  188SAPI   HO521589   4.834   3.454   6.111  0.7737 -0.4273  1.3732
  188SAPI   C1621590   4.655   3.345   6.293  0.0779 -0.2213  0.2609
  188SAPI    H621591   4.649   3.456   6.299  1.6742 -0.0826 -0.0691
  188SAPI    O621592   4.562   3.282   6.202  0.3935 -0.1621 -0.2186
  188SAPI   HO621593   4.470   3.301   6.218  0.3688 -0.1237 -0.3970
  188SAPI   C1121594   4.636   3.289   6.427 -0.0998  1.1564  0.1307
  188SAPI    H121595   4.674   3.185   6.422  0.8738  1.4293  1.2712
  188SAPI     P21596   4.402   3.185   6.492  0.1506  0.3983  0.0364
  188SAPI   O1321597   4.417   3.087   6.383 -0.3632  0.7899 -0.1612
  188SAPI   O1421598   4.268   3.249   6.515 -0.1548  0.4384  0.1296
  188SAPI   O1221599   4.505   3.316   6.480  0.0048 -0.2917  0.0332
  188SAPI   O1121600   4.437   3.111   6.627 -0.6765 -0.4546 -0.4719
  188SAPI    C121601   4.498   3.168   6.747  0.1716 -0.0429  1.0481
  188SAPI    HA21602   4.542   3.265   6.716 -0.8666  0.4286  1.0013
  188SAPI    HB21603   4.421   3.177   6.826 -0.8717  1.2404 -0.0647
  188SAPI    C221604   4.603   3.072   6.811 -0.1275  0.4426 -0.6121
  188SAPI    HS21605   4.648   3.017   6.726 -0.2111 -1.1477  0.3423
  188SAPI   O2121606   4.530   2.985   6.901  0.5737 -0.0323 -0.2180
  188SAPI   C2121607   4.611   2.906   6.964  0.4647  0.6981  0.1904
  188SAPI   O2221608   4.713   2.854   6.927 -0.7453 -0.2274  0.0620
  188SAPI   C2221609   4.536   2.875   7.098 -0.0659  1.3401  0.9786
  188SAPI   H2R21610   4.427   2.882   7.076 -0.3465 -1.8968  0.7480
  188SAPI   H2S21611   4.558   2.770   7.128  1.7276  0.9429 -1.3886
  188SAPI    C321612   4.714   3.159   6.885 -0.2234  0.5887  0.5235
  188SAPI    HX21613   4.746   3.245   6.821  0.4223 -0.5761 -0.7859
  188SAPI    HY21614   4.805   3.095   6.877  0.2174  1.3400 -0.8615
  188SAPI   O3121615   4.684   3.196   7.025 -0.0099 -0.0363  0.2843
  188SAPI   C3121616   4.650   3.327   7.043 -0.1860  0.0030  0.1940
  188SAPI   O3221617   4.643   3.409   6.958 -0.3530 -0.1275  0.3664
  188SAPI   C3221618   4.631   3.347   7.192  0.0554  0.2243  0.7813
  188SAPI   H2X21619   4.709   3.418   7.225  2.1509 -1.9562  0.7806
  188SAPI   H2Y21620   4.632   3.253   7.251 -0.1915  1.1041  2.2480
  188SAPI   C2321621   4.565   2.978   7.199 -0.1402  0.3945  0.2464
  188SAPI   H3R21622   4.531   3.076   7.159 -0.1082 -0.2122 -1.3384
  188SAPI   H3S21623   4.676   2.980   7.206 -0.0777 -0.9032 -0.1028
  188SAPI   C2421624   4.503   2.944   7.329  0.0438  0.4666 -0.1354
  188SAPI   H4R21625   4.541   2.846   7.364 -0.3627 -0.2068 -1.4907
  188SAPI   H4S21626   4.395   2.938   7.300  0.5033 -0.9409 -1.7282
  188SAPI   C2521627   4.520   3.051   7.435  0.1491  0.2305  0.1044
  188SAPI   H5R21628   4.510   3.153   7.394 -2.0398  0.0188 -0.0363
  188SAPI   C2621629   4.558   3.028   7.568 -0.2613  0.9208  0.8068
  188SAPI   H6R21630   4.582   3.106   7.641  1.8468 -0.9296  2.2241
  188SAPI   C2721631   4.579   2.895   7.636 -0.4793 -0.0109 -0.0133
  188SAPI   H7R21632   4.582   2.805   7.570  3.1004 -1.6513  2.0947
  188SAPI   H7S21633   4.496   2.883   7.708 -0.2300 -1.2081  0.1058
  188SAPI   C2821634   4.714   2.882   7.702  0.4855  0.4011 -0.6755
  188SAPI   H8R21635   4.795   2.878   7.627 -2.1648 -0.9175 -3.7314
  188SAPI   C2921636   4.731   2.875   7.838 -0.0673 -0.3421  0.3099
  188SAPI   H9R21637   4.829   2.860   7.886 -0.1958  0.5089  0.8587
  188SAPI  C21021638   4.620   2.886   7.941 -0.1923  0.2844  0.2742
  188SAPI  H10R21639   4.635   2.808   8.018 -1.6557  1.0417  1.3736
  188SAPI  H10S21640   4.517   2.860   7.908 -0.8237 -0.9979  2.9868
  188SAPI  C21121641   4.608   3.028   8.006 -0.5305  0.1512 -0.2186
  188SAPI  H11R21642   4.590   3.107   7.931 -1.4176  1.7156  1.5442
  188SAPI  C21221643   4.633   3.063   8.132 -0.3379 -0.2092 -0.5538
  188SAPI  H12R21644   4.611   3.166   8.164  0.2042 -0.1714 -0.3032
  188SAPI  C21321645   4.669   2.970   8.241  0.3645 -0.7665 -0.1618
  188SAPI  H13R21646   4.655   2.865   8.208 -1.1661  0.1263 -2.6036
  188SAPI  H13S21647   4.593   2.983   8.321  1.9419  2.2810  1.0062
  188SAPI  C21421648   4.812   2.971   8.294  0.1861 -0.4768  0.1475
  188SAPI  H14R21649   4.876   2.923   8.219 -1.1104  0.7113 -1.8128
  188SAPI  C21521650   4.854   3.033   8.412  0.1036  0.6047  0.4414
  188SAPI  H15R21651   4.960   3.013   8.434  0.1633 -1.3480 -1.3075
  188SAPI  C21621652   4.771   3.107   8.515 -0.8275 -0.4850  0.5454
  188SAPI  H16R21653   4.674   3.140   8.473 -0.8678  0.3271  1.2357
  188SAPI  H16S21654   4.819   3.206   8.531  0.9698 -0.4835 -3.6098
  188SAPI  C21721655   4.764   3.011   8.640  0.0643 -0.1605 -0.7270
  188SAPI  H17R21656   4.865   2.991   8.683  0.0799 -1.2517 -1.2381
  188SAPI  H17S21657   4.719   2.913   8.616  0.1653 -1.4381  3.4518
  188SAPI  C21821658   4.690   3.071   8.759  0.0540  0.6815  0.4597
  188SAPI  H18R21659   4.743   3.163   8.792  1.0732 -0.4729  2.2001
  188SAPI  H18S21660   4.722   3.011   8.847 -3.0410 -1.9524 -0.0038
  188SAPI  C21921661   4.547   3.074   8.760  0.6008 -0.4693 -0.2992
  188SAPI  H19R21662   4.509   2.971   8.743 -1.1430  0.1366 -0.2888
  188SAPI  H19S21663   4.519   3.154   8.688  1.8558  2.3240  2.1200
  188SAPI  C22021664   4.491   3.103   8.898 -0.0030 -0.5797 -0.6124
  188SAPI  H20R21665   4.502   3.022   8.973  2.0790  0.2119  0.0146
  188SAPI  H20S21666   4.382   3.125   8.901 -0.7887 -4.0204  0.9631
  188SAPI  H20T21667   4.551   3.188   8.938  1.4703 -1.9424  0.1732
  188SAPI   C3321668   4.500   3.420   7.215  0.4603 -0.2592 -0.1087
  188SAPI   H3X21669   4.415   3.355   7.184  1.7888 -2.7300  1.1015
  188SAPI   H3Y21670   4.493   3.505   7.144  1.9466  0.8088  0.9747
  188SAPI   C3421671   4.473   3.464   7.356 -0.3037  0.0710 -0.3398
  188SAPI   H4X21672   4.483   3.574   7.357  0.5724  0.0804 -3.0766
  188SAPI   H4Y21673   4.548   3.419   7.424 -0.6250  0.0239 -0.0060
  188SAPI   C3521674   4.333   3.418   7.398  0.7593 -0.3958 -0.0653
  188SAPI   H5X21675   4.322   3.315   7.438 -1.4801 -0.5291 -0.8652
  188SAPI   H5Y21676   4.253   3.426   7.322 -0.8508  0.7271  1.6653
  188SAPI   C3621677   4.267   3.512   7.505  0.4860 -0.3450  0.2743
  188SAPI   H6X21678   4.156   3.511   7.501  0.4250  2.3706 -1.4163
  188SAPI   H6Y21679   4.308   3.613   7.484  2.5690 -1.4385 -1.3903
  188SAPI   C3721680   4.316   3.467   7.642  0.4001  0.5979  0.2791
  188SAPI   H7X21681   4.426   3.458   7.651  0.8908 -0.4253 -4.1172
  188SAPI   H7Y21682   4.271   3.367   7.658 -0.8468  1.3032  1.3738
  188SAPI   C3821683   4.255   3.559   7.757  0.1804  0.7707 -0.0278
  188SAPI   H8X21684   4.150   3.581   7.731 -0.0433 -1.6591 -1.5196
  188SAPI   H8Y21685   4.315   3.653   7.755  0.7735  0.4026 -0.0185
  188SAPI   C3921686   4.264   3.494   7.899  0.2770  0.4715  0.3121
  188SAPI   H9X21687   4.258   3.385   7.875 -1.8103  0.6522 -0.1498
  188SAPI   H9Y21688   4.173   3.522   7.955 -1.0049  2.7203 -2.6006
  188SAPI  C31021689   4.392   3.528   7.976 -0.6159  0.2073 -0.0796
  188SAPI  H10X21690   4.373   3.631   8.012  1.7467  0.8765 -0.5351
  188SAPI  H10Y21691   4.478   3.520   7.906 -0.8628 -0.3618 -0.3284
  188SAPI  C31121692   4.415   3.428   8.102 -0.1628 -0.5630  0.3330
  188SAPI  H11X21693   4.427   3.321   8.074  1.3739 -0.3953  0.2396
  188SAPI  H11Y21694   4.328   3.431   8.170 -0.1873 -1.9831  0.3926
  188SAPI  C31221695   4.539   3.475   8.183 -0.4796 -0.7606 -0.4235
  188SAPI  H12X21696   4.543   3.586   8.191 -0.1795 -0.7575 -0.5990
  188SAPI  H12Y21697   4.631   3.434   8.137  0.2915 -0.1522  0.5466
  188SAPI  C31321698   4.524   3.425   8.328  0.1097 -0.1930  0.2942
  188SAPI  H13X21699   4.520   3.315   8.343 -0.0360 -0.1050  0.9300
  188SAPI  H13Y21700   4.423   3.462   8.358  0.0563  1.9929 -2.1959
  188SAPI  C31421701   4.638   3.482   8.411 -0.6394  0.3405 -0.4842
  188SAPI  H14X21702   4.668   3.586   8.385  0.5918  0.2887  0.5871
  188SAPI  H14Y21703   4.728   3.420   8.393 -0.1021  1.0929 -0.4477
  188SAPI  C31521704   4.617   3.496   8.565 -0.3540  0.1468  0.4902
  188SAPI  H15X21705   4.582   3.397   8.602  1.4306 -0.9166 -0.5489
  188SAPI  H15Y21706   4.532   3.567   8.578  1.1795  2.4353 -1.1821
  188SAPI  C31621707   4.728   3.552   8.642 -0.1404  0.0565 -0.2348
  188SAPI  H16X21708   4.697   3.531   8.747 -1.0525  1.1639 -0.2695
  188SAPI  H16Y21709   4.741   3.661   8.626 -0.8398  0.0595 -0.8600
  188SAPI  C31721710   4.862   3.477   8.622 -0.4007  0.0488  0.8105
  188SAPI  H17X21711   4.898   3.485   8.518  0.0852  1.2954  1.0675
  188SAPI  H17Y21712   4.845   3.368   8.639 -0.5358 -0.0189  0.2692
  188SAPI  C31821713   4.974   3.514   8.717 -0.3242 -0.2845  0.3695
  188SAPI  H18X21714   5.071   3.461   8.701 -0.0121 -0.4652  2.5117
  188SAPI  H18Y21715   4.945   3.493   8.822 -1.1217  2.6036  0.8224
  188SAPI  H18Z21716   4.997   3.622   8.726  0.1358 -0.2356 -1.0979
  189POPC     N21717   3.059   0.355  11.129 -0.2400  0.2266 -0.4526
  189POPC   C1221718   3.128   0.400  10.995  0.2199  0.3470 -0.1040
  189POPC  H12A21719   3.189   0.318  10.963 -0.7919  0.1226 -1.5290
  189POPC  H12B21720   3.197   0.478  11.027  0.5758  0.8671 -2.0072
  189POPC   C1321721   2.945   0.263  11.095 -0.0413  0.0180 -0.2324
  189POPC  H13A21722   2.872   0.314  11.034  0.9231  0.4456 -1.0740
  189POPC  H13B21723   2.975   0.177  11.038 -1.6476 -0.7314  0.0187
  189POPC  H13C21724   2.906   0.232  11.191  1.2585  0.3712  0.4356
  189POPC   C1421725   3.154   0.289  11.223 -0.0743 -0.7253  0.2349
  189POPC  H14A21726   3.116   0.282  11.324 -1.1138  0.4176 -0.0508
  189POPC  H14B21727   3.184   0.195  11.180 -0.3596 -0.2998 -0.9266
  189POPC  H14C21728   3.246   0.346  11.227 -0.6351  0.1418  1.4591
  189POPC   C1521729   3.001   0.475  11.198  0.3939 -0.0425  0.2612
  189POPC  H15A21730   3.068   0.555  11.227 -1.4635  2.1231 -1.1522
  189POPC  H15B21731   2.933   0.454  11.279  0.4765  1.5410  0.7849
  189POPC  H15C21732   2.947   0.521  11.117  1.1413  0.2391 -0.0824
  189POPC   C1121733   3.044   0.438  10.879 -0.1649  0.7563 -0.0640
  189POPC  H11A21734   3.004   0.341  10.842 -0.4192  0.5654  0.6806
  189POPC  H11B21735   3.100   0.481  10.794 -2.0932 -0.4074 -2.0520
  189POPC     P21736   2.793   0.530  10.847 -0.0645 -0.3972  0.1553
  189POPC   O1321737   2.734   0.650  10.914 -0.8244  0.4163 -0.0840
  189POPC   O1421738   2.724   0.398  10.864  0.0297 -0.8321  0.7652
  189POPC   O1221739   2.936   0.517  10.914 -0.1546 -0.5411  0.1220
  189POPC   O1121740   2.829   0.572  10.693  0.4613  0.2847  0.3667
  189POPC    C121741   2.825   0.463  10.600  0.1762  0.3111  0.4663
  189POPC    HA21742   2.840   0.360  10.639  0.4505 -0.4643 -1.5915
  189POPC    HB21743   2.914   0.479  10.535  0.8729 -0.3559  1.2205
  189POPC    C221744   2.694   0.482  10.517 -0.1340  0.1300 -0.1040
  189POPC    HS21745   2.619   0.442  10.588  0.6124  0.4104  0.8591
  189POPC   O2121746   2.699   0.420  10.389  0.2251 -0.2900 -0.2555
  189POPC   C2121747   2.583   0.384  10.332 -0.6758  0.2260  0.8351
  189POPC   O2221748   2.471   0.380  10.381  0.5927 -0.2422 -0.1508
  189POPC   C2221749   2.615   0.352  10.189  0.0187  0.4113  0.2514
  189POPC   H2R21750   2.669   0.255  10.194 -1.5732 -0.4749  1.1937
  189POPC   H2S21751   2.691   0.427  10.159  1.3402 -0.2084  1.8945
  189POPC    C321752   2.661   0.635  10.493 -0.5292 -0.1352  0.1854
  189POPC    HX21753   2.660   0.679  10.595  0.7493 -1.7076  0.9339
  189POPC    HY21754   2.561   0.620  10.448 -0.6758  0.3348  0.3570
  189POPC   O3121755   2.759   0.694  10.402  0.0487 -0.2325 -0.0000
  189POPC   C3121756   2.733   0.823  10.377  0.1041  0.6187 -0.4211
  189POPC   O3221757   2.623   0.873  10.403 -0.1162 -0.1891 -0.0336
  189POPC   C3221758   2.853   0.887  10.308  0.0781 -0.4529  0.1773
  189POPC   H2X21759   2.924   0.813  10.265  1.2848  2.1384 -2.6926
  189POPC   H2Y21760   2.905   0.946  10.386  1.3162 -0.9465 -0.2335
  189POPC   C2321761   2.494   0.353  10.095  0.9842  0.1827  0.5211
  189POPC   H3R21762   2.449   0.454  10.105 -0.1353 -0.4161  1.9093
  189POPC   H3S21763   2.410   0.287  10.126 -1.6238  1.7379 -2.6203
  189POPC   C2421764   2.532   0.328   9.950  0.0477 -0.1826 -0.1871
  189POPC   H4R21765   2.605   0.245   9.940 -1.3072 -1.1696 -2.9744
  189POPC   H4S21766   2.588   0.418   9.915  1.9440 -1.2871 -0.1535
  189POPC   C2521767   2.416   0.309   9.860  0.0896  0.3308 -0.1440
  189POPC   H5R21768   2.344   0.392   9.877  0.6966  0.5192  1.8307
  189POPC   H5S21769   2.370   0.208   9.868 -0.2641  0.5698  1.1568
  189POPC   C2621770   2.436   0.323   9.703 -0.3433 -0.3011 -0.1254
  189POPC   H6R21771   2.520   0.258   9.671  0.1491  0.2631 -0.0040
  189POPC   H6S21772   2.473   0.423   9.672 -1.4099 -0.3199 -1.5940
  189POPC   C2721773   2.307   0.300   9.624 -0.2579 -0.0845 -0.1292
  189POPC   H7R21774   2.228   0.375   9.648 -0.1832 -0.0665  0.0641
  189POPC   H7S21775   2.257   0.204   9.650  1.5965 -0.4512  2.5125
  189POPC   C2821776   2.325   0.291   9.465  0.0568  0.0007 -0.2469
  189POPC   H8R21777   2.236   0.245   9.419  0.8546 -2.0904  0.1914
  189POPC   H8S21778   2.399   0.211   9.442  0.2511  0.4449 -1.2583
  189POPC   C2921779   2.371   0.427   9.403  0.5702 -0.1781  0.4437
  189POPC   H9121780   2.418   0.497   9.474  1.2941 -0.8420  0.6387
  189POPC  C21021781   2.341   0.477   9.283  0.3020  0.1832 -0.3545
  189POPC  H10121782   2.383   0.573   9.249  1.3755  0.7730  2.3272
  189POPC  C21121783   2.268   0.399   9.173  0.8044  0.5554  1.1472
  189POPC  H11R21784   2.248   0.294   9.203  0.2085  0.3400  0.0457
  189POPC  H11S21785   2.345   0.386   9.094 -0.4006  1.4280 -0.2107
  189POPC  C21221786   2.133   0.457   9.126  0.0284  0.7540 -0.9464
  189POPC  H12R21787   2.112   0.401   9.033 -1.0343 -1.9372  0.7871
  189POPC  H12S21788   2.146   0.566   9.106  0.9626  0.9380  0.5536
  189POPC  C21321789   2.017   0.420   9.219 -0.3336  0.3764 -0.3105
  189POPC  H13R21790   2.025   0.491   9.304 -1.9247  0.6235 -0.3229
  189POPC  H13S21791   2.012   0.318   9.264  2.1412  0.0831 -0.5422
  189POPC  C21421792   1.879   0.458   9.154 -0.0822 -0.1298 -1.5690
  189POPC  H14R21793   1.794   0.447   9.225  2.5585  0.3808  1.9635
  189POPC  H14S21794   1.857   0.384   9.073  0.3960 -1.1589 -0.7883
  189POPC  C21521795   1.861   0.597   9.096 -0.0194  0.8976  0.1406
  189POPC  H15R21796   1.944   0.619   9.025  2.0348  0.2402  2.2196
  189POPC  H15S21797   1.859   0.683   9.166  0.4414  0.6681  0.4390
  189POPC  C21621798   1.727   0.609   9.021  0.7564 -0.0772  0.7679
  189POPC  H16R21799   1.650   0.568   9.089  1.1712 -1.2346  0.5682
  189POPC  H16S21800   1.725   0.542   8.933 -2.1132  0.8543  0.0211
  189POPC  C21721801   1.693   0.760   8.965  1.2785  0.1615  0.7500
  189POPC  H17R21802   1.732   0.837   9.034 -0.1714  1.4594  0.1813
  189POPC  H17S21803   1.583   0.777   8.965  1.3306  0.5274  0.5756
  189POPC  C21821804   1.732   0.796   8.825  0.1131  0.2704 -0.3578
  189POPC  H18R21805   1.691   0.729   8.747  1.6409 -0.4510 -0.5634
  189POPC  H18S21806   1.843   0.799   8.817  0.1099  0.5572 -0.3116
  189POPC  H18T21807   1.681   0.890   8.793 -0.2999  0.1707 -0.0106
  189POPC   C3321808   2.810   0.965  10.184 -0.4160 -0.8765  0.8138
  189POPC   H3X21809   2.891   1.026  10.139 -1.9809 -0.8461 -2.2169
  189POPC   H3Y21810   2.726   1.035  10.203 -1.3704 -1.4887 -0.9233
  189POPC   C3421811   2.774   0.873  10.071 -0.0373  0.7743  0.4829
  189POPC   H4X21812   2.676   0.822  10.082 -0.4218  1.6449  1.2703
  189POPC   H4Y21813   2.841   0.785  10.062  0.8742  1.5206 -0.1477
  189POPC   C3521814   2.763   0.945   9.933 -0.4072  0.2745  0.0991
  189POPC   H5X21815   2.860   0.964   9.883  0.0247 -0.2077  0.7397
  189POPC   H5Y21816   2.723   1.048   9.947 -1.6493 -0.4506  2.6838
  189POPC   C3621817   2.683   0.862   9.832 -0.2776  0.5567  0.3376
  189POPC   H6X21818   2.582   0.860   9.879  0.9068  1.1880  3.1306
  189POPC   H6Y21819   2.709   0.757   9.809 -1.2164  0.4370 -0.2195
  189POPC   C3721820   2.671   0.943   9.707 -0.7849  1.1471  0.1342
  189POPC   H7X21821   2.771   0.950   9.658 -0.2345 -3.2079  0.2188
  189POPC   H7Y21822   2.634   1.042   9.741 -2.8924  0.9854 -1.4605
  189POPC   C3821823   2.572   0.878   9.602  0.1961 -0.5085 -0.4096
  189POPC   H8X21824   2.476   0.849   9.651  0.6792 -1.4330  0.0201
  189POPC   H8Y21825   2.630   0.803   9.546  3.7881  1.6570  0.1118
  189POPC   C3921826   2.551   0.986   9.493  0.1314  0.1814  0.4687
  189POPC   H9X21827   2.648   1.037   9.476  0.4649  0.3221  2.4514
  189POPC   H9Y21828   2.483   1.063   9.535 -0.4500  0.4014 -0.8462
  189POPC  C31021829   2.501   0.924   9.360 -0.0732 -0.0881 -0.0604
  189POPC  H10X21830   2.434   1.003   9.318  1.2725  2.3340  2.0785
  189POPC  H10Y21831   2.449   0.831   9.389  1.5173 -0.0690  3.2969
  189POPC  C31121832   2.615   0.895   9.254  0.0060  0.5165 -0.5385
  189POPC  H11X21833   2.689   0.819   9.290  0.4397  0.2644 -1.8989
  189POPC  H11Y21834   2.660   0.997   9.254 -0.5114  0.8019  1.6332
  189POPC  C31221835   2.555   0.853   9.122  0.4344 -0.2172  0.7378
  189POPC  H12X21836   2.473   0.926   9.106  1.0964  0.5038  0.5835
  189POPC  H12Y21837   2.509   0.751   9.122  0.5207 -0.2591  0.0418
  189POPC  C31321838   2.661   0.843   9.007  0.1685  0.5419  0.7692
  189POPC  H13X21839   2.732   0.762   9.032  1.0879  1.1715  0.3044
  189POPC  H13Y21840   2.720   0.936   8.989  1.4260  0.0465  2.1032
  189POPC  C31421841   2.596   0.804   8.874  0.0023 -0.3437 -0.0017
  189POPC  H14X21842   2.522   0.874   8.830 -1.4942  0.0371  2.8775
  189POPC  H14Y21843   2.537   0.711   8.880  0.1344 -0.4442 -0.2483
  189POPC  C31521844   2.692   0.768   8.761  0.8677  0.5254 -0.1078
  189POPC  H15X21845   2.778   0.710   8.800  0.5157  1.0992  1.6214
  189POPC  H15Y21846   2.728   0.865   8.720 -2.7099  2.0935  0.0146
  189POPC  C31621847   2.624   0.692   8.642 -0.0165 -0.2725 -0.0841
  189POPC  H16X21848   2.585   0.594   8.677 -0.1690 -0.3659 -0.5059
  189POPC  H16Y21849   2.701   0.657   8.571  0.2909 -1.5268  0.8311
  189POPC  H16Z21850   2.552   0.768   8.603 -1.0858 -0.4589  1.4228
  190POPC     N21851   3.632   4.918  11.249 -0.4394  0.2387 -0.1564
  190POPC   C1221852   3.540   4.969  11.141  0.6163  0.2840  0.8883
  190POPC  H12A21853   3.513   5.071  11.164  0.3021  0.5604 -0.6290
  190POPC  H12B21854   3.446   4.916  11.147  0.5540  0.4024  0.9541
  190POPC   C1321855   3.672   4.778  11.219  0.3165  0.7488 -0.2944
  190POPC  H13A21856   3.755   4.750  11.282  1.1060 -1.3724 -2.1435
  190POPC  H13B21857   3.588   4.713  11.235  0.9013  0.0020 -0.2067
  190POPC  H13C21858   3.709   4.772  11.117 -2.5561  2.2771 -1.5500
  190POPC   C1421859   3.757   4.996  11.267 -0.2358 -0.1088  0.2968
  190POPC  H14A21860   3.835   4.961  11.201  0.8274 -0.5298  1.7213
  190POPC  H14B21861   3.743   5.096  11.229 -0.7581  0.2462  1.3781
  190POPC  H14C21862   3.786   4.992  11.371 -0.6782  0.0687  0.4296
  190POPC   C1521863   3.559   4.911  11.376  0.6539 -0.2168 -1.0355
  190POPC  H15A21864   3.629   4.867  11.446 -0.7639 -1.2726 -0.2206
  190POPC  H15B21865   3.473   4.845  11.374  2.0982 -2.2307 -0.1017
  190POPC  H15C21866   3.533   5.007  11.418  0.3358 -1.2449  1.2724
  190POPC   C1121867   3.602   4.976  10.998 -0.2979 -0.4339 -0.5642
  190POPC  H11A21868   3.513   4.991  10.932 -1.1388 -1.4753  0.2870
  190POPC  H11B21869   3.655   4.883  10.968  0.9908  0.0400  0.1756
  190POPC     P21870   3.655   5.229  10.993 -0.0401  0.4685  0.5018
  190POPC   O1321871   3.779   5.303  10.959 -0.0095 -0.7142  0.4564
  190POPC   O1421872   3.579   5.274  11.105 -0.0775 -0.2158  0.0060
  190POPC   O1221873   3.697   5.080  11.004  0.3329  0.2395  0.1658
  190POPC   O1121874   3.564   5.233  10.867  0.2241 -0.7026  0.4939
  190POPC    C121875   3.607   5.217  10.734 -0.3210 -0.0807  0.1974
  190POPC    HA21876   3.521   5.165  10.685 -1.6927  2.5183 -0.3119
  190POPC    HB21877   3.690   5.146  10.716 -0.2671 -0.1026  0.5328
  190POPC    C221878   3.624   5.356  10.667 -0.0922  0.2485 -0.0937
  190POPC    HS21879   3.715   5.402  10.712 -0.2653  0.7465 -0.2537
  190POPC   O2121880   3.500   5.428  10.687 -0.9183 -0.4260  0.3903
  190POPC   C2121881   3.509   5.557  10.705  0.2766  0.6419 -0.1859
  190POPC   O2221882   3.615   5.619  10.730  0.6156 -0.4779  0.2423
  190POPC   C2221883   3.372   5.625  10.704  0.1636  0.4819 -0.0643
  190POPC   H2R21884   3.387   5.734  10.693 -3.0877  1.2695  1.9816
  190POPC   H2S21885   3.333   5.600  10.805 -1.9284 -0.2906 -1.0062
  190POPC    C321886   3.650   5.337  10.521 -0.9562  0.3476 -0.0519
  190POPC    HX21887   3.573   5.267  10.483 -1.2184 -0.4739  1.8928
  190POPC    HY21888   3.741   5.274  10.511 -0.8430  0.4977  0.0305
  190POPC   O3121889   3.656   5.454  10.437  0.0810  0.2088 -0.3468
  190POPC   C3121890   3.775   5.500  10.403 -0.3203  0.4842 -0.6768
  190POPC   O3221891   3.881   5.441  10.425 -0.4564 -0.0862 -0.3422
  190POPC   C3221892   3.764   5.639  10.331 -0.6809  0.2799 -0.3897
  190POPC   H2X21893   3.850   5.699  10.368 -2.8010  1.3777  3.3402
  190POPC   H2Y21894   3.675   5.688  10.376 -1.2706 -1.2548  0.1863
  190POPC   C2321895   3.279   5.559  10.597  0.1159 -0.0678  0.7171
  190POPC   H3R21896   3.174   5.591  10.613 -0.0249  0.9106 -1.7431
  190POPC   H3S21897   3.278   5.448  10.596 -1.0111 -0.0831 -0.6817
  190POPC   C2421898   3.331   5.598  10.463  0.5046  0.2276  0.0587
  190POPC   H4R21899   3.433   5.561  10.440  0.5806  0.4258  0.0694
  190POPC   H4S21900   3.332   5.709  10.470  0.5639  0.2893 -0.7355
  190POPC   C2521901   3.256   5.557  10.342  0.9532  0.6450 -0.1370
  190POPC   H5R21902   3.286   5.622  10.257 -1.6521  0.4298 -1.3159
  190POPC   H5S21903   3.150   5.576  10.368  0.5694 -2.3694  0.8801
  190POPC   C2621904   3.264   5.401  10.313  0.2423  0.8435 -0.2976
  190POPC   H6R21905   3.201   5.350  10.389 -1.0982 -2.0873 -3.1396
  190POPC   H6S21906   3.374   5.386  10.317  0.3444  1.5778 -0.1192
  190POPC   C2721907   3.219   5.352  10.181  0.0353 -0.0153  0.1106
  190POPC   H7R21908   3.277   5.409  10.105 -3.0963  1.2121 -1.5410
  190POPC   H7S21909   3.119   5.390  10.154 -0.6179 -0.6708  1.5101
  190POPC   C2821910   3.213   5.200  10.154 -0.6415  0.6010 -0.3981
  190POPC   H8R21911   3.159   5.183  10.058 -1.4970 -2.3466  0.5039
  190POPC   H8S21912   3.149   5.146  10.227  2.9442 -2.1609  1.0274
  190POPC   C2921913   3.348   5.136  10.151 -0.5284  0.4131 -0.4886
  190POPC   H9121914   3.423   5.162  10.227  0.8480 -1.9061 -0.9558
  190POPC  C21021915   3.396   5.061  10.047  0.1093 -0.0255 -0.8361
  190POPC  H10121916   3.495   5.015  10.056  0.9146  1.8281  0.3923
  190POPC  C21121917   3.321   5.018   9.923  0.6940 -0.7721  0.4409
  190POPC  H11R21918   3.211   5.018   9.938  0.6409  0.4200  0.1702
  190POPC  H11S21919   3.332   4.910   9.898 -2.1180 -1.0069 -0.2325
  190POPC  C21221920   3.366   5.094   9.798  0.0998  0.6288  0.1457
  190POPC  H12R21921   3.469   5.070   9.764 -0.7888 -1.2105 -1.4494
  190POPC  H12S21922   3.349   5.202   9.814  1.0529  0.7111  0.7181
  190POPC  C21321923   3.285   5.055   9.676  0.3073  0.3023 -0.2340
  190POPC  H13R21924   3.180   5.089   9.689  0.4938  1.3193 -1.3068
  190POPC  H13S21925   3.284   4.944   9.672  0.2741  0.3038 -0.2645
  190POPC  C21421926   3.346   5.092   9.543  0.5675 -0.3466 -0.4477
  190POPC  H14R21927   3.447   5.049   9.528  0.5186 -1.0516  1.0468
  190POPC  H14S21928   3.362   5.201   9.547 -0.0351 -0.2909  1.6398
  190POPC  C21521929   3.259   5.076   9.422  0.4445 -0.3953  0.4826
  190POPC  H15R21930   3.179   5.151   9.438  1.6491  0.9717  0.2805
  190POPC  H15S21931   3.214   4.974   9.418 -1.3412  0.3989 -2.1194
  190POPC  C21621932   3.329   5.094   9.285 -0.7032  1.0381 -0.1655
  190POPC  H16R21933   3.383   5.001   9.258 -0.4925  0.7218  1.2620
  190POPC  H16S21934   3.402   5.178   9.291 -2.1958  2.2672  1.4241
  190POPC  C21721935   3.220   5.118   9.176  0.0992  0.1366  0.2240
  190POPC  H17R21936   3.159   5.205   9.206  1.0000  0.4189  1.2919
  190POPC  H17S21937   3.149   5.034   9.191 -0.7897  0.8620  0.1660
  190POPC  C21821938   3.277   5.137   9.037  0.6406  0.2483 -0.1662
  190POPC  H18R21939   3.342   5.227   9.038  0.9130  0.0552  1.5137
  190POPC  H18S21940   3.192   5.157   8.968  1.4253  3.2281 -0.3928
  190POPC  H18T21941   3.337   5.047   9.013 -0.0171  0.1994 -1.7656
  190POPC   C3321942   3.743   5.645  10.177  0.2966 -0.0404  0.2221
  190POPC   H3X21943   3.830   5.596  10.129  1.1537  1.4902  0.1319
  190POPC   H3Y21944   3.743   5.753  10.151  0.5574  0.9401  3.7652
  190POPC   C3421945   3.616   5.585  10.130  0.7390 -0.8293  0.9369
  190POPC   H4X21946   3.525   5.625  10.179  0.5822  1.8670 -1.3592
  190POPC   H4Y21947   3.618   5.481  10.169  0.3149 -0.2922  2.4637
  190POPC   C3521948   3.607   5.597   9.973  0.0393  0.5769 -0.1316
  190POPC   H5X21949   3.704   5.565   9.930  0.8554 -0.0358  2.0426
  190POPC   H5Y21950   3.606   5.707   9.956 -1.2705  0.3425 -1.8093
  190POPC   C3621951   3.478   5.552   9.909 -0.7870 -0.4217 -0.6459
  190POPC   H6X21952   3.395   5.593   9.970  0.6032 -0.6882  1.5540
  190POPC   H6Y21953   3.469   5.441   9.920  0.1182 -0.7997 -3.0759
  190POPC   C3721954   3.470   5.587   9.762 -0.5503 -0.3115 -0.0462
  190POPC   H7X21955   3.539   5.537   9.691 -0.9412  0.6433 -1.1233
  190POPC   H7Y21956   3.487   5.696   9.751  2.9784 -0.6414  1.0768
  190POPC   C3821957   3.326   5.550   9.710 -0.1270  0.4983 -0.4249
  190POPC   H8X21958   3.262   5.589   9.791 -0.3285 -2.9768  1.2771
  190POPC   H8Y21959   3.316   5.440   9.707  0.5493  0.4200 -0.1410
  190POPC   C3921960   3.299   5.609   9.573  0.4923 -0.7798  0.9518
  190POPC   H9X21961   3.347   5.709   9.576  0.0376 -0.5538  0.8944
  190POPC   H9Y21962   3.191   5.635   9.559  0.8116  1.9153  2.6511
  190POPC  C31021963   3.356   5.524   9.463 -0.5142  1.0366 -0.8209
  190POPC  H10X21964   3.297   5.430   9.476  0.1371  0.6162 -0.8595
  190POPC  H10Y21965   3.459   5.504   9.498 -1.3434  0.3618  1.4404
  190POPC  C31121966   3.340   5.585   9.326  0.7025  0.7412 -0.1185
  190POPC  H11X21967   3.359   5.694   9.332  0.0422  0.9064 -0.8131
  190POPC  H11Y21968   3.240   5.562   9.283  1.2608 -0.8464 -0.6261
  190POPC  C31221969   3.444   5.535   9.230  0.1603  0.4610 -0.1960
  190POPC  H12X21970   3.415   5.430   9.210 -1.6013  0.5195  1.7567
  190POPC  H12Y21971   3.545   5.528   9.274  0.3774  0.4230 -0.6961
  190POPC  C31321972   3.437   5.625   9.099 -0.1388  0.5475  1.0016
  190POPC  H13X21973   3.431   5.732   9.131  1.7522  1.7983 -2.3344
  190POPC  H13Y21974   3.354   5.596   9.032  0.3678  3.0530 -0.8641
  190POPC  C31421975   3.553   5.587   9.003 -1.2284 -1.1462 -0.6335
  190POPC  H14X21976   3.654   5.588   9.050 -0.5568 -1.2191 -2.0262
  190POPC  H14Y21977   3.558   5.667   8.927  1.4063 -0.4662  0.1500
  190POPC  C31521978   3.533   5.455   8.926 -0.7597 -0.4382  0.3037
  190POPC  H15X21979   3.427   5.439   8.895 -0.7215 -0.9055  0.4071
  190POPC  H15Y21980   3.557   5.380   9.004  1.3121  0.9889  1.1304
  190POPC  C31621981   3.630   5.449   8.811 -0.6579 -0.7943  1.0637
  190POPC  H16X21982   3.631   5.537   8.743 -0.7263  0.0795  2.1704
  190POPC  H16Y21983   3.623   5.360   8.744 -1.6353  1.5725 -2.2552
  190POPC  H16Z21984   3.731   5.447   8.857 -0.9206  0.7088  1.7713
  191POPC     N21985   1.763   2.904   6.295  0.3086  0.0744  0.7644
  191POPC   C1221986   1.702   2.803   6.393  0.1261  0.1360 -0.7748
  191POPC  H12A21987   1.677   2.708   6.349 -1.2990 -0.6728  1.5863
  191POPC  H12B21988   1.612   2.843   6.436  0.5738  0.8786 -0.5010
  191POPC   C1321989   1.848   3.014   6.358  0.2204  0.2485 -0.1655
  191POPC  H13A21990   1.932   2.967   6.408 -0.0596  0.2596  0.3283
  191POPC  H13B21991   1.870   3.079   6.275 -1.3404 -0.3788 -1.1005
  191POPC  H13C21992   1.797   3.081   6.426  0.5103 -1.0130  1.3687
  191POPC   C1421993   1.856   2.837   6.200  0.8413 -0.3346 -0.8124
  191POPC  H14A21994   1.934   2.791   6.258 -1.1042  2.3406  4.6494
  191POPC  H14B21995   1.792   2.768   6.147  0.6722 -1.7005  1.0657
  191POPC  H14C21996   1.898   2.909   6.132  0.3988  0.9816  0.2406
  191POPC   C1521997   1.655   2.966   6.215  0.5243  0.2040  0.3925
  191POPC  H15A21998   1.589   3.020   6.281 -3.0285 -0.7043 -2.1144
  191POPC  H15B21999   1.595   2.887   6.172  2.0553 -1.2839  0.9005
  191POPC  H15C22000   1.685   3.042   6.144  2.4320 -0.0578  0.8690
  191POPC   C1122001   1.800   2.752   6.512  0.1581 -0.0388 -0.0805
  191POPC  H11A22002   1.740   2.694   6.586 -0.6177  0.6921 -0.1149
  191POPC  H11B22003   1.843   2.845   6.555  1.6320 -1.3751  1.5166
  191POPC     P22004   1.912   2.505   6.453 -0.0233 -0.3907 -0.0770
  191POPC   O1322005   2.061   2.487   6.431  0.1637  0.9061 -0.0347
  191POPC   O1422006   1.817   2.447   6.360  0.3085  0.0376 -0.7105
  191POPC   O1222007   1.896   2.668   6.448  0.6606 -0.3970  0.5002
  191POPC   O1122008   1.876   2.465   6.599  0.0732  0.3311 -0.0177
  191POPC    C122009   1.935   2.540   6.708  1.0412  0.1133  0.7235
  191POPC    HA22010   1.854   2.589   6.766  0.3163 -1.3654  0.9869
  191POPC    HB22011   1.998   2.627   6.679 -0.4730  1.1911  0.5259
  191POPC    C222012   2.013   2.445   6.802  0.3004 -0.4230  0.2066
  191POPC    HS22013   2.071   2.510   6.871 -1.3328  1.4760 -0.1119
  191POPC   O2122014   2.108   2.359   6.727  0.6392  0.4329 -0.7779
  191POPC   C2122015   2.218   2.418   6.689  0.1034  0.5217 -0.3784
  191POPC   O2222016   2.244   2.534   6.711 -0.7069 -0.3664  0.4557
  191POPC   C2222017   2.297   2.317   6.613  0.1764  0.8997 -0.1428
  191POPC   H2R22018   2.375   2.374   6.558  0.7978 -0.6611 -0.9443
  191POPC   H2S22019   2.231   2.272   6.536 -0.0112  0.4856  0.2516
  191POPC    C322020   1.905   2.359   6.864  0.0152 -0.3675  0.3217
  191POPC    HX22021   1.841   2.305   6.791  1.9949 -1.0710 -1.0030
  191POPC    HY22022   1.835   2.424   6.920 -0.1347  0.0518 -0.3498
  191POPC   O3122023   1.960   2.261   6.957  0.0242 -0.4008 -0.1254
  191POPC   C3122024   1.982   2.136   6.912 -0.5821  0.2209  0.2003
  191POPC   O3222025   1.939   2.089   6.806 -0.5652  0.3803 -0.6444
  191POPC   C3222026   2.051   2.057   7.022  0.3875 -0.1571  0.7094
  191POPC   H2X22027   2.057   1.956   6.976  0.7568 -0.0831  0.5938
  191POPC   H2Y22028   1.985   2.057   7.111 -0.4887  1.4542  0.0999
  191POPC   C2322029   2.359   2.201   6.696  0.2505  0.5055 -0.5387
  191POPC   H3R22030   2.407   2.124   6.632 -1.7753 -0.5221 -0.8916
  191POPC   H3S22031   2.280   2.148   6.753  1.4674 -0.4186  0.3268
  191POPC   C2422032   2.461   2.250   6.787  0.1797  0.1470 -0.2887
  191POPC   H4R22033   2.412   2.306   6.871  0.0073 -0.0260 -0.2747
  191POPC   H4S22034   2.521   2.332   6.742  2.2035  0.4548  2.6537
  191POPC   C2522035   2.561   2.139   6.835  0.1983  0.6438  0.3347
  191POPC   H5R22036   2.641   2.124   6.759 -0.3729 -4.2430  0.4227
  191POPC   H5S22037   2.506   2.046   6.860  1.0970 -0.1496 -0.5141
  191POPC   C2622038   2.627   2.173   6.968  0.2906 -0.2047 -0.0800
  191POPC   H6R22039   2.545   2.180   7.044 -1.0104 -0.2303 -1.4376
  191POPC   H6S22040   2.687   2.265   6.949  1.6047 -1.0448 -0.1145
  191POPC   C2722041   2.730   2.069   7.022  0.5505 -0.3010 -0.2428
  191POPC   H7R22042   2.792   2.114   7.103 -1.9403  4.6324 -0.7159
  191POPC   H7S22043   2.803   2.062   6.938  1.5182  0.0986  0.5404
  191POPC   C2822044   2.671   1.938   7.059  0.5437  0.2042 -0.0590
  191POPC   H8R22045   2.629   1.891   6.967  0.5328 -0.1974  0.1497
  191POPC   H8S22046   2.590   1.922   7.132 -0.2500 -0.1801 -0.9985
  191POPC   C2922047   2.783   1.840   7.100  0.3043 -0.0420 -0.4216
  191POPC   H9122048   2.813   1.781   7.012  0.6614  0.2224 -0.4825
  191POPC  C21022049   2.844   1.841   7.220 -0.0361  0.1978  0.0390
  191POPC  H10122050   2.927   1.772   7.240 -1.2484 -1.5293 -0.7142
  191POPC  C21122051   2.808   1.947   7.324  0.2141 -0.2304 -0.1989
  191POPC  H11R22052   2.709   1.997   7.326  1.2036  1.9577  3.1340
  191POPC  H11S22053   2.883   2.029   7.315  0.6817 -0.7387 -1.1401
  191POPC  C21222054   2.833   1.886   7.463 -0.3713  0.5632 -0.1971
  191POPC  H12R22055   2.937   1.846   7.467 -1.3815 -2.2459  0.0519
  191POPC  H12S22056   2.771   1.795   7.474  0.6200 -0.0420  0.5352
  191POPC  C21322057   2.805   1.983   7.578  0.1121  0.4722 -0.1217
  191POPC  H13R22058   2.701   2.023   7.572 -0.5610 -1.2700 -0.9089
  191POPC  H13S22059   2.879   2.066   7.580  1.4867 -0.6083 -2.3830
  191POPC  C21422060   2.817   1.906   7.710  0.6617  0.2442 -0.8076
  191POPC  H14R22061   2.917   1.861   7.724  0.2321 -0.3316  0.5729
  191POPC  H14S22062   2.750   1.821   7.736  2.3634 -1.4415 -1.6888
  191POPC  C21522063   2.815   2.002   7.841  0.5276  0.1121 -0.2511
  191POPC  H15R22064   2.884   2.089   7.830 -0.9000  1.2181 -0.7379
  191POPC  H15S22065   2.856   1.938   7.923 -0.4788  0.6549  0.6890
  191POPC  C21622066   2.675   2.051   7.885 -0.3740 -0.2812 -0.3262
  191POPC  H16R22067   2.618   1.961   7.915 -0.5434 -0.2447 -0.5454
  191POPC  H16S22068   2.636   2.094   7.791  0.9490  0.1476 -0.7119
  191POPC  C21722069   2.675   2.157   7.998 -0.2598  0.1455  0.3054
  191POPC  H17R22070   2.567   2.177   8.015 -0.5317  0.0233 -1.1993
  191POPC  H17S22071   2.732   2.246   7.965  1.4719 -0.3490  1.7606
  191POPC  C21822072   2.748   2.123   8.128  0.0590  0.1796  1.0716
  191POPC  H18R22073   2.710   2.192   8.207  0.4463  1.7288 -0.0529
  191POPC  H18S22074   2.858   2.123   8.115  0.1633 -2.4283  1.3637
  191POPC  H18T22075   2.717   2.019   8.149 -2.1306 -0.2308 -3.1202
  191POPC   C3322076   2.191   2.112   7.068  0.0660  0.0020 -0.0430
  191POPC   H3X22077   2.187   2.223   7.064 -1.4070  0.0332  1.3017
  191POPC   H3Y22078   2.247   2.085   6.976 -1.8334  0.7987 -1.4831
  191POPC   C3422079   2.263   2.057   7.198 -0.1961  0.0324 -0.1285
  191POPC   H4X22080   2.372   2.071   7.181  0.2218 -3.0776 -0.7808
  191POPC   H4Y22081   2.242   1.948   7.194 -1.1727  0.2537 -1.8457
  191POPC   C3522082   2.207   2.113   7.329  0.4840 -0.5874 -1.0374
  191POPC   H5X22083   2.099   2.098   7.311  0.3804 -2.1190  0.6223
  191POPC   H5Y22084   2.240   2.216   7.359 -0.8357 -0.0658 -1.3290
  191POPC   C3622085   2.242   2.030   7.459  1.1439  0.0809  0.5797
  191POPC   H6X22086   2.351   2.013   7.467  1.4020  1.3399 -0.0553
  191POPC   H6Y22087   2.186   1.935   7.448 -0.7970  1.3578 -1.6242
  191POPC   C3722088   2.180   2.099   7.583 -0.7600  0.4313  0.2479
  191POPC   H7X22089   2.070   2.085   7.595 -0.9338 -0.1509 -1.5938
  191POPC   H7Y22090   2.181   2.210   7.578  0.4198  0.3981 -0.6488
  191POPC   C3822091   2.248   2.052   7.712 -0.3468  0.2115  0.5934
  191POPC   H8X22092   2.346   2.105   7.721  0.8228 -1.7290 -0.0256
  191POPC   H8Y22093   2.272   1.944   7.717 -0.1698  0.2402  0.3956
  191POPC   C3922094   2.163   2.088   7.841 -0.2022  0.4879  0.0045
  191POPC   H9X22095   2.058   2.056   7.828 -0.0481 -1.0456  2.0471
  191POPC   H9Y22096   2.159   2.199   7.849 -0.9016  0.4618 -0.0009
  191POPC  C31022097   2.219   2.028   7.973 -0.5103 -0.3009  0.5260
  191POPC  H10X22098   2.325   2.060   7.986 -1.0442  0.8943  2.3529
  191POPC  H10Y22099   2.209   1.919   7.952  1.2468 -0.3452 -0.2458
  191POPC  C31122100   2.151   2.082   8.104  0.1960  0.7037  0.5653
  191POPC  H11X22101   2.046   2.048   8.112 -0.4121  2.7201  1.8376
  191POPC  H11Y22102   2.146   2.193   8.095 -2.0054  0.6569  0.7090
  191POPC  C31222103   2.239   2.045   8.230  0.5957  0.4890 -0.1509
  191POPC  H12X22104   2.333   2.087   8.189  0.9795  0.1958  0.4304
  191POPC  H12Y22105   2.242   1.934   8.232 -0.1213  0.4323 -1.0228
  191POPC  C31322106   2.201   2.123   8.358 -0.7709 -0.0708 -0.1979
  191POPC  H13X22107   2.105   2.087   8.399 -0.7759  0.5010  0.3113
  191POPC  H13Y22108   2.177   2.225   8.320 -0.9635 -0.7385 -1.9875
  191POPC  C31422109   2.311   2.113   8.465  0.1406  0.0912  0.4078
  191POPC  H14X22110   2.414   2.139   8.431 -0.9073  3.7081 -0.5159
  191POPC  H14Y22111   2.317   2.009   8.503  0.4507  0.2961  0.9489
  191POPC  C31522112   2.268   2.193   8.594  0.2260 -0.8253  0.1141
  191POPC  H15X22113   2.179   2.147   8.643 -0.3692  0.6025  0.4103
  191POPC  H15Y22114   2.243   2.293   8.553 -0.9337 -1.5826 -1.1298
  191POPC  C31622115   2.379   2.209   8.695 -0.7180  0.9445 -0.4734
  191POPC  H16X22116   2.405   2.109   8.735  0.4389  1.5838  0.4487
  191POPC  H16Y22117   2.343   2.271   8.780 -0.6303  1.8107 -1.0439
  191POPC  H16Z22118   2.473   2.251   8.652  0.2446  0.7890  1.3938
  192POPC     N22119   5.110   6.054   6.000  0.5273 -0.9777  0.1590
  192POPC   C1222120   5.183   6.047   6.129 -0.1557  0.3593 -0.6179
  192POPC  H12A22121   5.199   6.143   6.175 -0.2056  0.1779 -0.2221
  192POPC  H12B22122   5.280   6.011   6.098  0.3939  1.4800 -0.2778
  192POPC   C1322123   4.991   6.144   6.012 -0.2574 -0.2255 -0.5028
  192POPC  H13A22124   4.911   6.110   6.076  0.5221 -2.8097 -0.8017
  192POPC  H13B22125   5.021   6.239   6.054 -2.0538 -0.2165  0.8815
  192POPC  H13C22126   4.947   6.170   5.917 -1.3174  0.6544  0.1988
  192POPC   C1422127   5.201   6.115   5.903  0.2761  0.0629 -0.2929
  192POPC  H14A22128   5.296   6.065   5.897 -0.1490 -1.1600  1.9394
  192POPC  H14B22129   5.157   6.112   5.805  0.5273 -0.5097 -0.3924
  192POPC  H14C22130   5.226   6.216   5.932 -0.3053  0.4600 -1.1560
  192POPC   C1522131   5.078   5.917   5.948 -0.0611 -0.1439 -0.2976
  192POPC  H15A22132   5.039   5.853   6.026 -2.1949 -0.3487 -1.4343
  192POPC  H15B22133   5.164   5.872   5.902 -0.2092 -0.6524 -0.0845
  192POPC  H15C22134   5.000   5.919   5.873 -1.1562  2.3575  0.7837
  192POPC   C1122135   5.139   5.951   6.243 -0.2943 -0.4271  0.0537
  192POPC  H11A22136   5.035   5.982   6.264 -0.9509  0.6910 -3.9745
  192POPC  H11B22137   5.191   5.972   6.339  1.0974 -2.5741 -0.1548
  192POPC     P22138   5.290   5.746   6.210 -0.0020  0.1532  0.3749
  192POPC   O1322139   5.382   5.813   6.116  0.0833  0.4202 -0.3099
  192POPC   O1422140   5.284   5.601   6.198 -0.2026 -0.2955 -0.4511
  192POPC   O1222141   5.144   5.812   6.209  0.1290 -0.0312  0.5182
  192POPC   O1122142   5.343   5.770   6.360 -0.3541  0.5131 -0.4764
  192POPC    C122143   5.459   5.698   6.407  0.0369 -0.6169  0.2042
  192POPC    HA22144   5.534   5.692   6.326 -1.2371  1.1433 -1.1913
  192POPC    HB22145   5.439   5.592   6.431  0.9373 -0.9436 -0.4852
  192POPC    C222146   5.505   5.761   6.542  0.6115 -0.2303  0.4991
  192POPC    HS22147   5.584   5.700   6.590 -2.0304 -2.9809  1.6690
  192POPC   O2122148   5.388   5.777   6.627  0.0562 -0.0058  0.5573
  192POPC   C2122149   5.359   5.670   6.689 -0.4949  0.1557  0.6930
  192POPC   O2222150   5.409   5.558   6.675  0.3418 -0.3652  0.6953
  192POPC   C2222151   5.254   5.696   6.802  0.3492  0.9327 -0.4838
  192POPC   H2R22152   5.163   5.656   6.752  0.8025 -0.4378 -0.2269
  192POPC   H2S22153   5.249   5.805   6.827 -1.7626  0.6762  0.3992
  192POPC    C322154   5.569   5.901   6.516 -0.5671 -0.2081  0.3360
  192POPC    HX22155   5.521   5.947   6.427  1.7348 -0.2616 -1.0101
  192POPC    HY22156   5.674   5.888   6.484 -0.6850  0.2993 -0.2900
  192POPC   O3122157   5.548   5.989   6.636  0.4133  0.0277  0.6260
  192POPC   C3122158   5.446   6.073   6.642  0.1537 -0.2525 -0.6047
  192POPC   O3222159   5.366   6.090   6.555  0.4325 -0.1791  0.1351
  192POPC   C3222160   5.443   6.127   6.782 -0.1525  0.4736  0.2036
  192POPC   H2X22161   5.545   6.148   6.819 -0.4563  3.2030 -0.2452
  192POPC   H2Y22162   5.402   6.041   6.839 -2.6427  1.5777  0.2338
  192POPC   C2322163   5.283   5.613   6.931 -1.0577 -0.4157 -0.4350
  192POPC   H3R22164   5.292   5.504   6.910 -1.9696 -0.3075 -1.4960
  192POPC   H3S22165   5.187   5.608   6.986  0.2678 -0.9850  1.9599
  192POPC   C2422166   5.379   5.676   7.028  0.8515 -0.0939  0.4205
  192POPC   H4R22167   5.437   5.758   6.980  1.7809  0.3291  2.1855
  192POPC   H4S22168   5.454   5.603   7.067  0.1291 -0.0451  2.0072
  192POPC   C2522169   5.315   5.736   7.159  0.3708  0.4812  0.1738
  192POPC   H5R22170   5.261   5.657   7.216 -0.7816  1.6297  0.7085
  192POPC   H5S22171   5.243   5.815   7.130 -1.9650 -2.6254 -3.4585
  192POPC   C2622172   5.423   5.808   7.246  0.2873  0.2215  0.5063
  192POPC   H6R22173   5.471   5.886   7.183  0.2716 -1.7773 -2.1315
  192POPC   H6S22174   5.491   5.724   7.273 -1.4058 -0.9320  1.3481
  192POPC   C2722175   5.388   5.853   7.393 -0.4464  0.6714 -0.0911
  192POPC   H7R22176   5.316   5.935   7.371 -0.1687  0.9330 -0.0267
  192POPC   H7S22177   5.484   5.893   7.431 -0.6453  2.4470 -1.3329
  192POPC   C2822178   5.327   5.742   7.479  0.0424 -0.4240 -0.2240
  192POPC   H8R22179   5.400   5.660   7.465  0.9530  0.6049 -1.7868
  192POPC   H8S22180   5.229   5.714   7.435  0.2134  0.9924 -1.5731
  192POPC   C2922181   5.304   5.768   7.625 -0.2743 -0.8069 -0.5660
  192POPC   H9122182   5.200   5.758   7.660 -0.2073  1.6357  0.5553
  192POPC  C21022183   5.381   5.826   7.715 -0.3841  0.2673 -0.8995
  192POPC  H10122184   5.332   5.844   7.812  0.2857 -1.1877 -0.2722
  192POPC  C21122185   5.521   5.873   7.718  0.0525  0.3598 -0.1010
  192POPC  H11R22186   5.528   5.982   7.738 -0.1839  0.1278  1.3785
  192POPC  H11S22187   5.566   5.863   7.617 -0.2463  2.0772 -0.4428
  192POPC  C21222188   5.618   5.805   7.820  0.6109  0.5408 -0.1266
  192POPC  H12R22189   5.712   5.864   7.810  1.3209 -0.8333 -2.2456
  192POPC  H12S22190   5.646   5.702   7.788 -0.3520  0.1470  0.2836
  192POPC  C21322191   5.582   5.791   7.970  0.4985 -0.6374 -0.1984
  192POPC  H13R22192   5.653   5.729   8.029 -0.5579  0.1316  1.9943
  192POPC  H13S22193   5.481   5.745   7.977  0.6809 -0.9471  0.4502
  192POPC  C21422194   5.591   5.927   8.046  0.6418 -0.2836 -0.1094
  192POPC  H14R22195   5.511   5.997   8.015 -0.5533 -0.9572  1.3204
  192POPC  H14S22196   5.691   5.974   8.034  1.5022 -2.0343 -0.1536
  192POPC  C21522197   5.582   5.904   8.201  1.2753  0.3711 -0.2308
  192POPC  H15R22198   5.660   5.832   8.233 -0.2686 -1.0776  0.4319
  192POPC  H15S22199   5.487   5.851   8.222  1.3804  0.0991 -0.4417
  192POPC  C21622200   5.597   6.029   8.281 -0.4292 -0.4912 -0.0516
  192POPC  H16R22201   5.570   6.113   8.213  1.5546 -0.6535 -1.1066
  192POPC  H16S22202   5.698   6.047   8.323 -1.3766  0.6857  1.8878
  192POPC  C21722203   5.493   6.036   8.384 -0.6959 -0.1266  0.4622
  192POPC  H17R22204   5.500   5.951   8.455 -0.7464 -1.7190 -1.3650
  192POPC  H17S22205   5.400   6.034   8.323  0.2126  0.4041 -0.9941
  192POPC  C21822206   5.495   6.170   8.459 -0.7518 -0.4423  0.0343
  192POPC  H18R22207   5.458   6.161   8.563  2.1001  1.5311  1.3248
  192POPC  H18S22208   5.454   6.249   8.392  2.9229  1.9411  0.3097
  192POPC  H18T22209   5.602   6.194   8.476 -0.1355 -1.8308 -1.5272
  192POPC   C3322210   5.338   6.231   6.817  0.3391  0.3294  0.7354
  192POPC   H3X22211   5.256   6.240   6.744 -2.0056  0.1933  3.2019
  192POPC   H3Y22212   5.396   6.326   6.825 -0.7511  0.9775  1.1538
  192POPC   C3422213   5.264   6.212   6.956 -1.0641  0.8954 -0.0983
  192POPC   H4X22214   5.201   6.299   6.984 -0.5572  0.7387  1.6738
  192POPC   H4Y22215   5.351   6.198   7.023  1.3793 -0.4657 -3.2734
  192POPC   C3522216   5.182   6.080   6.978 -0.6010  0.0137  0.4765
  192POPC   H5X22217   5.243   5.991   7.004  1.1010  1.4074  1.5000
  192POPC   H5Y22218   5.134   6.060   6.880 -0.1591  0.0133  0.2582
  192POPC   C3622219   5.076   6.087   7.089  0.0392  0.3719  0.2414
  192POPC   H6X22220   5.042   5.984   7.113 -1.8396  0.6339 -1.0777
  192POPC   H6Y22221   4.992   6.140   7.041  2.1605  1.0807 -3.0781
  192POPC   C3722222   5.126   6.148   7.221 -0.3554 -0.0112  0.2975
  192POPC   H7X22223   5.137   6.258   7.232 -2.6623  0.4704 -1.4170
  192POPC   H7Y22224   5.215   6.088   7.250 -1.4252 -2.7232 -1.6805
  192POPC   C3822225   5.028   6.104   7.337 -0.1872 -0.8491  0.7286
  192POPC   H8X22226   5.020   5.993   7.332 -2.0637 -0.7229  0.4474
  192POPC   H8Y22227   4.931   6.149   7.307  1.4314  1.4246 -1.4597
  192POPC   C3922228   5.067   6.141   7.478  0.2397 -0.2324  0.2910
  192POPC   H9X22229   5.113   6.242   7.472 -0.6747  0.1162 -1.7918
  192POPC   H9Y22230   5.145   6.071   7.515 -1.3027 -1.9056  0.4779
  192POPC  C31022231   4.937   6.122   7.557 -0.6386 -0.4883 -0.4283
  192POPC  H10X22232   4.885   6.029   7.525 -1.6878 -0.3450  0.8061
  192POPC  H10Y22233   4.859   6.198   7.535 -1.0469 -0.4058  1.1618
  192POPC  C31122234   4.959   6.109   7.710  0.1584  0.1224  0.0876
  192POPC  H11X22235   4.858   6.096   7.756  0.7974 -1.9195  1.0447
  192POPC  H11Y22236   5.001   6.201   7.757 -0.6383 -1.2758  3.9515
  192POPC  C31222237   5.042   5.995   7.763  0.2862  0.0600  0.0468
  192POPC  H12X22238   5.137   5.995   7.707 -0.9611 -0.9409 -2.2060
  192POPC  H12Y22239   4.992   5.896   7.751  0.3427 -0.5009  3.3269
  192POPC  C31322240   5.072   6.005   7.912  0.4536  0.6160 -0.1141
  192POPC  H13X22241   5.122   5.909   7.937  1.4062  1.4953  1.4722
  192POPC  H13Y22242   4.969   6.019   7.951 -0.0570  2.9921 -2.0735
  192POPC  C31422243   5.172   6.114   7.938 -0.1622  0.2226  0.5564
  192POPC  H14X22244   5.133   6.218   7.932 -0.9017 -0.0990 -0.4184
  192POPC  H14Y22245   5.249   6.125   7.858 -1.3542 -0.6341 -0.7389
  192POPC  C31522246   5.231   6.096   8.081 -0.2332  0.1635  0.4117
  192POPC  H15X22247   5.309   6.173   8.099  0.6633 -0.4649 -0.6488
  192POPC  H15Y22248   5.284   5.999   8.067 -2.0068 -0.6259 -1.2013
  192POPC  C31622249   5.135   6.077   8.187  0.0574 -0.0493  0.9319
  192POPC  H16X22250   5.188   6.078   8.284  0.5449 -0.0395  0.6667
  192POPC  H16Y22251   5.085   5.978   8.180  1.6009 -0.8171  0.2499
  192POPC  H16Z22252   5.065   6.163   8.180  0.1641 -0.0980 -2.2470
  193SOD    SOD22253   2.490   6.373   2.889  0.3395 -0.5564  0.3879
  194SOD    SOD22254   0.853   6.252  12.394 -0.3141  0.4057 -0.2371
  195SOD    SOD22255   1.091   5.164  14.983 -0.1382  0.0692 -0.1066
  196SOD    SOD22256   1.928   2.094   2.216  0.1793  0.2542  0.0715
  197SOD    SOD22257   6.685   1.482   6.407 -0.0547 -0.3277  0.1402
  198SOD    SOD22258   1.998   6.151   6.014 -0.2774  0.2789  0.0941
  199SOD    SOD22259   5.766   5.715  16.471  0.3019 -0.1911  0.1224
  200SOD    SOD22260   1.237   4.200   2.587 -0.1151 -0.2993  0.4951
  201SOD    SOD22261   5.552   6.250   4.879  0.4383  0.4533  0.3402
  202SOD    SOD22262   4.739   5.026   2.903  0.1503  0.2168  0.1921
  203SOD    SOD22263   2.071   3.901   6.412 -0.4372 -0.5929 -0.2731
  204SOD    SOD22264   3.002   3.108  10.623  0.1850 -0.7733  0.0651
  205SOD    SOD22265   5.929   4.806  16.885  0.1831 -0.3613  0.1684
  206SOD    SOD22266   5.587   0.722  15.111  0.2209  0.2428  0.0545
  207SOD    SOD22267   4.197   6.043  15.704  0.1310 -0.2991  0.8326
  208SOD    SOD22268   2.416   6.214  11.488  0.2996 -1.2145  0.1164
  209SOD    SOD22269   1.068   3.094   5.491  0.5405 -0.0238 -0.0297
  210SOD    SOD22270   4.374   5.893   4.657 -0.3541  0.1672  0.2142
  211SOD    SOD22271   3.507   2.394   6.059  0.7241  0.1711  0.2630
  212SOD    SOD22272   4.132   1.356   3.172  0.3561 -0.1077  0.4931
  213SOD    SOD22273   4.623   1.504   2.074 -0.2484  0.1846  0.6341
  214SOD    SOD22274   4.822   0.307  16.068  0.1384  0.0525 -0.0854
  215SOD    SOD22275   5.995   3.392  15.627 -0.4603  0.2388  0.2363
  216SOD    SOD22276   6.536   0.376  15.026 -0.3974 -0.1746 -0.6794
  217SOD    SOD22277   3.933   1.674  14.021 -0.0226 -0.1651  0.0534
  218SOD    SOD22278   5.245   1.611   0.837 -0.2708 -0.4813  0.0231
  219SOD    SOD22279   0.451   1.369  12.162 -0.0628 -0.3852 -0.1007
  220SOD    SOD22280   4.803   4.410  14.118 -0.1210  0.3225  0.0470
  221SOD    SOD22281   1.325   6.185  14.386 -0.0488 -0.5045  0.4302
  222SOD    SOD22282   1.294   5.556  10.579  0.5559 -0.1598 -0.1861
  223SOD    SOD22283   4.464   3.543   6.515 -0.2530  0.2795 -0.1065
  224SOD    SOD22284   1.432   5.555  16.162 -0.1770  0.5188 -0.0957
  225SOD    SOD22285   4.365   5.111  11.323  0.0861  0.3911 -0.2490
  226SOD    SOD22286   2.842   0.002   6.086  0.3213  0.0721 -0.3376
  227SOD    SOD22287   2.610   5.942  16.223 -0.2573  0.5060  0.0718
  228SOD    SOD22288   5.773   6.351  11.293  0.4236  0.2710  0.2115
  229SOD    SOD22289   1.537   0.012   1.588  0.2590 -0.0953 -0.1366
  230SOD    SOD22290   3.627   4.091  14.528  0.2378 -0.0917  0.0269
  231SOD    SOD22291   4.231   4.629   4.312  0.3660 -0.2402 -0.3188
  232SOD    SOD22292   2.120   2.151   6.113 -0.0738 -0.3926 -0.1049
  233SOD    SOD22293   6.354   5.734   4.100 -0.1928  0.4134 -0.3545
  234SOD    SOD22294   0.623   2.737  11.522 -0.1188 -0.1620  0.0668
  235SOD    SOD22295   0.259   0.100   3.348  0.2323 -0.5121  0.0706
  236SOD    SOD22296   0.652   4.026   3.949  0.1515 -0.0304  0.1717
  237SOD    SOD22297   5.732   2.264  12.212  0.0418  0.2967  0.4007
  238SOD    SOD22298   3.455   0.109   5.978 -0.1250 -0.6123 -0.2858
  239SOD    SOD22299   0.421   0.785  10.855 -0.5214 -0.8443  0.3440
  240SOD    SOD22300   5.897   4.781  13.348  0.0155  0.3471 -0.2279
  241SOD    SOD22301   6.034   3.550  14.192 -0.2812  0.0205  0.1516
  242SOD    SOD22302   3.082   1.259   1.210 -0.1211 -0.0894 -0.1642
  243SOD    SOD22303   4.941   4.930   4.336 -0.1492  0.0534 -0.0793
  244SOD    SOD22304   1.239   2.528  11.759  0.2957 -0.2448  0.1339
  245SOD    SOD22305   0.202   3.409   6.322 -0.5077  0.0885  0.0376
  246SOD    SOD22306   2.461   2.515  13.452  0.4198  0.2787  0.3170
  247SOD    SOD22307   3.235   6.647   1.677  0.3542 -0.6543  0.3279
  248SOD    SOD22308   2.399   4.359   5.463  0.1261  0.3138 -0.0198
  249SOD    SOD22309   1.659   3.958  14.358  0.0280 -0.3552  0.3450
  250SOD    SOD22310   1.298   1.556  14.472  0.3536  0.0272  0.0908
  251SOD    SOD22311   6.386   3.325   0.131 -0.1372 -0.0276 -0.3667
  252SOD    SOD22312   3.901   6.681  13.183 -0.5979 -0.7032 -0.3009
  253SOD    SOD22313   1.740   0.687  15.622 -0.1165  0.3360  0.1172
  254SOD    SOD22314   3.542   5.576   0.079 -0.0318 -0.4429 -0.1620
  255SOD    SOD22315   5.293   1.312   4.323 -0.2170 -0.2413 -0.4438
  256SOD    SOD22316   4.823   1.406   0.479 -0.0132 -0.0885 -0.0387
  257SOD    SOD22317   3.905   3.369   4.828 -0.1193 -0.2456  0.1757
  258SOD    SOD22318   4.211   2.519  15.056 -0.1725  0.1049  0.0554
  259SOD    SOD22319   6.152   2.458  15.981 -0.0046  0.4512 -0.1139
  260SOD    SOD22320   3.147   3.693  15.836  0.6488 -0.4086  0.1535
  261SOD    SOD22321   2.038   5.745   1.577  0.5559  0.4549 -0.1362
  262SOD    SOD22322   2.786   5.475  11.297  0.5720  0.8394  0.1051
  263SOD    SOD22323   3.203   4.029   4.144 -0.0856  0.2198 -0.4882
  264SOD    SOD22324   2.815   4.597  16.652  0.4330 -0.0128  0.5515
  265SOD    SOD22325   5.111   0.916   5.790  0.2588  0.1256 -0.1678
  266SOD    SOD22326   5.388   4.233   3.685  0.2701 -0.4214  0.1724
  267SOD    SOD22327   3.916   2.843  11.526  0.0823  0.4063  0.0400
  268SOD    SOD22328   4.754   6.690  10.640  0.2168  0.1848  0.2327
  269SOD    SOD22329   0.034   5.058   0.966  0.3141  0.2699  0.2042
  270CLA    CLA22330   1.183   3.539   2.863 -0.1643 -0.1401  0.0996
  271CLA    CLA22331   1.746   1.606   0.056  0.4610 -0.1667 -0.0966
  272CLA    CLA22332   1.389   1.526  12.757  0.5616 -0.0781  0.3119
  273CLA    CLA22333   4.317   0.464  16.801 -0.4442 -0.4425  0.6082
  274CLA    CLA22334   3.248   4.299   3.286 -0.0394 -0.3930  0.1405
  275CLA    CLA22335   3.522   2.598  11.666  0.0339  0.1443 -0.7962
  276CLA    CLA22336   3.046   2.425   5.246 -0.1073  0.0410 -0.5767
  277CLA    CLA22337   4.868   2.225  15.005  0.1465 -0.1045  0.1941
  278CLA    CLA22338   2.651   2.237  13.727 -0.0036 -0.0128 -0.1145
  279CLA    CLA22339   5.582   5.415  16.737  0.4207 -0.1073 -0.3547
  280CLA    CLA22340   5.110   6.701  16.115  0.1348 -0.2014  0.0885
  281CLA    CLA22341   5.483   5.055   0.855  0.2416 -0.0464 -0.0994
  282CLA    CLA22342   4.429   4.554  13.811  0.2416  0.1084 -0.3076
  283CLA    CLA22343   0.412   6.569  12.929 -0.0170  0.2673 -0.1956
  284CLA    CLA22344   6.608   5.063   4.183 -0.0700 -0.0765 -0.1416
  285CLA    CLA22345   1.884   3.374  14.708 -0.0893 -0.0625  0.2016
  286CLA    CLA22346   3.388   6.576   1.168 -0.3362 -0.1571 -0.2781
  287CLA    CLA22347   2.375   2.959   2.825 -0.1500 -0.1846  0.1960
  288CLA    CLA22348   4.162   5.762   1.230 -0.0911  0.1995  0.2131
  289CLA    CLA22349   2.316   0.275   1.257 -0.6570 -0.0742  0.0981
  290CLA    CLA22350   4.876   4.183  14.622  0.1166  0.1543 -0.1201
  291CLA    CLA22351   5.037   3.370   3.618  0.1589 -0.1053 -0.4119
  292CLA    CLA22352   3.462   4.632  15.685  0.1559 -0.3613  0.0443
  293CLA    CLA22353   6.021   6.471  11.690 -0.2207 -0.0034  0.3125
  294CLA    CLA22354   5.291   3.678   1.711 -0.1119 -0.0781 -0.2988
  295CLA    CLA22355   4.871   0.889   2.888 -0.2950  0.1126  0.1406
  296CLA    CLA22356   1.187   3.770   5.045  0.0161 -0.2506  0.3833
  297CLA    CLA22357   3.566   1.429  11.365  0.0825 -0.3220 -0.1099
  298CLA    CLA22358   3.503   6.170  15.442  0.1460 -0.2304  0.0464
  299CLA    CLA22359   4.582   5.828  14.117  0.1614 -0.8895 -0.1523
  300CLA    CLA22360   5.723   5.255  16.016 -0.2473 -0.1204  0.0702
  301CLA    CLA22361   3.160   1.121   1.898 -0.3710  0.1305 -0.0264
  302CLA    CLA22362   5.289   0.304  12.751 -0.2952  0.0258 -0.1605
  303CLA    CLA22363   5.745   3.116  16.341  0.2539 -0.2483  0.1113
  304CLA    CLA22364   2.657   6.336  15.124 -0.0050 -0.4271  0.3717
  305CLA    CLA22365   6.035   5.459  14.295  0.0545 -0.0092 -0.1764
  306CLA    CLA22366   4.561   4.671   0.502  0.1381  0.2067  0.0720
  307CLA    CLA22367   2.376   5.564   0.943  0.2724 -0.2994  0.0652
  308CLA    CLA22368   1.635   4.878  15.514 -0.1098 -0.1001 -0.2894
  309CLA    CLA22369   2.739   3.839   3.755 -0.2919  0.3755 -0.4891
  310CLA    CLA22370   1.103   4.677  14.672 -0.2067  0.0596 -0.1865
  311CLA    CLA22371   2.899   2.864   2.135  0.2086  0.2106  0.4331
  312CLA    CLA22372   2.849   1.635   4.733 -0.3357  0.3600 -0.2104
  313CLA    CLA22373   1.696   0.366  16.772 -0.4152  0.1481 -0.3489
  314CLA    CLA22374   4.177   4.530   3.172 -0.2743  0.2994  0.3196
  315CLA    CLA22375   6.080   5.153   1.997  0.1077  0.1282  0.1614
  316CLA    CLA22376   2.331   3.601   1.696  0.1657  0.5130  0.1938
  317CLA    CLA22377   5.592   3.602  13.694  0.0027  0.1109  0.4156
  318CLA    CLA22378   5.885   5.551  16.316 -0.1969  0.0641 -0.0781
  319CLA    CLA22379   4.084   0.421   1.753  0.1118 -0.3683 -0.0482
  320CLA    CLA22380   6.122   6.106   5.537  0.1869 -0.0819 -0.1705
  321CLA    CLA22381   6.726   3.542  17.081 -0.3615 -0.1369 -0.1275
  322CLA    CLA22382   0.116   2.926   4.230 -0.0151 -0.1390  0.1872
  323TIP3   OH222383   3.173   6.773  13.370  0.5566  0.5673 -0.3141
  323TIP3    H122384   3.186   6.772  13.275  1.2658  0.9248 -0.2288
  323TIP3    H222385   3.107   6.840  13.384  1.0345  1.0906 -0.4981
  324TIP3   OH222386   1.511   4.050   1.991 -0.2805  0.1397 -0.2078
  324TIP3    H122387   1.499   3.974   1.933  0.1177  1.3054 -1.8775
  324TIP3    H222388   1.462   4.120   1.949 -0.9086  0.7734  1.4862
  325TIP3   OH222389   0.757   3.456   5.246  0.0265 -0.0088 -0.5164
  325TIP3    H122390   0.825   3.524   5.249 -0.2609  0.3256 -1.4319
  325TIP3    H222391   0.675   3.504   5.262 -0.2691  0.0116 -1.9492
  326TIP3   OH222392   3.476   1.314   5.366 -0.0389  0.3084  0.0558
  326TIP3    H122393   3.551   1.324   5.424  0.3242 -3.3188  0.4553
  326TIP3    H222394   3.401   1.342   5.418  0.6789  0.5933  0.9530
  327TIP3   OH222395   0.770   0.369   0.558  0.3998  0.0217 -0.1281
  327TIP3    H122396   0.787   0.413   0.474 -0.7505 -0.3058 -0.5498
  327TIP3    H222397   0.781   0.438   0.623 -0.0305  0.6206 -0.6700
  328TIP3   OH222398   5.432   3.426   4.738 -0.0745 -0.4417 -0.0943
  328TIP3    H122399   5.421   3.376   4.657 -1.1142 -0.0624 -0.2036
  328TIP3    H222400   5.402   3.514   4.715 -0.2415 -0.2968  0.6644
  329TIP3   OH222401   3.256   6.512   6.140  0.4689  0.3268 -0.3139
  329TIP3    H122402   3.243   6.453   6.066  0.6013  0.0372 -0.1035
  329TIP3    H222403   3.292   6.457   6.210  0.2952  0.5879 -0.0157
  330TIP3   OH222404   0.222   4.872  12.329 -0.0303 -0.1835 -0.4912
  330TIP3    H122405   0.242   4.965  12.329  1.2555 -0.3809 -2.5732
  330TIP3    H222406   0.178   4.856  12.412  0.4300  2.1125  0.2553
  331TIP3   OH222407   0.775   5.254  16.313 -0.9139  0.2221 -0.8624
  331TIP3    H122408   0.755   5.246  16.220  0.5332 -1.0569 -1.1016
  331TIP3    H222409   0.845   5.319  16.317  0.6911 -1.4182 -0.9719
  332TIP3   OH222410   1.086   2.699   4.645  0.5687 -0.1622  0.7370
  332TIP3    H122411   1.122   2.700   4.556  0.9504 -1.7126  0.8508
  332TIP3    H222412   1.019   2.768   4.645  1.4644  0.7471 -0.3552
  333TIP3   OH222413   4.772   5.028   2.679  0.3264 -0.8507 -0.3808
  333TIP3    H122414   4.850   5.022   2.625 -0.5123  0.4363 -1.8154
  333TIP3    H222415   4.708   4.972   2.636  0.0244 -0.8199  0.0180
  334TIP3   OH222416   6.593   5.709   0.946 -0.3231 -0.4286  0.1976
  334TIP3    H122417   6.586   5.793   0.901  0.1659  0.7129  2.1203
  334TIP3    H222418   6.505   5.693   0.980 -0.1990 -0.2071  0.6294
  335TIP3   OH222419   2.165   2.020  15.431  0.2313 -0.1211 -0.2225
  335TIP3    H122420   2.078   2.029  15.470  0.2402 -0.9537  0.0072
  335TIP3    H222421   2.178   2.101  15.382 -0.0956  0.6246  0.8916
  336TIP3   OH222422   6.752   4.915  15.580  0.4677  0.3339 -0.6491
  336TIP3    H122423   6.757   4.912  15.675 -0.5817  0.0443 -0.5832
  336TIP3    H222424   6.692   4.988  15.561  1.4092  1.0111 -1.1350
  337TIP3   OH222425   5.554   6.285  14.511  0.1641 -0.6614  0.1903
  337TIP3    H122426   5.481   6.232  14.479 -1.4753 -0.0903  2.6854
  337TIP3    H222427   5.620   6.222  14.537 -0.4301 -1.3231  0.1240
  338TIP3   OH222428   0.514   0.087  12.972  0.0245 -0.3885 -0.6174
  338TIP3    H122429   0.507  -0.008  12.979  1.5659 -0.4906  0.2020
  338TIP3    H222430   0.511   0.105  12.879 -3.3325 -0.8935 -0.7248
  339TIP3   OH222431   6.443   1.494  16.044  0.2140 -0.4776  0.1428
  339TIP3    H122432   6.461   1.404  16.069 -0.0134 -0.4282  0.4908
  339TIP3    H222433   6.497   1.509  15.966  0.3084 -0.8873  0.1297
  340TIP3   OH222434   3.016   6.076   3.005 -0.1159  0.5862 -0.2354
  340TIP3    H122435   2.961   6.152   2.983 -1.0314  0.0819  0.2747
  340TIP3    H222436   3.088   6.113   3.057 -1.0307  0.9987  0.7759
  341TIP3   OH222437   0.565   2.390   6.587  0.2611 -0.6121  0.2474
  341TIP3    H122438   0.653   2.405   6.624  0.1619  0.5110  0.0498
  341TIP3    H222439   0.581   2.336   6.509  0.7379 -0.6988  0.3998
  342TIP3   OH222440   4.168   0.096  10.896  0.3682  0.0674 -0.3752
  342TIP3    H122441   4.241   0.041  10.926  0.5402 -0.4800 -1.7036
  342TIP3    H222442   4.090   0.058  10.936  0.7639  0.4250  0.7581
  343TIP3   OH222443   5.114   4.898   3.223 -0.8841 -0.5010  0.2896
  343TIP3    H122444   5.063   4.887   3.303 -0.3493 -0.5788  0.6249
  343TIP3    H222445   5.053   4.875   3.152 -1.2718 -0.7147  0.6864
  344TIP3   OH222446   2.306   5.721  11.433 -0.5866 -0.2236  0.0258
  344TIP3    H122447   2.371   5.700  11.500  1.0053 -2.2817 -1.9896
  344TIP3    H222448   2.222   5.717  11.479  0.4527 -1.0948  1.9774
  345TIP3   OH222449   3.246   3.811  12.071  0.0981  0.5535 -0.5192
  345TIP3    H122450   3.241   3.878  12.138 -0.3879  1.0265 -1.0247
  345TIP3    H222451   3.328   3.830  12.024  1.2874 -0.7240  0.9057
  346TIP3   OH222452   5.054   5.880   1.322 -0.6478 -0.2821  0.3278
  346TIP3    H122453   5.075   5.791   1.295 -1.0225 -1.1143  2.5892
  346TIP3    H222454   4.969   5.873   1.365 -0.1471  0.9438  1.5809
  347TIP3   OH222455   1.624   0.349   4.633  0.1612 -0.0614 -0.3448
  347TIP3    H122456   1.586   0.420   4.581 -0.5371  1.0166  1.5423
  347TIP3    H222457   1.638   0.388   4.719  0.4886 -2.0219  0.5264
  348TIP3   OH222458   0.898   3.946   4.006  0.1040 -0.2482 -0.2191
  348TIP3    H122459   0.964   4.016   4.005  0.2530 -0.2971 -3.3734
  348TIP3    H222460   0.934   3.881   4.066  1.0294  1.3715  1.1009
  349TIP3   OH222461   5.007   6.131   0.553  0.6552  0.0060  0.2198
  349TIP3    H122462   5.033   6.171   0.636  0.1052  0.4098  0.1996
  349TIP3    H222463   4.913   6.117   0.561  0.1236  2.1901 -1.1818
  350TIP3   OH222464   5.721   6.566  15.408  0.0921  0.5482  0.6481
  350TIP3    H122465   5.717   6.535  15.498  2.1038 -1.6289  0.0860
  350TIP3    H222466   5.661   6.508  15.360  1.6291 -0.6621  0.0854
  351TIP3   OH222467   0.302   4.636   4.628 -0.2519 -0.3911 -0.2501
  351TIP3    H122468   0.232   4.672   4.573  0.1298  1.1418  0.2106
  351TIP3    H222469   0.277   4.661   4.717  1.2112  0.8107 -0.1473
  352TIP3   OH222470   2.135   4.791   0.776  0.3152 -0.1520 -0.1039
  352TIP3    H122471   2.166   4.871   0.819  0.0812  0.0242 -0.2601
  352TIP3    H222472   2.097   4.821   0.693  3.3298 -0.7727 -1.8362
  353TIP3   OH222473   0.832   1.676  13.784  0.0346 -0.3474  0.4438
  353TIP3    H122474   0.740   1.680  13.758 -0.1831 -1.2105  1.0374
  353TIP3    H222475   0.856   1.584  13.771 -0.2260 -0.9750  3.7104
  354TIP3   OH222476   4.256   2.954   3.909  0.0201  0.7564  0.6151
  354TIP3    H122477   4.347   2.966   3.936 -0.0242  3.5179 -0.0941
  354TIP3    H222478   4.262   2.932   3.816 -0.0279  0.5275  0.6662
  355TIP3   OH222479   2.440   0.490  13.124  0.0830 -0.1285 -0.2854
  355TIP3    H122480   2.379   0.530  13.185  0.3237 -0.9305  0.5025
  355TIP3    H222481   2.388   0.426  13.076  0.7467 -2.7971  2.2536
  356TIP3   OH222482   0.369   1.584   0.717  1.1350 -0.0132 -0.8804
  356TIP3    H122483   0.374   1.619   0.628 -2.4362  0.2914 -1.1200
  356TIP3    H222484   0.435   1.632   0.766  0.3622  2.9510 -2.4983
  357TIP3   OH222485   1.555   6.328  15.860  0.4591  0.0993  0.1799
  357TIP3    H122486   1.582   6.419  15.852  0.0094  0.2253  0.0815
  357TIP3    H222487   1.573   6.305  15.952 -0.4242  0.6128  0.4900
  358TIP3   OH222488   5.660   2.170   2.200 -0.0645 -0.4682 -0.3636
  358TIP3    H122489   5.739   2.211   2.237 -0.4704 -0.9439  1.0691
  358TIP3    H222490   5.686   2.146   2.111  0.8669  0.9274 -0.5065
  359TIP3   OH222491   3.345   0.235   1.831  0.2193 -0.0649 -0.4164
  359TIP3    H122492   3.398   0.281   1.766  0.8225  0.0876  0.1753
  359TIP3    H222493   3.294   0.172   1.780  0.8878 -0.1393 -1.0057
  360TIP3   OH222494   6.622   6.145   5.119 -0.2600  0.3910 -0.2656
  360TIP3    H122495   6.599   6.212   5.183 -1.0343 -0.1306  0.0255
  360TIP3    H222496   6.572   6.068   5.146  0.0246 -0.0777 -1.0318
  361TIP3   OH222497   3.014   4.169   0.303  0.3618 -0.3659 -0.3281
  361TIP3    H122498   3.071   4.246   0.304  0.7023 -0.5846 -1.4739
  361TIP3    H222499   2.956   4.181   0.378 -0.0690  1.3724 -0.9000
  362TIP3   OH222500   6.161   0.268   3.491 -0.4974 -0.5846  0.0708
  362TIP3    H122501   6.072   0.287   3.463 -0.8551 -1.3285  0.6630
  362TIP3    H222502   6.216   0.300   3.419 -1.3553 -1.8788 -1.2221
  363TIP3   OH222503   2.114   3.036   5.113 -0.3019  0.0211 -0.0953
  363TIP3    H122504   2.022   3.017   5.133 -0.6738 -0.0426 -1.7941
  363TIP3    H222505   2.124   3.129   5.135 -1.2090  0.4339 -1.3288
  364TIP3   OH222506   5.804   5.028  17.259 -0.1091  0.0532 -0.4176
  364TIP3    H122507   5.753   5.083  17.319 -1.1559 -0.9083 -0.3801
  364TIP3    H222508   5.829   4.952  17.311  0.3454 -0.0407 -0.7705
  365TIP3   OH222509   2.976   6.634   5.918  1.0312 -0.4713 -0.2966
  365TIP3    H122510   3.042   6.622   5.850  0.5281 -2.1354 -0.5416
  365TIP3    H222511   2.941   6.546   5.933 -0.5339  0.2433  0.4382
  366TIP3   OH222512   1.943   5.730  16.775 -0.0196  0.1327  0.2673
  366TIP3    H122513   1.975   5.642  16.758  0.3992  0.0939  1.2027
  366TIP3    H222514   1.967   5.780  16.697  0.4249 -0.3957  0.0649
  367TIP3   OH222515   3.920   0.582   2.446 -0.4536  0.1381 -0.6408
  367TIP3    H122516   3.841   0.553   2.401 -1.5498  0.7301  0.8113
  367TIP3    H222517   3.949   0.659   2.398  0.1129 -0.9279 -2.0573
  368TIP3   OH222518   6.718   5.133  16.426 -0.0616 -0.0628 -0.0315
  368TIP3    H122519   6.806   5.120  16.462 -0.1884 -1.0427 -0.0544
  368TIP3    H222520   6.679   5.046  16.426 -0.7295  0.2263 -0.8258
  369TIP3   OH222521   0.773   5.477   0.431 -0.2473  0.3101 -0.3621
  369TIP3    H122522   0.694   5.439   0.469  0.1100 -1.9984 -1.7797
  369TIP3    H222523   0.824   5.505   0.507 -0.6141 -1.9360  0.7946
  370TIP3   OH222524   4.579   3.722  16.530 -0.3389 -0.5310 -0.3231
  370TIP3    H122525   4.601   3.739  16.438 -1.5979  0.2646 -0.5068
  370TIP3    H222526   4.487   3.695  16.527 -0.7294  0.6149  0.8179
  371TIP3   OH222527   2.953   0.453   5.520 -0.3124  0.6338  0.0477
  371TIP3    H122528   3.018   0.447   5.590 -0.7644 -0.4714  0.3966
  371TIP3    H222529   2.927   0.545   5.520  1.6893  1.2640 -0.5330
  372TIP3   OH222530   3.777   3.768   3.458  0.0901  0.4546  0.1654
  372TIP3    H122531   3.724   3.771   3.537 -0.3160  0.2577 -0.0942
  372TIP3    H222532   3.720   3.801   3.389 -0.9003 -2.8130 -0.7640
  373TIP3   OH222533   6.355   0.379  15.588 -0.2220 -0.0927  0.5074
  373TIP3    H122534   6.410   0.379  15.666 -0.1600 -0.4198  0.4636
  373TIP3    H222535   6.397   0.443  15.530 -2.1219  2.7524  2.0259
  374TIP3   OH222536   5.055   6.245  13.993  0.1799  0.3658 -0.3651
  374TIP3    H122537   5.026   6.185  13.925  0.2462  2.5219 -2.4275
  374TIP3    H222538   4.976   6.292  14.019  0.1294 -0.5224  1.2238
  375TIP3   OH222539   6.535   6.409  15.305  0.5280 -0.1918 -0.3032
  375TIP3    H122540   6.614   6.462  15.316  0.5827 -0.4586  0.6912
  375TIP3    H222541   6.546   6.336  15.366  0.7346 -1.7271 -2.0877
  376TIP3   OH222542   1.635   0.313  14.622 -0.0355  0.4319 -0.0844
  376TIP3    H122543   1.617   0.361  14.702  0.3674 -1.4131  1.1817
  376TIP3    H222544   1.568   0.342  14.560 -3.2116 -1.2472  2.2846
  377TIP3   OH222545   5.781   2.554   4.544 -0.2322  0.9022 -0.2236
  377TIP3    H122546   5.704   2.542   4.489 -0.0401 -2.0205 -0.0092
  377TIP3    H222547   5.855   2.547   4.483 -0.0671 -0.9062  0.1205
  378TIP3   OH222548   1.093   4.716   6.359 -0.3134  0.3987  0.4259
  378TIP3    H122549   1.113   4.805   6.330 -0.5548  0.8980  1.7036
  378TIP3    H222550   0.998   4.714   6.368 -0.3144 -0.0043  0.3509
  379TIP3   OH222551   5.920   2.216  17.255 -0.1628 -0.1569 -0.2548
  379TIP3    H122552   5.878   2.136  17.221 -1.4312  0.6882 -0.7722
  379TIP3    H222553   5.858   2.286  17.233  1.4749  1.1480 -0.9196
  380TIP3   OH222554   0.751   0.980   0.480  0.0865  0.2439 -0.0034
  380TIP3    H122555   0.786   0.915   0.540 -2.5418 -1.0963  0.2016
  380TIP3    H222556   0.712   1.047   0.536  0.2272  0.5067 -0.2157
  381TIP3   OH222557   1.961   1.477  12.338  0.2560  0.3996 -0.6607
  381TIP3    H122558   1.871   1.456  12.314  0.1253  1.6474 -1.3815
  381TIP3    H222559   1.955   1.564  12.378  1.0517  0.1888 -0.0691
  382TIP3   OH222560   0.308   5.421   1.214  0.3894 -0.5949 -0.4036
  382TIP3    H122561   0.295   5.508   1.251 -2.0226 -0.9605 -0.2563
  382TIP3    H222562   0.364   5.377   1.278 -0.8440 -0.0885  1.0937
  383TIP3   OH222563   4.976   2.765   0.927  0.6084  0.7333  0.1123
  383TIP3    H122564   4.953   2.835   0.866 -1.0040  0.5745  0.5065
  383TIP3    H222565   5.041   2.804   0.985 -0.2038  1.8898  0.2717
  384TIP3   OH222566   2.159   3.962   0.421 -0.1337  0.1859  0.4537
  384TIP3    H122567   2.180   3.953   0.328  0.3213 -1.2047  0.6655
  384TIP3    H222568   2.207   3.891   0.463 -0.4770  0.6928  1.7340
  385TIP3   OH222569   0.688   3.129  12.137 -0.0607  0.0953  0.3114
  385TIP3    H122570   0.623   3.100  12.073  0.9335 -1.5007 -0.0463
  385TIP3    H222571   0.646   3.115  12.222 -0.0733 -1.2949  0.0959
  386TIP3   OH222572   3.354   4.839   6.221  0.5818 -0.4050 -0.0316
  386TIP3    H122573   3.377   4.920   6.265  0.3782  0.3671 -1.2740
  386TIP3    H222574   3.317   4.867   6.137 -1.5164 -1.6914  0.3710
  387TIP3   OH222575   5.030   6.433  14.812  0.5890 -0.1030 -0.1164
  387TIP3    H122576   5.003   6.516  14.771 -0.8612  0.1950  1.3749
  387TIP3    H222577   4.949   6.393  14.841  1.4987 -0.6091  1.8694
  388TIP3   OH222578   4.959   3.551  14.594  0.0115  0.1800  0.1412
  388TIP3    H122579   4.898   3.564  14.521 -1.7356  0.9644  1.6530
  388TIP3    H222580   5.041   3.590  14.564 -0.0222 -1.2640 -2.1248
  389TIP3   OH222581   4.961   3.149   5.216  0.6540  0.0038 -0.1883
  389TIP3    H122582   4.937   3.060   5.239 -1.0083  0.4147 -0.2011
  389TIP3    H222583   5.012   3.141   5.135  1.0632 -0.9546  0.1524
  390TIP3   OH222584   2.031   2.732   5.865 -0.4397 -0.0387  0.1855
  390TIP3    H122585   2.015   2.821   5.898 -0.9855  0.1785 -0.6357
  390TIP3    H222586   2.036   2.678   5.944 -1.9144  0.4259  0.6318
  391TIP3   OH222587   5.427   3.857   1.456 -0.3789  0.3749 -0.2249
  391TIP3    H122588   5.404   3.835   1.546 -0.2210 -3.1233 -0.9142
  391TIP3    H222589   5.359   3.814   1.403  0.4267  1.0094 -1.8397
  392TIP3   OH222590   3.588   5.727  14.089  0.3318  0.3833 -0.5557
  392TIP3    H122591   3.626   5.815  14.086  0.3940  0.3561 -3.8246
  392TIP3    H222592   3.495   5.741  14.105  0.6558  0.8511  1.0947
  393TIP3   OH222593   4.879   2.322  15.635 -0.1430  0.2717 -0.1134
  393TIP3    H122594   4.859   2.231  15.659 -1.4482  0.8849  1.2493
  393TIP3    H222595   4.821   2.341  15.562  1.6176 -0.6033 -1.8337
  394TIP3   OH222596   5.936   5.793   2.484  0.6153  0.0023  0.0285
  394TIP3    H122597   5.948   5.881   2.447  0.1051  0.4372  0.8607
  394TIP3    H222598   5.910   5.739   2.409 -1.1287  1.0123 -0.1635
  395TIP3   OH222599   4.323   3.737   0.680 -0.1155  0.0672 -0.0753
  395TIP3    H122600   4.247   3.682   0.665 -1.0397  1.5628 -1.2282
  395TIP3    H222601   4.318   3.761   0.772 -1.7998  1.1614 -0.4179
  396TIP3   OH222602   0.535   6.010   6.702  0.0657 -0.6047  0.0931
  396TIP3    H122603   0.609   6.024   6.642  1.3925 -1.8581  1.3854
  396TIP3    H222604   0.530   6.091   6.753  1.5779 -1.0803  1.0465
  397TIP3   OH222605   6.231   2.823   1.698  0.3829  0.2789 -0.0725
  397TIP3    H122606   6.304   2.882   1.716 -0.1126  0.0552  3.3183
  397TIP3    H222607   6.171   2.836   1.771 -2.7670  0.0253 -2.4161
  398TIP3   OH222608   3.975   1.082   0.706 -0.1662  0.0308  0.0512
  398TIP3    H122609   4.014   1.045   0.785 -2.7534 -0.0545  1.4020
  398TIP3    H222610   3.914   1.015   0.676 -1.7790  1.4209  0.0527
  399TIP3   OH222611   3.792   2.631  11.469  0.4700  0.2275  0.0147
  399TIP3    H122612   3.699   2.615  11.486  0.8412 -1.9327  0.2592
  399TIP3    H222613   3.833   2.545  11.475  2.4500  1.0789 -0.4563
  400TIP3   OH222614   4.840   2.562  14.553 -0.1096 -0.4800 -0.5462
  400TIP3    H122615   4.852   2.480  14.600 -0.6346  0.8332  2.0708
  400TIP3    H222616   4.842   2.538  14.461  1.5608 -3.1360  0.1042
  401TIP3   OH222617   0.341   3.711  16.713 -0.2288  0.2251  0.0112
  401TIP3    H122618   0.304   3.713  16.802  0.7699  1.1551  0.4191
  401TIP3    H222619   0.388   3.627  16.709 -1.4766 -0.4982 -0.1636
  402TIP3   OH222620   1.458   5.274   2.414 -0.3703 -0.4361  0.2513
  402TIP3    H122621   1.527   5.341   2.414 -0.6440 -0.1417  0.7748
  402TIP3    H222622   1.444   5.255   2.507 -1.5657  0.0988  0.1921
  403TIP3   OH222623   2.061   3.688   2.097  0.2496  0.4968  0.2426
  403TIP3    H122624   2.027   3.746   2.030 -2.3277  0.2304  1.1933
  403TIP3    H222625   2.002   3.612   2.096  1.7881 -0.7877  0.9824
  404TIP3   OH222626   0.318   3.216  15.986  0.0204  0.2727 -0.1521
  404TIP3    H122627   0.381   3.195  15.916  0.1707 -0.6132  0.2315
  404TIP3    H222628   0.311   3.311  15.983  2.2239  0.5229  0.4922
  405TIP3   OH222629   4.834   6.565   4.846 -1.0114  0.5909  0.0528
  405TIP3    H122630   4.912   6.591   4.896 -1.1707 -1.0661  1.2279
  405TIP3    H222631   4.865   6.495   4.789 -1.0264  1.8941 -1.6318
  406TIP3   OH222632   6.409   2.826  13.158  0.1885 -0.0337  0.2450
  406TIP3    H122633   6.411   2.918  13.133 -0.7389  0.4517  1.8717
  406TIP3    H222634   6.490   2.790  13.120 -0.0374  1.1332 -1.4527
  407TIP3   OH222635   5.057   0.558   1.547  0.3700 -0.2166  0.2654
  407TIP3    H122636   5.045   0.465   1.526 -0.2341 -0.0361 -0.2397
  407TIP3    H222637   5.014   0.570   1.631  1.2411 -0.5814  0.7664
  408TIP3   OH222638   2.222   6.178   6.121 -0.2623 -0.2145 -0.0443
  408TIP3    H122639   2.249   6.212   6.206  0.5106 -0.7010 -0.0831
  408TIP3    H222640   2.297   6.127   6.090 -0.4393  0.1444 -1.1210
  409TIP3   OH222641   3.638   2.074  11.799  0.2303 -0.3526  0.1168
  409TIP3    H122642   3.609   1.987  11.774 -2.2026  0.2073  0.7372
  409TIP3    H222643   3.701   2.099  11.732  0.2079 -2.1795 -0.6287
  410TIP3   OH222644   1.373   4.339  13.703 -0.1813  0.1017  0.2852
  410TIP3    H122645   1.320   4.415  13.727  0.2775  1.0736 -1.5850
  410TIP3    H222646   1.317   4.288  13.645  0.5190  0.5607 -0.8165
  411TIP3   OH222647   6.598   2.796  17.000 -0.4303  0.4108 -0.2770
  411TIP3    H122648   6.608   2.810  16.906 -0.7618  0.3542 -0.3232
  411TIP3    H222649   6.602   2.700  17.010  1.4450  0.4858 -0.0081
  412TIP3   OH222650   4.780   4.635  13.840 -0.0363 -0.0011 -0.4183
  412TIP3    H122651   4.838   4.561  13.855  1.4489  1.4243  1.4705
  412TIP3    H222652   4.692   4.600  13.852  0.5320 -1.6733 -0.8165
  413TIP3   OH222653   2.649   1.297   2.124  0.3633 -0.0321  0.2362
  413TIP3    H122654   2.728   1.296   2.070  0.4705 -0.7962  0.3971
  413TIP3    H222655   2.644   1.386   2.159 -0.6181  1.0456 -2.3768
  414TIP3   OH222656   0.966   2.892   5.078 -0.0901  0.0183  0.7602
  414TIP3    H122657   1.054   2.882   5.041 -0.0964  3.5983 -0.6336
  414TIP3    H222658   0.916   2.819   5.041  1.4371 -0.0501 -1.4023
  415TIP3   OH222659   5.334   3.285  11.112 -0.7251 -0.3770  0.7859
  415TIP3    H122660   5.381   3.205  11.088  0.4574 -0.8867  4.2317
  415TIP3    H222661   5.392   3.356  11.087 -0.2796 -0.7873  0.6422
  416TIP3   OH222662   4.114   4.275   3.334 -0.2804 -0.1835 -0.2769
  416TIP3    H122663   4.048   4.232   3.279 -0.6850  1.1951 -0.9171
  416TIP3    H222664   4.152   4.342   3.277 -0.4468  1.0325  1.0030
  417TIP3   OH222665   6.279   5.254  17.277 -0.2938 -0.6805  0.6750
  417TIP3    H122666   6.286   5.276  17.184  2.4378  0.0058  0.9469
  417TIP3    H222667   6.263   5.337  17.321  0.9742 -0.5872  0.9894
  418TIP3   OH222668   2.282   3.181  12.318 -0.0916  0.3188  0.8605
  418TIP3    H122669   2.188   3.195  12.328 -0.0379  0.5726  1.0199
  418TIP3    H222670   2.304   3.221  12.234 -1.2035 -4.9426 -2.4615
  419TIP3   OH222671   6.285   2.315  14.092  0.4497  0.1567 -0.3495
  419TIP3    H122672   6.314   2.234  14.133  1.5319  0.9064  0.4387
  419TIP3    H222673   6.342   2.382  14.129 -1.1584  1.4649 -0.1002
  420TIP3   OH222674   0.997   5.077   2.043  0.4883  0.8348  0.0353
  420TIP3    H122675   0.956   5.162   2.026  0.4523  1.0757  1.2213
  420TIP3    H222676   1.069   5.097   2.103 -1.1126 -0.2426  2.4743
  421TIP3   OH222677   2.939   4.388   3.770  0.3744  0.1054  0.0897
  421TIP3    H122678   2.863   4.330   3.765  0.4899 -0.1622  1.2880
  421TIP3    H222679   2.965   4.400   3.678  0.9707 -2.5633 -0.1835
  422TIP3   OH222680   6.561   4.291  15.865  0.5331  0.2312 -0.5110
  422TIP3    H122681   6.592   4.206  15.897 -0.2971  0.9165  2.4125
  422TIP3    H222682   6.493   4.268  15.801  0.4249 -1.3237  0.1073
  423TIP3   OH222683   1.607   2.034  16.066  0.0815  0.7062  0.3268
  423TIP3    H122684   1.542   2.001  16.128 -0.3279  0.6602 -0.1228
  423TIP3    H222685   1.684   2.052  16.120  0.4942 -1.4252  0.5035
  424TIP3   OH222686   5.885   5.770   4.101 -0.4711 -0.3315 -0.1076
  424TIP3    H122687   5.856   5.775   4.193  0.7247  0.1913  0.2548
  424TIP3    H222688   5.854   5.684   4.072  0.1229 -1.0134  1.1498
  425TIP3   OH222689   5.643   4.990  15.290 -0.4442  0.3831  0.5612
  425TIP3    H122690   5.712   5.047  15.324 -0.6150  0.4054  0.8751
  425TIP3    H222691   5.567   5.008  15.346  0.1129 -1.7705  2.1739
  426TIP3   OH222692   3.417   0.456   3.396  0.0767 -0.1755  0.0431
  426TIP3    H122693   3.330   0.433   3.362 -0.2438  0.7515  0.2259
  426TIP3    H222694   3.400   0.496   3.480  0.6204  0.8376 -0.3165
  427TIP3   OH222695   5.039   2.323  13.598  0.1438 -0.1772 -0.1960
  427TIP3    H122696   5.106   2.301  13.663  0.1904 -2.3361 -0.8891
  427TIP3    H222697   5.083   2.384  13.539  0.1053  1.8222  1.7149
  428TIP3   OH222698   4.332   4.496   1.529 -0.7079  0.5240 -0.5707
  428TIP3    H122699   4.379   4.520   1.608 -2.1315 -0.3010  0.5892
  428TIP3    H222700   4.391   4.519   1.457  0.6123  1.3116  0.7171
  429TIP3   OH222701   4.479   5.579   1.828 -0.0986 -0.1253 -0.2056
  429TIP3    H122702   4.478   5.658   1.883 -0.9577  0.5209 -1.1081
  429TIP3    H222703   4.571   5.552   1.828  0.0858  0.4510  0.7109
  430TIP3   OH222704   1.621   0.214  17.189  0.1236 -0.1873 -0.4966
  430TIP3    H122705   1.633   0.127  17.228  2.9037  0.0729 -0.6140
  430TIP3    H222706   1.608   0.272  17.264  0.1740 -0.4201 -0.3067
  431TIP3   OH222707   3.366   1.598   0.335 -0.6026 -0.0882  0.1383
  431TIP3    H122708   3.406   1.547   0.264  1.4786 -0.1857  1.2961
  431TIP3    H222709   3.440   1.624   0.390 -2.2064 -0.9061  2.8501
  432TIP3   OH222710   5.150   5.184   6.060  0.7831 -0.3971  0.0557
  432TIP3    H122711   5.159   5.147   5.972 -0.5932  0.7041 -0.5908
  432TIP3    H222712   5.200   5.265   6.056  0.2372 -0.0548  0.0893
  433TIP3   OH222713   4.177   0.318  11.333 -0.3247 -0.8645  0.6682
  433TIP3    H122714   4.157   0.410  11.316  0.3017 -1.1781 -2.1035
  433TIP3    H222715   4.128   0.270  11.267  1.5398 -2.3325  0.2817
  434TIP3   OH222716   4.377   2.942  12.931 -0.7100 -0.1329  0.8202
  434TIP3    H122717   4.411   2.993  12.858  0.0915 -2.1728 -0.3047
  434TIP3    H222718   4.438   2.960  13.003 -0.1000  0.0230  0.2722
  435TIP3   OH222719   2.491   4.518   1.370  0.8061  0.5342 -0.9407
  435TIP3    H122720   2.554   4.562   1.313  0.9468 -1.5825 -2.5371
  435TIP3    H222721   2.426   4.481   1.310  0.0967 -0.4952  0.3951
  436TIP3   OH222722   0.645   4.525  16.615  0.5827 -0.1057 -0.3303
  436TIP3    H122723   0.689   4.610  16.607 -0.9923  0.7209 -0.6780
  436TIP3    H222724   0.559   4.546  16.650  0.6799 -1.7497  1.0248
  437TIP3   OH222725   5.219   5.315   5.730  0.4669 -0.0753 -0.5414
  437TIP3    H122726   5.204   5.375   5.657 -0.4141 -0.9557 -1.1096
  437TIP3    H222727   5.310   5.330   5.756  0.6164  0.6475 -1.4493
  438TIP3   OH222728   0.067   1.596  13.255  0.5879 -0.4622 -0.4313
  438TIP3    H122729   0.084   1.573  13.164  0.5523 -1.3121 -0.2298
  438TIP3    H222730   0.152   1.586  13.299  0.5350 -0.3652 -0.3023
  439TIP3   OH222731   0.917   0.395  12.271  0.3410 -0.3520  0.1706
  439TIP3    H122732   0.952   0.308  12.289 -2.5373 -1.9945 -1.2769
  439TIP3    H222733   0.864   0.416  12.348  1.5474  0.4662  0.8007
  440TIP3   OH222734   5.501   3.150   5.415 -0.4112  0.1427  0.1121
  440TIP3    H122735   5.493   3.061   5.382 -1.5520  0.6932 -1.1779
  440TIP3    H222736   5.552   3.196   5.348  1.8350  0.0588  1.6531
  441TIP3   OH222737   3.041   3.923  14.448  0.2351  0.1206 -0.5047
  441TIP3    H122738   2.989   3.898  14.372 -0.4663  0.1561 -0.0483
  441TIP3    H222739   2.985   3.904  14.523 -0.0720  2.3324 -0.0973
  442TIP3   OH222740   5.399   2.336  11.192 -0.0397 -0.3276 -0.7513
  442TIP3    H122741   5.428   2.306  11.106 -0.6746 -0.5774 -0.8866
  442TIP3    H222742   5.351   2.417  11.175 -1.3782 -1.0975 -0.8252
  443TIP3   OH222743   1.963   0.207  16.102 -0.8810 -0.0514  0.0330
  443TIP3    H122744   2.047   0.205  16.056 -0.8921  2.5541 -0.1935
  443TIP3    H222745   1.985   0.187  16.193 -0.2791 -1.0566 -0.3171
  444TIP3   OH222746   0.358   1.972  15.592  0.4198 -0.2019  0.4302
  444TIP3    H122747   0.446   1.935  15.597  0.9369  1.0851  1.2968
  444TIP3    H222748   0.365   2.057  15.635 -1.0042  0.3906 -0.4238
  445TIP3   OH222749   3.336   3.198   1.127 -0.2966 -0.2017  0.1766
  445TIP3    H122750   3.286   3.245   1.060  1.4652  2.2390  0.4204
  445TIP3    H222751   3.401   3.147   1.078  2.3081  3.0888 -0.2094
  446TIP3   OH222752   0.328   2.529  13.451 -0.1866  0.0665 -0.6116
  446TIP3    H122753   0.410   2.492  13.418 -0.4828  0.2810 -1.6127
  446TIP3    H222754   0.276   2.453  13.477  0.8453 -0.0331  1.3824
  447TIP3   OH222755   6.630   4.316   2.746 -0.2822 -0.3278 -0.2807
  447TIP3    H122756   6.592   4.301   2.833 -2.5981 -0.1782 -1.1913
  447TIP3    H222757   6.713   4.268   2.747 -0.5421 -0.8134  1.7959
  448TIP3   OH222758   6.390   4.707  15.661  0.4988 -0.4434  0.0240
  448TIP3    H122759   6.440   4.685  15.740 -0.4773  0.3554  0.8747
  448TIP3    H222760   6.451   4.687  15.589  1.6071 -0.6416  0.9817
  449TIP3   OH222761   3.893   4.037   2.492 -0.0104 -0.0534 -0.3413
  449TIP3    H122762   3.851   4.005   2.572  1.5493 -3.8158 -0.8030
  449TIP3    H222763   3.974   4.078   2.523  0.0029 -0.3986  0.1021
  450TIP3   OH222764   0.126   6.636   5.063  0.5600 -0.1022  0.1801
  450TIP3    H122765   0.192   6.618   4.996 -0.4061  0.4175 -0.9459
  450TIP3    H222766   0.173   6.688   5.129  1.6849 -1.1490  0.2442
  451TIP3   OH222767   2.213   0.405   0.005 -0.2238 -0.4763 -0.1124
  451TIP3    H122768   2.210   0.386   0.099  0.3580  0.7304  0.1708
  451TIP3    H222769   2.187   0.497  -0.002  1.7981  0.0956 -0.8954
  452TIP3   OH222770   4.154   1.457   5.507  0.5753 -0.4527  0.0295
  452TIP3    H122771   4.115   1.521   5.448  1.8456 -0.3615 -0.7557
  452TIP3    H222772   4.216   1.508   5.559  0.2198 -0.7223  0.7294
  453TIP3   OH222773   1.967   1.072   1.158 -0.3975 -0.4452  0.6900
  453TIP3    H122774   2.063   1.076   1.157 -0.2805  2.4612 -3.1179
  453TIP3    H222775   1.944   1.047   1.068 -3.2925 -1.8457  1.7103
  454TIP3   OH222776   3.356   1.409  15.310 -0.3886  0.4036  0.0446
  454TIP3    H122777   3.419   1.336  15.316  1.8437  1.9687 -2.2112
  454TIP3    H222778   3.339   1.434  15.401  1.8693 -0.4500  0.7699
  455TIP3   OH222779   3.146   4.799   2.079 -0.6529 -0.9052 -0.2802
  455TIP3    H122780   3.102   4.851   2.145  0.0121  1.4281 -1.5643
  455TIP3    H222781   3.205   4.860   2.035  1.2587 -3.0775 -0.9694
  456TIP3   OH222782   1.749   1.598   4.004 -0.4040 -0.4735 -0.3683
  456TIP3    H122783   1.764   1.669   4.067 -0.7886 -1.1259  0.4794
  456TIP3    H222784   1.836   1.562   3.987 -0.0193  1.0515 -1.8581
  457TIP3   OH222785   2.689   1.225   4.535  0.4692  0.4866  0.5122
  457TIP3    H122786   2.768   1.274   4.515  1.3458 -1.0284  0.1094
  457TIP3    H222787   2.647   1.209   4.451  0.6544 -0.1839  0.5383
  458TIP3   OH222788   3.490   6.657  16.759 -1.0166  0.3356  0.1046
  458TIP3    H122789   3.469   6.591  16.693 -1.9311 -0.4958  1.1806
  458TIP3    H222790   3.485   6.610  16.843 -0.6205  1.5234  0.8206
  459TIP3   OH222791   0.920   6.295  13.550 -0.2437 -0.0317 -0.1119
  459TIP3    H122792   0.839   6.253  13.519 -0.9166 -1.0421  2.7234
  459TIP3    H222793   0.897   6.387  13.557 -0.9564 -0.2156  0.0988
  460TIP3   OH222794   1.950   3.900  12.779 -0.0932 -1.2293  0.4015
  460TIP3    H122795   1.894   3.977  12.768 -0.1403 -1.4180 -0.8414
  460TIP3    H222796   2.019   3.929  12.838  0.5136  0.1270 -0.9143
  461TIP3   OH222797   3.760   4.447   4.809 -0.3285 -0.0010  0.6979
  461TIP3    H122798   3.796   4.536   4.813  0.2507 -0.2587  1.4475
  461TIP3    H222799   3.690   4.446   4.874  0.8564 -0.5985  2.0081
  462TIP3   OH222800   4.094   3.095   1.373  0.0564  0.0662 -0.2168
  462TIP3    H122801   4.149   3.135   1.441  0.1074  0.3795 -0.4413
  462TIP3    H222802   4.103   3.001   1.388  0.4036  0.1229 -0.0542
  463TIP3   OH222803   1.894   3.779   0.405 -0.3637  0.5486  0.4602
  463TIP3    H122804   1.957   3.843   0.372 -0.4108  0.1402 -0.4482
  463TIP3    H222805   1.936   3.694   0.389 -0.8663  0.3016  0.4352
  464TIP3   OH222806   4.468   6.211   1.968 -0.0474  0.1608  0.2110
  464TIP3    H122807   4.440   6.123   1.939  2.3458 -0.6342  0.1214
  464TIP3    H222808   4.431   6.270   1.903 -1.5694 -0.7757  0.1698
  465TIP3   OH222809   6.114   3.784  16.327 -0.0289 -0.9622  0.0469
  465TIP3    H122810   6.072   3.852  16.380  0.3968 -1.3633  0.9175
  465TIP3    H222811   6.163   3.833  16.261 -0.9106 -0.4681 -0.2636
  466TIP3   OH222812   2.857   5.190  12.781 -0.0458 -0.0395  0.4280
  466TIP3    H122813   2.927   5.138  12.740 -0.6524 -0.7970  0.3369
  466TIP3    H222814   2.855   5.271  12.730 -0.8642 -1.0110 -1.1477
  467TIP3   OH222815   2.944   4.938   6.310 -0.1482  0.1364 -0.2233
  467TIP3    H122816   3.018   4.909   6.364 -0.9102 -2.4752 -0.4445
  467TIP3    H222817   2.886   4.983   6.372 -0.6814 -2.1995  1.1382
  468TIP3   OH222818   0.501   6.710   0.618 -0.3034 -0.2811  0.1335
  468TIP3    H122819   0.450   6.636   0.587  1.2296 -1.7124  0.8396
  468TIP3    H222820   0.449   6.787   0.596 -2.1039 -1.5750 -0.3300
  469TIP3   OH222821   0.904   0.287   4.877  0.0967  0.8153 -0.4105
  469TIP3    H122822   0.972   0.354   4.883  1.5483 -0.6705  0.5639
  469TIP3    H222823   0.887   0.261   4.968 -0.8680  0.2938 -0.7255
  470TIP3   OH222824   1.734   0.606  12.460  0.3228  1.0469 -0.2567
  470TIP3    H122825   1.787   0.595  12.538  2.3650  4.5450 -0.9158
  470TIP3    H222826   1.792   0.651  12.398 -2.1968  1.4029 -2.5591
  471TIP3   OH222827   3.257   0.709  16.959  0.0643 -0.2896  0.5545
  471TIP3    H122828   3.239   0.615  16.962  1.6405 -0.6090  2.0385
  471TIP3    H222829   3.179   0.748  16.920 -0.8821 -2.1436  0.4895
  472TIP3   OH222830   1.727   1.462  15.953 -0.2390 -0.3155 -0.7274
  472TIP3    H122831   1.701   1.370  15.954 -3.0732  0.3691  1.4616
  472TIP3    H222832   1.683   1.499  15.877 -0.8738 -0.3488 -0.3795
  473TIP3   OH222833   2.052   5.509  14.025  0.1555  0.1749 -0.0146
  473TIP3    H122834   2.017   5.421  14.042  0.3106  0.0815 -0.1801
  473TIP3    H222835   2.102   5.499  13.944 -1.4109  0.8294 -1.1130
  474TIP3   OH222836   1.109   3.549  15.204  0.0600  0.4247  0.1751
  474TIP3    H122837   1.090   3.614  15.136 -0.6735  0.1872  0.1463
  474TIP3    H222838   1.027   3.540  15.252 -0.4146 -1.7493 -0.9020
  475TIP3   OH222839   2.533   5.836   0.897 -0.6037 -0.3251  0.1216
  475TIP3    H122840   2.590   5.837   0.974  1.7207  0.1982 -1.5020
  475TIP3    H222841   2.508   5.744   0.887  0.8369 -0.7699  0.3283
  476TIP3   OH222842   0.228   0.553   5.863  0.2117  0.3519  0.0993
  476TIP3    H122843   0.305   0.585   5.910 -0.9380  2.2673  0.8175
  476TIP3    H222844   0.154   0.589   5.913 -1.1023  0.5542 -1.9001
  477TIP3   OH222845   5.053   0.730  11.944  0.0037  1.0322 -0.5349
  477TIP3    H122846   4.958   0.743  11.944 -0.0525  0.7563  0.4577
  477TIP3    H222847   5.064   0.639  11.918  0.0879  1.4691 -2.0802
  478TIP3   OH222848   2.384   1.864  15.452  0.3483 -0.4580 -0.1668
  478TIP3    H122849   2.311   1.919  15.423  0.2009 -1.9979 -3.0876
  478TIP3    H222850   2.462   1.910  15.423  0.2565 -1.2885 -1.8507
  479TIP3   OH222851   2.819   1.216  15.958  0.1604 -0.1248 -0.0958
  479TIP3    H122852   2.878   1.290  15.974 -1.9292  1.3519  1.2877
  479TIP3    H222853   2.868   1.160  15.897  2.0299  2.1421 -0.8672
  480TIP3   OH222854   2.659   2.431   5.756  0.0533  0.3560  0.3496
  480TIP3    H122855   2.569   2.464   5.753 -1.0839 -2.4143  0.5221
  480TIP3    H222856   2.666   2.375   5.679  0.7693 -1.3453  1.5841
  481TIP3   OH222857   0.584   3.750   0.477 -0.5729 -0.9050  0.2261
  481TIP3    H122858   0.600   3.773   0.569 -0.4224 -0.1267  0.0126
  481TIP3    H222859   0.628   3.667   0.465  1.2785  0.0128  0.3007
  482TIP3   OH222860   3.432   5.805   1.806 -0.3850  0.1151  0.1596
  482TIP3    H122861   3.343   5.817   1.772 -0.6658 -0.5149  0.6421
  482TIP3    H222862   3.422   5.802   1.901  0.0675 -0.5460  0.1991
  483TIP3   OH222863   1.156   3.531  13.845 -0.3207 -0.1923  0.6015
  483TIP3    H122864   1.115   3.615  13.864  1.5869  0.5162  1.8778
  483TIP3    H222865   1.110   3.469  13.901  0.7373  0.7090  2.5552
  484TIP3   OH222866   2.814   2.794  14.460  0.0153 -0.0823 -0.7633
  484TIP3    H122867   2.828   2.701  14.445 -1.3140 -0.3427 -0.4481
  484TIP3    H222868   2.720   2.806  14.453  0.1252  1.1636 -0.3310
  485TIP3   OH222869   1.431   2.958   0.040  0.6401  0.2480  0.3517
  485TIP3    H122870   1.419   2.883   0.099 -2.7222 -0.4005 -0.9286
  485TIP3    H222871   1.388   3.031   0.084  0.2603  0.3758 -0.2197
  486TIP3   OH222872   4.671   5.587   4.577 -0.1811 -0.1578 -0.0250
  486TIP3    H122873   4.738   5.520   4.587 -0.2403 -0.0612  1.1729
  486TIP3    H222874   4.635   5.599   4.665 -1.2737  0.3076 -0.5105
  487TIP3   OH222875   5.219   2.110   1.249 -0.3931 -0.1085 -0.2569
  487TIP3    H122876   5.303   2.073   1.222 -1.2469 -1.6764 -0.8544
  487TIP3    H222877   5.183   2.148   1.168  0.8378  2.9495  0.4841
  488TIP3   OH222878   0.986   0.997  16.222 -0.3871  0.0817 -0.0507
  488TIP3    H122879   1.034   1.065  16.269 -0.4388  0.2276 -0.2125
  488TIP3    H222880   1.004   0.917  16.272 -1.4280  0.4421  0.9434
  489TIP3   OH222881   6.468   2.063   0.332  0.2477  0.7557 -0.2180
  489TIP3    H122882   6.455   1.968   0.340 -0.2786  0.8527  0.1118
  489TIP3    H222883   6.537   2.083   0.394 -0.4900  0.7707  0.6124
  490TIP3   OH222884   1.316   5.143  16.431  0.3135  0.3435  0.3812
  490TIP3    H122885   1.279   5.130  16.518 -1.0055  1.7100  0.0589
  490TIP3    H222886   1.362   5.061  16.412 -1.3593 -0.8834  1.3883
  491TIP3   OH222887   2.175   3.127  13.050  0.4612 -0.0410  0.6511
  491TIP3    H122888   2.182   3.035  13.024 -1.0017 -0.3667  1.2875
  491TIP3    H222889   2.265   3.157  13.059  0.9868 -1.9419  2.2779
  492TIP3   OH222890   1.363   0.531   0.339 -0.3937 -0.2755  0.5420
  492TIP3    H122891   1.423   0.463   0.368  0.3701 -0.1033 -0.5859
  492TIP3    H222892   1.295   0.484   0.291 -0.4069 -0.3328  0.6157
  493TIP3   OH222893   3.174   3.831  17.025 -0.5741 -0.3571 -0.3648
  493TIP3    H122894   3.252   3.783  16.996  0.4001  0.4340  0.8476
  493TIP3    H222895   3.112   3.822  16.952  1.3050  0.5399 -2.1788
  494TIP3   OH222896   0.220   4.987  12.966 -0.5057  0.4702  0.4015
  494TIP3    H122897   0.156   4.921  12.990 -2.9342  3.3771  2.7548
  494TIP3    H222898   0.299   4.964  13.014 -1.3247 -0.6460  1.2420
  495TIP3   OH222899   2.505   5.160   2.214 -0.9423 -0.3562  0.3531
  495TIP3    H122900   2.582   5.218   2.209 -0.2173 -1.2976  0.3802
  495TIP3    H222901   2.456   5.178   2.134  0.8265 -1.8142 -1.1528
  496TIP3   OH222902   6.650   3.724  13.110 -0.1096 -0.1070 -0.9242
  496TIP3    H122903   6.683   3.635  13.096  1.1191  0.2192 -0.2451
  496TIP3    H222904   6.555   3.715  13.109 -0.1274 -2.0567  2.5417
  497TIP3   OH222905   4.390   5.635  11.636 -0.1534  0.3092 -0.1941
  497TIP3    H122906   4.454   5.563  11.638  0.2078  0.6428  0.4415
  497TIP3    H222907   4.327   5.611  11.703 -1.2606 -0.5129 -1.4778
  498TIP3   OH222908   1.249   3.043  16.406 -0.4033 -0.0678  0.2365
  498TIP3    H122909   1.324   3.084  16.449 -0.8305 -0.3056  1.2521
  498TIP3    H222910   1.177   3.055  16.468 -1.4164  0.8790 -1.0833
  499TIP3   OH222911   5.626   4.410   2.500  0.2553  0.6515  0.0164
  499TIP3    H122912   5.614   4.413   2.405  2.5598  2.3455 -0.3211
  499TIP3    H222913   5.562   4.347   2.531 -0.5667  0.0583 -2.6664
  500TIP3   OH222914   2.448   3.935   3.294 -0.3916  0.7087  0.1847
  500TIP3    H122915   2.437   4.007   3.356 -1.3883 -0.0440  0.9147
  500TIP3    H222916   2.394   3.865   3.330 -1.2736  0.3626 -1.7246
  501TIP3   OH222917   3.834   2.581   3.214 -0.0793 -0.2733 -0.4078
  501TIP3    H122918   3.818   2.614   3.302  0.2934 -0.9018 -0.0950
  501TIP3    H222919   3.925   2.603   3.196 -0.3749  0.5434 -0.9518
  502TIP3   OH222920   6.673   5.879  16.553 -0.1222  0.6570 -0.1451
  502TIP3    H122921   6.712   5.888  16.640  0.1403  0.4126 -0.2330
  502TIP3    H222922   6.744   5.843  16.499 -0.5651 -0.1109 -0.2359
  503TIP3   OH222923   2.562   3.964  11.242  0.2027  0.2257  0.0531
  503TIP3    H122924   2.627   3.948  11.173 -1.4190 -1.3664 -1.1843
  503TIP3    H222925   2.484   3.994  11.194 -0.4327  0.7228  1.3654
  504TIP3   OH222926   2.326   4.073   3.980 -0.8546 -0.4913 -0.8844
  504TIP3    H122927   2.416   4.047   3.959 -1.0961 -2.1942 -0.0535
  504TIP3    H222928   2.273   3.997   3.954 -1.9743  0.2022 -0.6990
  505TIP3   OH222929   1.102   0.323   2.586  0.5190  0.3020  0.5088
  505TIP3    H122930   1.093   0.418   2.587  0.4553  0.3761 -1.7388
  505TIP3    H222931   1.042   0.291   2.654 -1.2556  1.7466 -0.3229
  506TIP3   OH222932   6.249   4.794   5.285 -0.5313  0.0332  0.5026
  506TIP3    H122933   6.305   4.764   5.213 -2.8415  0.2788 -1.5120
  506TIP3    H222934   6.274   4.885   5.299 -0.3617  0.1100 -0.2838
  507TIP3   OH222935   5.672   1.273  14.723  0.3877  0.3593 -0.7557
  507TIP3    H122936   5.762   1.268  14.692  0.4976  2.3825 -0.9318
  507TIP3    H222937   5.660   1.365  14.746 -1.5985  0.1104 -0.6096
  508TIP3   OH222938   3.596   6.312  14.650  0.0667  0.0748  0.3083
  508TIP3    H122939   3.603   6.222  14.620  1.0471  0.6993 -1.4678
  508TIP3    H222940   3.502   6.325  14.665 -0.1117 -1.1524  0.3379
  509TIP3   OH222941   0.966   4.683  13.332  0.1899 -0.0270 -1.0309
  509TIP3    H122942   1.021   4.663  13.408 -0.9387  0.1522 -0.1483
  509TIP3    H222943   0.968   4.779  13.326 -0.6308  0.0249 -0.5337
  510TIP3   OH222944   6.413   5.931  14.797 -0.3500  0.1568  0.4264
  510TIP3    H122945   6.359   5.865  14.754 -0.5957  0.1630  0.7269
  510TIP3    H222946   6.471   5.964  14.727 -1.6676  1.1546 -0.2443
  511TIP3   OH222947   0.604   1.689   5.725  0.3908  0.5084  0.4084
  511TIP3    H122948   0.592   1.604   5.682  0.3528  1.8916 -2.5467
  511TIP3    H222949   0.607   1.752   5.653  1.5063  2.9265  2.4282
  512TIP3   OH222950   4.957   5.523   4.830 -0.6845 -0.1681 -0.3168
  512TIP3    H122951   4.865   5.503   4.842 -1.0597  0.7068 -1.5468
  512TIP3    H222952   4.966   5.615   4.857  0.4405 -1.0008  2.5537
  513TIP3   OH222953   3.936   0.108   4.261 -0.4779 -0.0283 -0.1708
  513TIP3    H122954   3.998   0.164   4.214 -0.0818 -1.5712 -1.6037
  513TIP3    H222955   3.973   0.020   4.253 -1.2484 -0.5783  1.7253
  514TIP3   OH222956   2.742   0.648   5.805  0.5217  0.3905  0.3207
  514TIP3    H122957   2.680   0.695   5.748  1.1220  0.0945 -0.6092
  514TIP3    H222958   2.824   0.697   5.797  0.4924  0.6181  1.3205
  515TIP3   OH222959   5.464   1.809   5.438 -0.0625  0.0850 -0.3493
  515TIP3    H122960   5.552   1.843   5.421 -0.6174  1.2324 -1.0492
  515TIP3    H222961   5.416   1.823   5.357 -0.8273 -0.7783 -0.0632
  516TIP3   OH222962   5.669   0.582   5.823  0.9101 -0.5917 -0.1455
  516TIP3    H122963   5.714   0.500   5.803  0.4348 -0.8255 -0.2776
  516TIP3    H222964   5.613   0.561   5.897  0.9779 -0.3152 -0.0141
  517TIP3   OH222965   2.941   6.107  13.096 -0.0269 -0.1244  0.4078
  517TIP3    H122966   2.882   6.168  13.051  0.2016  0.6651  1.1404
  517TIP3    H222967   3.022   6.156  13.108  0.2145 -0.6257  0.8759
  518TIP3   OH222968   5.917   1.544  12.508 -0.6109  0.3383  0.2908
  518TIP3    H122969   5.872   1.490  12.573 -0.9369  0.3781  0.0976
  518TIP3    H222970   5.919   1.490  12.429 -0.7218  0.5133  0.1673
  519TIP3   OH222971   5.185   1.810   1.499 -0.1500  0.3924 -0.4209
  519TIP3    H122972   5.174   1.715   1.498 -0.3271  0.2916  2.3726
  519TIP3    H222973   5.277   1.823   1.478 -0.0009 -0.4327 -0.3273
  520TIP3   OH222974   3.162   6.489  13.368 -0.2510 -0.3470  0.0592
  520TIP3    H122975   3.067   6.491  13.376 -0.1706 -1.3378  1.5888
  520TIP3    H222976   3.188   6.581  13.380 -0.9771 -0.1564  0.2615
  521TIP3   OH222977   3.459   3.072   1.680 -0.4532 -0.5349  0.0128
  521TIP3    H122978   3.390   3.020   1.640 -0.4333  1.0001 -2.1734
  521TIP3    H222979   3.515   3.008   1.723 -2.1881 -1.9778  0.2615
  522TIP3   OH222980   3.198   3.448  16.585 -0.1243 -0.0904  0.1739
  522TIP3    H122981   3.193   3.366  16.634  0.8055 -0.8606 -0.9578
  522TIP3    H222982   3.288   3.451  16.552 -0.2610  1.1948 -0.1560
  523TIP3   OH222983   6.516   3.862   3.803  0.2901 -0.0234  0.1750
  523TIP3    H122984   6.559   3.890   3.884  0.2597 -0.8671  0.4954
  523TIP3    H222985   6.466   3.784   3.829 -0.3781  0.1797 -0.4802
  524TIP3   OH222986   0.569   6.691  16.718 -0.1910 -0.2139 -0.0162
  524TIP3    H122987   0.533   6.732  16.639  1.5542  1.7120  0.1099
  524TIP3    H222988   0.519   6.729  16.790  0.3037  0.4466 -0.0120
  525TIP3   OH222989   4.018   0.878  14.399  0.4273  0.1430 -0.2266
  525TIP3    H122990   3.965   0.802  14.420 -1.2027  1.3481  0.1896
  525TIP3    H222991   4.056   0.857  14.313 -0.0964 -1.0724 -0.1814
  526TIP3   OH222992   0.029   0.574  17.057 -0.0138 -0.2072 -0.3346
  526TIP3    H122993   0.034   0.479  17.047  1.0901 -0.1979 -0.0189
  526TIP3    H222994   0.107   0.607  17.012  0.8133  0.3619  1.4033
  527TIP3   OH222995   0.926   5.645   4.834 -0.4797  0.0720 -0.4960
  527TIP3    H122996   0.988   5.709   4.798  0.4384 -1.3892 -1.6079
  527TIP3    H222997   0.843   5.663   4.788 -0.3838  0.8222 -0.3830
  528TIP3   OH222998   1.587   0.857  11.377  0.3124  0.2006 -0.3260
  528TIP3    H122999   1.676   0.890  11.366  0.2988  0.8226  1.2294
  528TIP3    H223000   1.585   0.777  11.325  1.7353  0.2373 -0.4763
  529TIP3   OH223001   1.081   4.020   1.952  0.5764  0.0808  0.3535
  529TIP3    H123002   1.027   3.982   1.883 -1.6723  2.4557  0.6619
  529TIP3    H223003   1.148   4.070   1.906  0.2532  0.1198 -0.0786
  530TIP3   OH223004   4.103   3.909   1.285  0.0571  0.3588 -0.1956
  530TIP3    H123005   4.194   3.891   1.307  0.5720  2.1079 -0.7038
  530TIP3    H223006   4.107   3.972   1.214 -1.5724 -0.1532 -0.7933
  531TIP3   OH223007   6.632   3.981  13.914 -0.3053  0.3315 -0.0246
  531TIP3    H123008   6.544   3.991  13.878 -0.9132 -0.7906  1.0673
  531TIP3    H223009   6.625   3.907  13.974  0.8790  1.4654  1.6194
  532TIP3   OH223010   4.612   6.328  10.956  0.7113 -0.1209  0.5291
  532TIP3    H123011   4.575   6.415  10.969  2.2333  0.3959  1.6172
  532TIP3    H223012   4.678   6.339  10.888  1.2590 -0.3176  1.0240
  533TIP3   OH223013   3.354   5.647  13.313  0.0583 -0.1431 -0.3058
  533TIP3    H123014   3.260   5.655  13.299 -0.0417 -1.0797 -0.2356
  533TIP3    H223015   3.394   5.697  13.242 -0.4815  1.4397  0.4466
  534TIP3   OH223016   0.487   0.052   3.350 -0.4985  0.1432 -0.2406
  534TIP3    H123017   0.567   0.101   3.329 -0.5785  0.4679  0.2078
  534TIP3    H223018   0.510   0.000   3.427  0.4072 -2.5397 -2.1545
  535TIP3   OH223019   2.799   0.843  15.365 -0.5344  0.9701 -0.4422
  535TIP3    H123020   2.840   0.756  15.363  1.0705  1.6853 -0.6782
  535TIP3    H223021   2.705   0.826  15.365 -0.3504 -0.8555  2.6534
  536TIP3   OH223022   3.064   3.185  11.591  0.4930  0.8331  0.4867
  536TIP3    H123023   3.039   3.174  11.499 -1.6903  4.2311  0.4679
  536TIP3    H223024   3.005   3.126  11.638 -0.5140  1.2540 -0.1848
  537TIP3   OH223025   0.511   4.748   4.936  0.2587 -0.2295 -0.1417
  537TIP3    H123026   0.545   4.754   5.025 -2.4095 -0.4952  0.9799
  537TIP3    H223027   0.525   4.656   4.911 -0.1584 -0.4826  0.5330
  538TIP3   OH223028   2.280   0.777  14.047 -0.1369 -0.2907 -0.2513
  538TIP3    H123029   2.217   0.706  14.039  0.2952 -0.9372  1.5009
  538TIP3    H223030   2.308   0.774  14.139 -0.1696  2.2196 -0.0979
  539TIP3   OH223031   6.034   1.067   1.657 -0.3242  0.1771  0.1704
  539TIP3    H123032   6.126   1.083   1.679 -0.1157  0.0179 -0.5435
  539TIP3    H223033   6.000   1.153   1.632  0.1635 -0.0531 -1.4116
  540TIP3   OH223034   0.596   1.455   5.342 -0.2606 -0.2787  0.1730
  540TIP3    H123035   0.519   1.437   5.288 -0.5292 -0.6156  0.6589
  540TIP3    H223036   0.614   1.372   5.386  0.8573 -0.4170 -0.5375
  541TIP3   OH223037   3.432   0.753  15.204 -0.4070  0.2056  0.6854
  541TIP3    H123038   3.339   0.777  15.208 -1.1926 -2.3616  0.2790
  541TIP3    H223039   3.438   0.696  15.127  0.8910 -1.8980  2.2389
  542TIP3   OH223040   3.283   6.243   3.457 -0.0909 -0.4591  0.3980
  542TIP3    H123041   3.327   6.316   3.412 -0.8787  0.3242  0.8735
  542TIP3    H223042   3.272   6.177   3.389 -1.8682  0.9625 -0.8010
  543TIP3   OH223043   0.253   5.770   2.936 -0.4662  0.8026 -0.4458
  543TIP3    H123044   0.182   5.772   3.000  0.9494 -2.2840  1.4904
  543TIP3    H223045   0.233   5.694   2.881  1.3009 -0.1797  0.1997
  544TIP3   OH223046   4.193   5.687  13.774  0.3065  0.6273 -0.2355
  544TIP3    H123047   4.270   5.726  13.816 -0.3971  0.4187  1.3326
  544TIP3    H223048   4.124   5.693  13.840 -0.5073 -0.9321 -0.8815
  545TIP3   OH223049   6.312   6.134  15.697 -0.2418  0.0914 -0.3312
  545TIP3    H123050   6.325   6.169  15.785  0.2228 -0.4406 -0.1804
  545TIP3    H223051   6.255   6.197  15.653 -1.4913 -0.2522  0.7452
  546TIP3   OH223052   2.290   4.123  12.598  0.0695 -0.2337  0.5336
  546TIP3    H123053   2.226   4.180  12.638 -0.7382 -0.9563  0.3051
  546TIP3    H223054   2.355   4.107  12.667 -1.5540 -1.8566  1.7627
  547TIP3   OH223055   5.359   3.107   1.403 -0.0803 -0.4120  0.1174
  547TIP3    H123056   5.386   3.097   1.311  0.8825 -2.7409  0.5784
  547TIP3    H223057   5.352   3.202   1.415 -1.0776 -0.0419 -2.5653
  548TIP3   OH223058   3.201   3.398  12.524  0.4482 -0.3384  0.8318
  548TIP3    H123059   3.203   3.324  12.585  2.7166 -2.4442 -1.5464
  548TIP3    H223060   3.289   3.399  12.486 -0.3350  1.9692 -1.1420
  549TIP3   OH223061   4.325   3.799   3.495  0.1648 -0.7154 -0.3023
  549TIP3    H123062   4.286   3.867   3.441 -1.6101 -2.3647 -1.2344
  549TIP3    H223063   4.258   3.780   3.562 -0.0500 -2.5131 -0.9636
  550TIP3   OH223064   3.111   4.123  12.864 -0.3040  0.4891 -0.0569
  550TIP3    H123065   3.117   4.147  12.771  1.5160  0.6981  0.0914
  550TIP3    H223066   3.187   4.163  12.905  0.5381 -1.9691  0.9910
  551TIP3   OH223067   1.179   0.130   4.098 -0.2132 -0.2958  0.1710
  551TIP3    H123068   1.226   0.155   4.019  3.0987 -1.4487  1.5557
  551TIP3    H223069   1.195   0.202   4.160  1.8168 -1.6340  1.3473
  552TIP3   OH223070   6.289   0.599   3.392 -0.3909  0.2346  0.3202
  552TIP3    H123071   6.304   0.515   3.349 -0.2109 -0.2616  1.3171
  552TIP3    H223072   6.270   0.576   3.483 -1.8103  1.1809  0.3006
  553TIP3   OH223073   3.793   3.639  11.379  0.3135 -0.1295  0.9696
  553TIP3    H123074   3.871   3.682  11.414  1.8201 -1.6976 -0.2970
  553TIP3    H223075   3.748   3.707  11.329  2.7822  0.0277 -1.2255
  554TIP3   OH223076   5.473   0.056   4.496  0.7004 -0.1343  0.1965
  554TIP3    H123077   5.413   0.127   4.518 -0.0896 -1.0853  1.1923
  554TIP3    H223078   5.554   0.101   4.471  1.0025  1.1108  3.0764
  555TIP3   OH223079   1.816   0.593   6.885 -0.4994  0.7340  0.3768
  555TIP3    H123080   1.761   0.653   6.834 -1.3219 -0.0788  0.2945
  555TIP3    H223081   1.898   0.642   6.899 -1.0360  1.7554  0.0500
  556TIP3   OH223082   0.448   5.693   1.967  0.1875 -0.3728 -0.1598
  556TIP3    H123083   0.364   5.703   2.012  0.6564 -1.8135  1.1532
  556TIP3    H223084   0.467   5.779   1.931 -1.6075  0.1027 -0.0471
  557TIP3   OH223085   1.226   3.404  16.747 -0.1995 -0.0122  0.2753
  557TIP3    H123086   1.259   3.483  16.705  0.4988  0.2327  1.2533
  557TIP3    H223087   1.242   3.417  16.840 -1.0067 -0.8760  0.5569
  558TIP3   OH223088   6.154   1.107  12.023  0.4218 -0.4200 -0.6192
  558TIP3    H123089   6.063   1.077  12.019  0.4168 -0.4033 -0.6207
  558TIP3    H223090   6.186   1.072  12.107  0.1186  0.4049 -0.1464
  559TIP3   OH223091   2.226   1.894  14.703  0.3534 -0.5171  0.4481
  559TIP3    H123092   2.183   1.808  14.702 -1.3112  0.2526 -1.2881
  559TIP3    H223093   2.211   1.927  14.791 -0.9149 -1.1192  0.4885
  560TIP3   OH223094   4.124   5.404   0.509  0.4542  0.2907  0.5480
  560TIP3    H123095   4.100   5.491   0.476  0.2421 -0.1626 -0.5366
  560TIP3    H223096   4.074   5.395   0.591  0.6712  1.2821  0.8053
  561TIP3   OH223097   1.255   1.986  14.760 -0.4945  0.4057  0.1587
  561TIP3    H123098   1.234   1.934  14.838 -0.1133  0.2693  0.1697
  561TIP3    H223099   1.200   2.064  14.768 -1.6730 -0.3543 -0.2659
  562TIP3   OH223100   6.133   0.201   3.815  0.3032 -0.5373 -0.2072
  562TIP3    H123101   6.221   0.230   3.794  0.5429 -0.9000  0.2836
  562TIP3    H223102   6.087   0.202   3.731  0.1440  1.7036 -0.1433
  563TIP3   OH223103   0.243   5.452   4.337 -0.0021  0.4633  0.4350
  563TIP3    H123104   0.268   5.388   4.404 -0.5143  0.8201  0.9788
  563TIP3    H223105   0.178   5.507   4.380 -2.4388 -0.9866 -1.1725
  564TIP3   OH223106   2.837   1.306   0.550  0.0852  0.3753 -0.3774
  564TIP3    H123107   2.875   1.246   0.615 -2.0509 -0.7452 -0.0375
  564TIP3    H223108   2.837   1.256   0.468 -1.9313 -0.3000 -0.0398
  565TIP3   OH223109   5.831   3.368  12.684 -0.0517  0.2691  0.2706
  565TIP3    H123110   5.758   3.336  12.630  0.3298  1.2314 -0.8732
  565TIP3    H223111   5.822   3.464  12.680  1.1200  0.3884  0.3454
  566TIP3   OH223112   6.080   4.172   0.309  0.4962  0.4911 -0.0922
  566TIP3    H123113   6.045   4.179   0.220 -0.3189  2.0137  0.3201
  566TIP3    H223114   6.165   4.129   0.298 -1.4124 -3.4321 -1.1205
  567TIP3   OH223115   6.584   2.922  11.773  0.4621  0.2499  0.4655
  567TIP3    H123116   6.520   2.910  11.843  2.6115 -1.9808  2.2319
  567TIP3    H223117   6.545   2.879  11.697  0.0809 -1.6940  1.6905
  568TIP3   OH223118   3.314   1.623   6.497 -0.2097 -0.3851 -0.4802
  568TIP3    H123119   3.297   1.704   6.450  0.8792 -0.3284 -0.7943
  568TIP3    H223120   3.350   1.652   6.581 -1.7707 -0.4965  0.2595
  569TIP3   OH223121   2.669   3.786   5.695 -0.3922 -0.2988  0.3082
  569TIP3    H123122   2.597   3.807   5.754 -0.3665  0.6012  0.0320
  569TIP3    H223123   2.626   3.762   5.613 -0.3957 -0.5635  0.3854
  570TIP3   OH223124   5.912   4.426   3.834  0.4433  0.2071  0.4267
  570TIP3    H123125   5.981   4.490   3.825  0.1086  0.6955  1.1725
  570TIP3    H223126   5.947   4.361   3.896  0.7280 -0.2594 -0.2156
  571TIP3   OH223127   1.210   4.089  16.817  0.2906  0.3897  0.3202
  571TIP3    H123128   1.210   4.110  16.910 -2.8533  1.1096  0.2729
  571TIP3    H223129   1.168   4.003  16.811  0.3856  0.3855 -0.4267
  572TIP3   OH223130   5.452   1.684  12.123 -0.6040  0.2399  0.1348
  572TIP3    H123131   5.525   1.671  12.063  0.1297 -0.5106  1.1541
  572TIP3    H223132   5.375   1.685  12.067  0.2583  2.5176 -1.1400
  573TIP3   OH223133   0.316   4.339  16.894  0.2548 -0.2185  0.3769
  573TIP3    H123134   0.354   4.411  16.845 -0.2447 -1.8127 -2.6022
  573TIP3    H223135   0.390   4.284  16.918  0.2839 -1.0251 -1.4490
  574TIP3   OH223136   4.372   5.274  17.203  0.1593 -0.4705 -0.3236
  574TIP3    H123137   4.460   5.281  17.166  0.5847  0.5358  0.8265
  574TIP3    H223138   4.314   5.312  17.136  0.2740 -3.0308 -2.0282
  575TIP3   OH223139   0.905   3.318   4.622 -0.1777 -0.4107 -0.4169
  575TIP3    H123140   0.953   3.235   4.623 -1.3202 -1.1029  0.8783
  575TIP3    H223141   0.956   3.376   4.677  0.8098 -0.1149 -1.6016
  576TIP3   OH223142   4.557   4.332   5.320 -0.2019 -0.0495 -0.0612
  576TIP3    H123143   4.642   4.336   5.277  0.1055 -0.4389  0.5002
  576TIP3    H223144   4.573   4.282   5.400 -0.9052  0.0891  0.1707
  577TIP3   OH223145   0.093   3.941  14.786 -0.2298 -0.0763 -0.1014
  577TIP3    H123146   0.036   4.004  14.828 -0.7872  1.0024 -2.3156
  577TIP3    H223147   0.099   3.868  14.848 -4.2168 -0.3644  0.1803
  578TIP3   OH223148   6.165   5.170  11.531  0.7787 -0.0718 -0.0870
  578TIP3    H123149   6.214   5.089  11.547  1.3756  0.0588 -1.1389
  578TIP3    H223150   6.133   5.160  11.441  0.8727  0.8601 -0.2266
  579TIP3   OH223151   0.991   1.397   1.791  0.3542  0.0588  0.0734
  579TIP3    H123152   0.927   1.358   1.850  0.3405 -2.3885 -1.4085
  579TIP3    H223153   0.981   1.491   1.803 -2.5863 -0.2504  0.8444
  580TIP3   OH223154   3.458   6.762  10.756  0.1584  0.0565 -0.1393
  580TIP3    H123155   3.376   6.808  10.739  0.9640  1.4078 -0.4770
  580TIP3    H223156   3.518   6.830  10.787  0.9035 -1.0593  0.9794
  581TIP3   OH223157   4.606   5.226   4.163  0.7550 -0.4825 -0.0604
  581TIP3    H123158   4.511   5.215   4.168  0.7708 -0.1259  2.0649
  581TIP3    H223159   4.620   5.276   4.082 -0.7354 -1.5805 -1.0404
  582TIP3   OH223160   3.108   5.658  12.265 -0.1956 -0.2087  0.0732
  582TIP3    H123161   3.174   5.630  12.328 -0.6388 -0.5492  0.3934
  582TIP3    H223162   3.083   5.578  12.218 -1.3419 -0.3451  0.8696
  583TIP3   OH223163   2.427   3.077   4.827 -0.0036 -0.1390  0.1844
  583TIP3    H123164   2.340   3.114   4.842 -0.2748 -1.0482  0.9281
  583TIP3    H223165   2.434   3.071   4.731 -0.4747  0.5848  0.0952
  584TIP3   OH223166   2.386   4.949  13.175  0.1978  0.4490  0.1943
  584TIP3    H123167   2.416   4.977  13.088 -0.7294 -0.0737 -0.3149
  584TIP3    H223168   2.362   4.857  13.163  0.1479  0.3449  1.0356
  585TIP3   OH223169   5.615   4.807  13.390  0.5505 -0.0325  0.3006
  585TIP3    H123170   5.549   4.873  13.411  0.5713  0.0162  0.2122
  585TIP3    H223171   5.621   4.754  13.469 -1.8987 -2.0255 -0.7145
  586TIP3   OH223172   2.108   1.444  13.381 -0.1618 -0.3570 -0.1694
  586TIP3    H123173   2.172   1.380  13.413  0.9652  1.6136  1.8174
  586TIP3    H223174   2.024   1.399  13.389  0.8016 -2.8620 -2.3922
  587TIP3   OH223175   3.441   1.194  14.681  0.4235 -0.5513  0.0289
  587TIP3    H123176   3.414   1.259  14.616 -0.1912  0.6270  1.3960
  587TIP3    H223177   3.481   1.124  14.630  1.0923  0.8822 -1.5206
  588TIP3   OH223178   0.654   2.534  13.033  0.1887 -0.0282 -0.3079
  588TIP3    H123179   0.724   2.496  13.086 -0.1492 -0.3070 -0.0570
  588TIP3    H223180   0.679   2.626  13.022 -0.2631  0.2971  1.2259
  589TIP3   OH223181   0.740   5.939  12.665  0.5602  0.2921  0.4831
  589TIP3    H123182   0.735   6.009  12.600  1.2785  0.0007  0.0976
  589TIP3    H223183   0.653   5.935  12.704  0.1565  0.5516 -0.3820
  590TIP3   OH223184   4.091   3.151  15.777 -0.1440  0.2403 -0.2334
  590TIP3    H123185   4.120   3.060  15.773  0.6163  0.5006 -1.0280
  590TIP3    H223186   4.016   3.150  15.837 -0.7768 -1.0692 -1.0045
  591TIP3   OH223187   2.051   0.360  13.172 -0.4071  0.2071  0.3675
  591TIP3    H123188   2.105   0.294  13.129  0.0552  0.7418  0.1237
  591TIP3    H223189   1.987   0.309  13.222  1.8755 -0.5101  2.7490
  592TIP3   OH223190   0.985   1.365  17.048  0.9952 -0.2140 -0.3505
  592TIP3    H123191   0.941   1.347  17.132 -0.3350 -2.6116 -1.4509
  592TIP3    H223192   1.078   1.365  17.069  0.7449 -1.9242  0.9941
  593TIP3   OH223193   0.608   6.452  16.926  0.3632 -0.2357 -0.0910
  593TIP3    H123194   0.636   6.520  16.988  0.5105  0.4102 -0.8508
  593TIP3    H223195   0.622   6.491  16.840  2.3955 -1.9994 -0.6218
  594TIP3   OH223196   6.731   3.095  14.712 -0.1512 -0.6907 -0.0120
  594TIP3    H123197   6.656   3.074  14.656  1.2975 -1.1996 -1.8923
  594TIP3    H223198   6.714   3.185  14.741 -0.8331 -0.2581 -1.5926
  595TIP3   OH223199   2.942   2.050   4.466 -0.0825 -0.4040 -0.0367
  595TIP3    H123200   2.930   2.116   4.398 -0.0565 -0.5334 -0.1673
  595TIP3    H223201   3.034   2.059   4.493  0.6672 -2.0228 -1.7878
  596TIP3   OH223202   1.015   3.938  15.173  0.7682 -0.7385 -0.9970
  596TIP3    H123203   0.967   3.856  15.178 -0.0921 -0.2364 -0.8494
  596TIP3    H223204   1.010   3.963  15.080  2.6187 -1.7546 -1.4357
  597TIP3   OH223205   0.579   5.038  11.129  0.0828  0.3951 -0.2644
  597TIP3    H123206   0.555   5.128  11.106 -1.2145 -0.0183 -0.5852
  597TIP3    H223207   0.554   4.986  11.053  1.0223 -0.2243 -0.1662
  598TIP3   OH223208   2.923   2.910  13.978  0.1383 -0.0036  0.5141
  598TIP3    H123209   3.017   2.898  13.991  0.3681  0.0077 -0.9446
  598TIP3    H223210   2.904   2.996  14.016  0.7906  0.1545  0.4994
  599TIP3   OH223211   2.224   4.755  15.976 -0.5205 -0.1963  0.4371
  599TIP3    H123212   2.280   4.824  16.013 -1.3874  0.6367  0.2382
  599TIP3    H223213   2.177   4.720  16.051  1.2135 -1.8548  0.8290
  600TIP3   OH223214   0.306   1.062   5.615 -0.2190  0.0789 -0.3228
  600TIP3    H123215   0.251   0.991   5.648 -0.0301 -0.4859 -1.1855
  600TIP3    H223216   0.272   1.140   5.657 -1.2185 -0.3637 -0.2876
  601TIP3   OH223217   6.395   5.081  15.719 -0.3309 -0.2627  0.4007
  601TIP3    H123218   6.331   5.030  15.769 -0.1005  0.2246  1.2006
  601TIP3    H223219   6.393   5.168  15.758  1.0764 -0.3388  0.6740
  602TIP3   OH223220   1.255   0.778   5.032 -0.6388 -0.3731  0.1478
  602TIP3    H123221   1.272   0.769   5.126 -0.1293 -2.9660 -0.1097
  602TIP3    H223222   1.334   0.743   4.990 -1.0624  0.2656 -1.2426
  603TIP3   OH223223   0.689   4.447   5.525 -0.3253 -0.2175 -0.0716
  603TIP3    H123224   0.681   4.522   5.465 -0.2629 -1.1165 -1.2403
  603TIP3    H223225   0.702   4.487   5.611  0.0821  1.1171 -0.7162
  604TIP3   OH223226   3.029   0.233  14.791 -0.3565  0.1286  0.3812
  604TIP3    H123227   2.947   0.201  14.753 -1.3831 -0.2587  2.7582
  604TIP3    H223228   3.038   0.323  14.760 -1.3494 -0.0412 -0.4088
  605TIP3   OH223229   5.293   4.859   4.904  0.0622  0.0049 -0.2414
  605TIP3    H123230   5.243   4.936   4.928 -0.1590  0.4811 -2.0644
  605TIP3    H223231   5.347   4.840   4.981 -0.4249  1.5123  0.5077
  606TIP3   OH223232   5.301   5.354   3.057  0.1056  0.2115 -0.4675
  606TIP3    H123233   5.368   5.421   3.041  0.0130  0.3996 -0.0811
  606TIP3    H223234   5.218   5.397   3.035 -0.0176  0.4534  0.4237
  607TIP3   OH223235   5.580   2.765   4.433 -0.8432  0.0895 -0.3048
  607TIP3    H123236   5.669   2.799   4.448 -1.0954  1.4562 -1.7625
  607TIP3    H223237   5.591   2.702   4.362 -0.7138 -1.5172  1.0596
  608TIP3   OH223238   1.963   0.461   2.642  0.7624 -0.3219  0.5126
  608TIP3    H123239   2.047   0.419   2.621  0.6979 -0.7073  1.0020
  608TIP3    H223240   1.973   0.551   2.613  0.6860 -0.8215 -1.1392
  609TIP3   OH223241   5.620   6.629   3.351  0.0588 -0.4455  0.6404
  609TIP3    H123242   5.563   6.600   3.280 -2.2534  1.6008  1.4991
  609TIP3    H223243   5.689   6.563   3.355  0.9552 -0.1361 -4.1336
  610TIP3   OH223244   6.539   0.905   4.903 -0.3912 -0.0647 -0.1278
  610TIP3    H123245   6.605   0.959   4.860 -0.4566  0.3931  0.3327
  610TIP3    H223246   6.574   0.816   4.899  0.4484  0.2259  0.4532
  611TIP3   OH223247   0.676   4.194   5.746  0.2194 -0.0279  0.2679
  611TIP3    H123248   0.702   4.109   5.783 -0.1299 -0.0604  0.4404
  611TIP3    H223249   0.581   4.190   5.740  0.2732 -0.0467 -0.7045
  612TIP3   OH223250   1.040   5.635  16.698  0.9126 -0.2170 -0.9294
  612TIP3    H123251   1.078   5.555  16.734 -0.8958 -1.0888 -0.8137
  612TIP3    H223252   1.059   5.631  16.605  0.0736 -1.2695 -1.0722
  613TIP3   OH223253   4.035   0.316   0.938 -0.1211 -0.8277 -0.1519
  613TIP3    H123254   4.083   0.397   0.953  0.9943 -1.6341  0.8557
  613TIP3    H223255   4.023   0.279   1.026 -0.3551 -1.8899 -0.6195
  614TIP3   OH223256   1.009   6.120  11.540  0.4851 -0.0952  0.3580
  614TIP3    H123257   0.979   6.190  11.481  1.9047  0.5667  0.3653
  614TIP3    H223258   1.104   6.133  11.545  0.6872 -1.6405  0.8847
  615TIP3   OH223259   2.338   3.065   5.581  0.5716 -0.1071  0.1530
  615TIP3    H123260   2.243   3.056   5.585  0.7379 -2.8378 -0.1448
  615TIP3    H223261   2.362   3.099   5.666 -0.7078  1.5298 -0.0841
  616TIP3   OH223262   0.857   4.028   2.468  0.2552  0.3866 -0.0832
  616TIP3    H123263   0.780   3.999   2.517  0.8426  3.8155  3.3383
  616TIP3    H223264   0.931   4.000   2.520  1.2561 -0.1683 -1.7236
  617TIP3   OH223265   3.489   6.075   0.208  0.5348 -0.6368  0.0960
  617TIP3    H123266   3.471   6.169   0.204  1.2379 -0.5080 -0.1913
  617TIP3    H223267   3.427   6.041   0.272  0.6559  0.1192  0.6253
  618TIP3   OH223268   2.369   5.297  16.236 -0.5316  0.2485 -0.1566
  618TIP3    H123269   2.358   5.211  16.276  1.2122 -0.9248 -2.0362
  618TIP3    H223270   2.310   5.297  16.161 -1.4740  1.2355  0.5469
  619TIP3   OH223271   2.302   5.205   3.685 -0.6092  0.1375  0.5054
  619TIP3    H123272   2.374   5.185   3.744  1.8561 -1.0987 -2.5949
  619TIP3    H223273   2.291   5.125   3.633 -1.7929  1.4667 -1.4143
  620TIP3   OH223274   3.672   0.476   5.691 -0.3690  0.0541 -1.1038
  620TIP3    H123275   3.726   0.400   5.712 -3.0777 -1.8139 -0.2207
  620TIP3    H223276   3.648   0.463   5.600 -0.3447  0.1683 -1.1253
  621TIP3   OH223277   2.083   5.640   4.808 -0.4364 -0.3226  0.0490
  621TIP3    H123278   2.066   5.564   4.752 -1.2299 -0.6408  0.7118
  621TIP3    H223279   2.163   5.678   4.771 -0.5354 -0.9413 -0.8540
  622TIP3   OH223280   6.251   2.329   2.763  0.0903  0.1462 -0.5100
  622TIP3    H123281   6.221   2.418   2.745  0.0362  0.3670  0.5765
  622TIP3    H223282   6.309   2.338   2.839  0.8912 -0.6134 -1.0089
  623TIP3   OH223283   2.283   3.305  13.337  0.2324 -0.1966  0.0998
  623TIP3    H123284   2.320   3.253  13.408  2.0526  0.7446 -0.1246
  623TIP3    H223285   2.357   3.326  13.280 -0.8706  0.6105 -1.1054
  624TIP3   OH223286   1.233   3.471  12.564 -0.1978 -0.0187  0.3912
  624TIP3    H123287   1.192   3.491  12.480  0.3424  0.8217  0.3102
  624TIP3    H223288   1.180   3.401  12.601 -0.5408 -0.2877 -0.5775
  625TIP3   OH223289   0.636   2.897   1.529 -0.1749  0.0870 -0.5488
  625TIP3    H123290   0.545   2.869   1.540 -0.2826  0.6387 -0.0041
  625TIP3    H223291   0.685   2.815   1.523 -0.5069 -0.2462  0.8737
  626TIP3   OH223292   3.164   5.685   6.324 -0.0438 -0.6650 -0.5563
  626TIP3    H123293   3.172   5.730   6.409 -1.5250 -1.9044  0.2967
  626TIP3    H223294   3.254   5.677   6.293  0.3904  1.5274 -0.0522
  627TIP3   OH223295   1.590   1.387   4.712 -0.2582 -0.0010  0.7155
  627TIP3    H123296   1.550   1.305   4.738 -0.2576  0.1440  1.1835
  627TIP3    H223297   1.682   1.379   4.738  0.4403 -0.9566 -1.7507
  628TIP3   OH223298   3.630   6.675  14.542 -0.2218 -0.0432  0.0494
  628TIP3    H123299   3.624   6.697  14.449 -2.8190  1.5972  0.4968
  628TIP3    H223300   3.556   6.616  14.557  1.3803 -1.9710  0.7249
  629TIP3   OH223301   4.209   0.198  15.555 -0.2513 -0.4502 -0.2877
  629TIP3    H123302   4.268   0.151  15.613 -0.8531 -1.2155 -0.2822
  629TIP3    H223303   4.146   0.132  15.526 -1.3317  0.4168  0.0132
  630TIP3   OH223304   3.492   2.318  15.646 -0.3077  0.0548 -0.7609
  630TIP3    H123305   3.418   2.297  15.588 -0.8986  0.8762 -0.3329
  630TIP3    H223306   3.474   2.270  15.727 -1.2828  1.5290 -0.0460
  631TIP3   OH223307   1.629   0.743   5.446 -0.0393 -0.6706  0.2001
  631TIP3    H123308   1.571   0.801   5.495 -0.5857 -2.7941  2.2432
  631TIP3    H223309   1.712   0.745   5.493  0.7312  0.2642 -1.1371
  632TIP3   OH223310   0.377   4.713  13.528 -0.0673 -0.3461  0.2112
  632TIP3    H123311   0.360   4.631  13.575  1.0928  0.3784  1.9811
  632TIP3    H223312   0.451   4.692  13.471  0.6688 -0.3862  1.1507
  633TIP3   OH223313   6.222   0.746   5.664  0.4702 -0.4972  0.2111
  633TIP3    H123314   6.255   0.788   5.742  0.8591  0.1640 -0.3006
  633TIP3    H223315   6.255   0.656   5.669  0.3434 -0.5086  0.8818
  634TIP3   OH223316   6.095   0.824  15.078 -0.0020  0.3969 -0.2359
  634TIP3    H123317   6.038   0.748  15.067  1.2435 -0.3522 -2.0142
  634TIP3    H223318   6.052   0.894  15.030 -0.3984  0.3922  0.1085
  635TIP3   OH223319   5.465   1.091  13.118  0.3159  0.6603  0.5195
  635TIP3    H123320   5.499   1.118  13.203  0.9794 -2.1995  1.2939
  635TIP3    H223321   5.535   1.112  13.056 -0.1938  2.8141  0.6101
  636TIP3   OH223322   1.652   0.649  13.672 -0.1816 -0.5010  0.0049
  636TIP3    H123323   1.698   0.655  13.588 -0.0759  0.9488  0.1352
  636TIP3    H223324   1.560   0.638  13.649 -0.1557 -0.0721 -0.3158
  637TIP3   OH223325   1.565   1.430  13.879  0.4172  0.6864 -0.6151
  637TIP3    H123326   1.654   1.403  13.857 -0.0075 -0.4416 -1.0180
  637TIP3    H223327   1.558   1.416  13.974  0.7881  1.1583 -0.5153
  638TIP3   OH223328   1.148   3.039   5.708 -0.2256 -0.0015 -0.2885
  638TIP3    H123329   1.169   3.074   5.794  0.2720  0.0539 -0.4276
  638TIP3    H223330   1.058   3.008   5.716  0.0843 -0.7466  0.4954
  639TIP3   OH223331   4.576   5.750   3.754 -0.3770  0.1251  0.0900
  639TIP3    H123332   4.508   5.787   3.698  0.0765 -1.5383 -1.6832
  639TIP3    H223333   4.651   5.809   3.744  0.1614 -0.8447 -2.2670
  640TIP3   OH223334   1.091   6.674  14.101 -0.0937  0.1551  0.1683
  640TIP3    H123335   1.015   6.683  14.159 -0.6261 -1.4052 -0.2389
  640TIP3    H223336   1.167   6.682  14.160 -0.4909  2.4411  0.4782
  641TIP3   OH223337   2.965   5.791  12.461 -0.0854 -0.6357 -0.3891
  641TIP3    H123338   3.017   5.864  12.496  1.5863 -1.7248 -0.5027
  641TIP3    H223339   3.014   5.762  12.384 -0.3753 -2.2863  0.0240
  642TIP3   OH223340   6.698   1.850  10.404  0.1149 -0.2369  0.7733
  642TIP3    H123341   6.746   1.829  10.323  0.6199  1.3647  0.6257
  642TIP3    H223342   6.637   1.778  10.414  1.3553 -1.4637 -0.0009
  643TIP3   OH223343   6.064   3.771   2.910 -0.4626 -0.3262 -0.2616
  643TIP3    H123344   5.990   3.818   2.870 -2.2902  0.7692  3.8515
  643TIP3    H223345   6.136   3.833   2.908 -0.6539 -0.1232 -1.3612
  644TIP3   OH223346   6.284   3.340  13.106 -0.2877 -0.4747 -0.4856
  644TIP3    H123347   6.334   3.402  13.158  1.4015 -1.4293 -0.8781
  644TIP3    H223348   6.195   3.375  13.104  0.4626  1.5555 -0.1483
  645TIP3   OH223349   1.782   0.623   0.673 -0.0222  0.6241  0.3479
  645TIP3    H123350   1.815   0.564   0.605  0.1331 -0.9906  1.7770
  645TIP3    H223351   1.688   0.630   0.655 -0.6519 -2.4994  1.8177
  646TIP3   OH223352   5.407   5.092  14.430  0.1873  0.5691  0.3568
  646TIP3    H123353   5.348   5.107  14.504 -1.0691 -0.1507 -0.4581
  646TIP3    H223354   5.462   5.170  14.427  0.2085  0.6430  1.9881
  647TIP3   OH223355   0.022   4.547   5.101 -0.3150 -0.4120  0.5302
  647TIP3    H123356   0.012   4.480   5.168  2.5264 -0.7669  0.7472
  647TIP3    H223357   0.088   4.607   5.138 -1.7885  1.8036 -0.2161
  648TIP3   OH223358   2.436   5.291   2.442  0.2373  0.2116  0.3100
  648TIP3    H123359   2.477   5.268   2.359  1.9791  0.2865  1.1089
  648TIP3    H223360   2.476   5.375   2.466  0.3901 -0.2245  1.6381
  649TIP3   OH223361   0.819   0.305  17.148 -0.1523  0.0004 -0.2057
  649TIP3    H123362   0.855   0.377  17.097 -0.9978  0.0732 -0.7212
  649TIP3    H223363   0.871   0.304  17.228 -0.8575  1.9235  0.3251
  650TIP3   OH223364   6.645   2.516  12.828 -0.0906  0.0483 -0.1575
  650TIP3    H123365   6.661   2.422  12.819  0.4260  0.3269 -3.2433
  650TIP3    H223366   6.731   2.556  12.817 -0.7669  0.9731 -2.8164
  651TIP3   OH223367   4.368   5.677   2.777 -0.6692 -0.8893  0.2168
  651TIP3    H123368   4.411   5.753   2.818  1.7320 -1.9878 -0.0833
  651TIP3    H223369   4.381   5.606   2.840  0.0543 -1.7969 -0.9178
  652TIP3   OH223370   4.581   1.705   3.174  0.6689 -0.9885  0.1024
  652TIP3    H123371   4.596   1.725   3.266 -1.0809  0.7274  0.0815
  652TIP3    H223372   4.585   1.790   3.130 -1.0210 -1.4263 -0.9932
  653TIP3   OH223373   4.659   1.715  11.000 -0.0966  0.3536 -0.6255
  653TIP3    H123374   4.641   1.698  10.907  0.2476  1.9047 -1.0091
  653TIP3    H223375   4.623   1.802  11.015  2.2738  1.2812 -0.0250
  654TIP3   OH223376   3.427   3.467  11.502 -0.6668  0.3507 -0.1615
  654TIP3    H123377   3.400   3.513  11.422 -0.5931  0.7790  0.0619
  654TIP3    H223378   3.345   3.439  11.542 -0.7654  1.1510  0.2169
  655TIP3   OH223379   5.684   1.167  11.253  0.0526  0.2407  0.3812
  655TIP3    H123380   5.720   1.226  11.188  0.1238 -0.8134 -0.5672
  655TIP3    H223381   5.741   1.090  11.249 -1.0190 -0.5766  0.3855
  656TIP3   OH223382   5.719   6.105  11.691 -0.5163  0.0824 -0.5429
  656TIP3    H123383   5.710   6.127  11.784 -1.8139 -0.1992 -0.5909
  656TIP3    H223384   5.813   6.117  11.673 -0.0937 -0.6251  0.9935
  657TIP3   OH223385   2.078   2.507   2.083  0.1989 -0.1937  0.0890
  657TIP3    H123386   2.074   2.577   2.018  0.1857  0.1420  0.4519
  657TIP3    H223387   2.153   2.529   2.138  0.1429 -0.4160  0.2566
  658TIP3   OH223388   2.579   5.955  16.459 -0.2046 -0.1778 -0.0185
  658TIP3    H123389   2.632   5.938  16.538  0.4867  0.6017 -0.2983
  658TIP3    H223390   2.541   6.041  16.475 -0.9586 -0.5011 -0.0631
  659TIP3   OH223391   0.555   0.961  15.833 -0.2881 -0.7534 -0.2279
  659TIP3    H123392   0.625   0.902  15.863 -0.4137 -0.2312  1.2036
  659TIP3    H223393   0.483   0.944  15.894 -0.8390 -0.1617 -0.7095
  660TIP3   OH223394   1.684   1.778  11.411 -0.0629 -0.0608 -0.0670
  660TIP3    H123395   1.729   1.831  11.345  1.6976 -1.0822  0.2344
  660TIP3    H223396   1.663   1.696  11.367 -0.0566 -0.2509  0.2737
  661TIP3   OH223397   3.996   0.683  15.495  0.4750  0.5016 -0.0368
  661TIP3    H123398   3.901   0.672  15.494  0.5124  0.1808 -0.4065
  661TIP3    H223399   4.021   0.659  15.585  0.2916 -0.2168 -0.1673
  662TIP3   OH223400   3.174   1.559  15.168 -0.9081 -0.1109 -0.1790
  662TIP3    H123401   3.237   1.492  15.193  1.0526  0.6744 -2.6665
  662TIP3    H223402   3.164   1.550  15.074  0.5578  3.8626 -0.9257
  663TIP3   OH223403   5.487   2.840   6.467  0.1837  0.0329  0.2725
  663TIP3    H123404   5.414   2.894   6.498 -0.6860 -1.1289  0.3096
  663TIP3    H223405   5.445   2.771   6.416  1.3447 -0.0846 -0.5425
  664TIP3   OH223406   4.824   3.184   5.482 -0.5692  0.5346  0.2076
  664TIP3    H123407   4.749   3.124   5.487 -1.1394  1.2240  0.0997
  664TIP3    H223408   4.891   3.143   5.536 -1.4925  0.5763  1.4083
  665TIP3   OH223409   3.298   6.172   4.568  0.6170  0.2530 -0.2471
  665TIP3    H123410   3.217   6.156   4.617  1.6448  0.2856  1.5238
  665TIP3    H223411   3.310   6.092   4.517 -0.1306 -0.0699  0.0627
  666TIP3   OH223412   3.305   1.565  11.463  0.4729 -0.1238 -0.4504
  666TIP3    H123413   3.306   1.642  11.406 -0.6632 -0.6812 -1.2867
  666TIP3    H223414   3.391   1.526  11.452  1.1224  1.0969  0.1157
  667TIP3   OH223415   2.191   1.817  11.149  0.3847 -0.0390  0.2447
  667TIP3    H123416   2.135   1.741  11.136 -2.0517  1.6342  0.1750
  667TIP3    H223417   2.218   1.842  11.061  1.1820 -0.7823  0.2669
  668TIP3   OH223418   2.536   2.196  11.326  0.2286 -0.1996  0.1535
  668TIP3    H123419   2.451   2.168  11.291 -0.8606  1.1268  1.5341
  668TIP3    H223420   2.598   2.130  11.297 -1.6482 -2.3773  0.8110
  669TIP3   OH223421   5.320   0.691   2.897 -0.0611 -0.2533  0.2981
  669TIP3    H123422   5.368   0.615   2.931 -1.7365 -1.7337 -0.4736
  669TIP3    H223423   5.377   0.726   2.828  0.2122 -1.5676 -0.1695
  670TIP3   OH223424   2.170   0.983  15.579  0.2343 -0.0919 -0.5549
  670TIP3    H123425   2.113   1.004  15.653 -0.5169 -2.2676 -0.4342
  670TIP3    H223426   2.257   1.014  15.605 -0.1455 -0.2211  0.9478
  671TIP3   OH223427   2.420   4.377  13.702  0.2673 -0.2048 -0.2063
  671TIP3    H123428   2.478   4.305  13.729  0.0629  0.3504  1.8140
  671TIP3    H223429   2.351   4.378  13.767 -0.9603  0.4410 -1.4670
  672TIP3   OH223430   6.349   6.249  12.495 -0.0270  0.1264  0.1279
  672TIP3    H123431   6.336   6.199  12.575  1.7255 -0.9427 -0.1996
  672TIP3    H223432   6.260   6.272  12.466 -0.8230 -1.7226  0.9710
  673TIP3   OH223433   3.763   3.112  15.576 -0.9456 -0.1742 -0.0316
  673TIP3    H123434   3.722   3.032  15.608 -0.7646  0.4063  1.7632
  673TIP3    H223435   3.751   3.175  15.647  2.7396  0.1334  0.5475
  674TIP3   OH223436   5.722   0.958  13.409  0.1954  0.8298 -0.3983
  674TIP3    H123437   5.711   0.933  13.317  0.8695  2.6034 -0.9978
  674TIP3    H223438   5.725   1.054  13.408  3.3451  0.8772  1.0675
  675TIP3   OH223439   1.372   6.668  14.260 -1.0136 -0.0573 -0.3120
  675TIP3    H123440   1.385   6.601  14.193  0.4952 -0.6290  0.4928
  675TIP3    H223441   1.409   6.630  14.340 -2.4417  0.7331  0.7879
  676TIP3   OH223442   3.709   6.616  11.350 -0.1068 -0.2458 -0.4242
  676TIP3    H123443   3.700   6.709  11.369 -1.6186 -0.1508 -1.4701
  676TIP3    H223444   3.767   6.613  11.274  0.4091 -0.2118 -0.0400
  677TIP3   OH223445   6.280   1.157  16.044  0.2956  0.0828 -0.2364
  677TIP3    H123446   6.372   1.180  16.060 -0.0158  1.2611 -0.0324
  677TIP3    H223447   6.281   1.062  16.031  1.5043  0.0411  0.0178
  678TIP3   OH223448   5.078   5.453  16.923 -0.1970  0.6517  0.9151
  678TIP3    H123449   5.077   5.361  16.898 -0.8772  0.7359  0.6319
  678TIP3    H223450   5.167   5.467  16.957 -0.5050 -0.4327  2.2278
  679TIP3   OH223451   4.388   1.547   5.649 -0.1219 -0.1335  0.0415
  679TIP3    H123452   4.365   1.470   5.701  1.3468 -0.0209  0.9236
  679TIP3    H223453   4.483   1.542   5.638 -0.0214  1.4051 -0.0923
  680TIP3   OH223454   3.719   5.223  14.403 -0.8552  0.6170 -0.2259
  680TIP3    H123455   3.713   5.128  14.393 -0.3559  0.5312  0.2670
  680TIP3    H223456   3.661   5.257  14.335  0.2418 -0.0063 -1.5527
  681TIP3   OH223457   0.464   3.640  12.560  0.3758 -0.2411  0.4055
  681TIP3    H123458   0.396   3.706  12.570  0.2595  0.0659 -2.0001
  681TIP3    H223459   0.426   3.561  12.600 -0.7062  0.3494  0.5911
  682TIP3   OH223460   6.283   0.221   1.841 -0.4116 -0.0884 -0.0328
  682TIP3    H123461   6.201   0.251   1.880  1.1381  2.3373  1.6233
  682TIP3    H223462   6.291   0.130   1.869 -2.6219 -0.4801 -0.5009
  683TIP3   OH223463   1.636   3.087   5.588 -0.2995 -0.3568 -0.0286
  683TIP3    H123464   1.656   3.001   5.625 -1.9622 -0.6549  0.2241
  683TIP3    H223465   1.666   3.149   5.654 -0.6396 -0.8020  0.5521
  684TIP3   OH223466   2.182   1.202  16.112  0.9960 -0.7521  0.2286
  684TIP3    H123467   2.210   1.188  16.203  1.0167 -0.1754  0.3150
  684TIP3    H223468   2.166   1.296  16.106 -0.9682 -1.0549  0.1847
  685TIP3   OH223469   5.967   3.025  12.055 -0.1791 -0.6002  0.1960
  685TIP3    H123470   5.981   3.046  11.962 -0.5650 -1.6092 -0.1096
  685TIP3    H223471   6.037   3.071  12.101 -0.0473  0.0088 -0.5873
  686TIP3   OH223472   1.407   4.221   0.744 -0.4215 -0.4798  1.0043
  686TIP3    H123473   1.475   4.245   0.807 -1.4741  0.5994  1.7839
  686TIP3    H223474   1.386   4.130   0.767  1.2968 -1.1275  0.2005
  687TIP3   OH223475   4.128   5.845  15.536  0.0607 -0.0659  0.3810
  687TIP3    H123476   4.139   5.750  15.540  1.2335  0.1071  2.1840
  687TIP3    H223477   4.172   5.870  15.454 -1.2312 -1.1475 -0.6947
  688TIP3   OH223478   3.009   5.909   3.512 -0.3667 -0.1548 -0.1078
  688TIP3    H123479   2.944   5.950   3.569  2.0913  0.1767  2.7084
  688TIP3    H223480   2.968   5.909   3.426 -3.0669  2.2888  0.9864
  689TIP3   OH223481   3.532   3.885  14.457 -0.1634 -0.4713 -0.5694
  689TIP3    H123482   3.467   3.883  14.386 -0.8064 -1.5474  0.0347
  689TIP3    H223483   3.514   3.807  14.509  1.7393 -0.8965 -0.4752
  690TIP3   OH223484   4.249   0.053   5.023  0.1476  0.3024 -0.5215
  690TIP3    H123485   4.263  -0.002   4.947 -0.2758 -1.0312  0.3410
  690TIP3    H223486   4.267   0.142   4.992  1.0244 -0.3258 -1.8848
  691TIP3   OH223487   3.569   3.366   5.113  0.4809  0.4636  0.3721
  691TIP3    H123488   3.609   3.408   5.037  1.8200  1.6222  1.6702
  691TIP3    H223489   3.552   3.276   5.084  1.4874  0.7070 -1.0987
  692TIP3   OH223490   3.219   5.917   2.905  0.2011  0.2169 -0.1535
  692TIP3    H123491   3.263   5.928   2.989 -0.3164 -0.4720  0.2274
  692TIP3    H223492   3.160   5.992   2.899  0.1764  0.2256  0.1461
  693TIP3   OH223493   0.772   2.400   5.142  0.3712  0.3193  0.1920
  693TIP3    H123494   0.682   2.367   5.133  1.2727 -1.6827 -2.8753
  693TIP3    H223495   0.780   2.467   5.075  0.7373  1.7434  1.5980
  694TIP3   OH223496   5.934   0.899  11.462 -0.4926 -0.4093  0.3328
  694TIP3    H123497   5.859   0.874  11.408 -0.7661 -0.3136  0.6637
  694TIP3    H223498   5.897   0.915  11.549  0.0190 -1.0804  0.6872
  695TIP3   OH223499   6.052   0.225   1.392  0.0591 -0.0705 -0.1158
  695TIP3    H123500   6.035   0.143   1.345  1.9651  0.3206 -1.5820
  695TIP3    H223501   6.117   0.201   1.459  0.6027  0.2383 -0.5326
  696TIP3   OH223502   3.331   0.168   3.170 -0.3610 -0.5620 -0.4090
  696TIP3    H123503   3.364   0.209   3.090  1.1135  0.5047  0.6827
  696TIP3    H223504   3.280   0.237   3.212 -0.2570 -0.7738  0.0652
  697TIP3   OH223505   1.190   6.329  11.229  0.3260 -0.5338  0.3199
  697TIP3    H123506   1.182   6.234  11.221  3.0213 -0.8061 -0.2075
  697TIP3    H223507   1.186   6.362  11.139 -1.8855  0.0574  0.5767
  698TIP3   OH223508   0.365   4.061  13.839  0.2041  0.1710  0.0665
  698TIP3    H123509   0.315   4.142  13.847 -3.1353 -1.7440  0.3721
  698TIP3    H223510   0.399   4.062  13.749 -1.3603  1.1057 -0.5446
  699TIP3   OH223511   2.397   2.384  17.342  0.4324 -0.2984 -0.0832
  699TIP3    H123512   2.325   2.437  17.309  1.3880  2.4861  1.9042
  699TIP3    H223513   2.474   2.417  17.296  1.1533  0.6794  1.7078
  700TIP3   OH223514   3.814   3.027   5.148  0.5513  0.1722 -0.0280
  700TIP3    H123515   3.795   2.983   5.230  1.7076  0.1490  0.2478
  700TIP3    H223516   3.766   2.977   5.082 -2.3309  1.5783  0.8443
  701TIP3   OH223517   1.997   6.251  12.377 -0.5390 -0.1294 -0.2663
  701TIP3    H123518   1.943   6.267  12.299 -0.3823 -0.7415 -0.5044
  701TIP3    H223519   1.939   6.206  12.438 -1.0662  1.5439  0.5186
  702TIP3   OH223520   6.236   6.286   1.947 -0.0531  0.1648 -0.1072
  702TIP3    H123521   6.201   6.334   2.022 -0.1635  0.4235 -0.3207
  702TIP3    H223522   6.241   6.352   1.877  1.3469  0.2576  0.0623
  703TIP3   OH223523   4.687   1.930   5.585 -0.3609  0.4293 -0.3882
  703TIP3    H123524   4.659   1.874   5.513  0.3217 -0.8459  0.3074
  703TIP3    H223525   4.777   1.903   5.603  0.4078  2.5468 -0.7734
  704TIP3   OH223526   6.008   4.352   4.272 -0.2895 -0.0540 -0.0920
  704TIP3    H123527   6.020   4.307   4.356  1.1392  0.2222 -0.1219
  704TIP3    H223528   5.919   4.388   4.277 -0.7651 -1.2592  0.6970
  705TIP3   OH223529   2.845   2.007  13.933 -0.2769 -0.4429  0.2598
  705TIP3    H123530   2.793   1.938  13.974 -1.6818  0.5449  0.2276
  705TIP3    H223531   2.780   2.065  13.893  0.9564 -0.4467 -1.8925
  706TIP3   OH223532   5.470   3.282   3.259  0.7409  0.3143  0.2192
  706TIP3    H123533   5.462   3.203   3.206 -0.6981  1.1023 -0.7912
  706TIP3    H223534   5.486   3.249   3.348 -0.7993 -1.1539  0.0115
  707TIP3   OH223535   3.716   3.947   1.433  0.6819  0.3026  0.2755
  707TIP3    H123536   3.770   3.871   1.455  0.8145  0.1990 -0.3880
  707TIP3    H223537   3.741   3.969   1.344 -3.0309 -2.1356 -1.6323
  708TIP3   OH223538   0.665   6.730   2.332  0.1394 -0.2880  0.1159
  708TIP3    H123539   0.597   6.762   2.272 -0.3034 -0.4261  0.5327
  708TIP3    H223540   0.651   6.636   2.337  1.1123 -0.4956 -0.6981
  709TIP3   OH223541   2.644   4.975  16.867 -0.1298  0.6910  0.1357
  709TIP3    H123542   2.700   5.052  16.861  0.8799 -0.0783 -0.5882
  709TIP3    H223543   2.674   4.918  16.797  0.3360 -1.1362  1.7498
  710TIP3   OH223544   2.712   0.057   2.877 -0.0166 -0.4184 -0.3907
  710TIP3    H123545   2.689   0.148   2.860  0.2390 -0.2010  0.3792
  710TIP3    H223546   2.701   0.047   2.971  1.3885 -0.7591 -0.2387
  711TIP3   OH223547   0.461   5.692   3.143 -0.5884 -0.1774  0.3993
  711TIP3    H123548   0.409   5.728   3.071  3.6077  2.0415 -1.9067
  711TIP3    H223549   0.436   5.600   3.147 -3.0224  0.2649 -1.9550
  712TIP3   OH223550   4.684   0.636   5.278  0.3553 -0.2114  0.0418
  712TIP3    H123551   4.758   0.636   5.217 -0.5966 -2.1547 -1.2045
  712TIP3    H223552   4.615   0.684   5.232  0.9013  2.0755  1.4210
  713TIP3   OH223553   6.232   4.550  11.477 -0.1043 -0.2152  0.2653
  713TIP3    H123554   6.303   4.610  11.453 -0.5975  0.5922  0.7982
  713TIP3    H223555   6.274   4.485  11.534 -0.0788  1.1278  1.8210
  714TIP3   OH223556   0.623   3.906   2.294 -0.1896 -0.1643  0.6424
  714TIP3    H123557   0.631   3.998   2.269 -1.3061 -0.7038 -2.0966
  714TIP3    H223558   0.613   3.907   2.389  0.0088  2.5020  0.7040
  715TIP3   OH223559   2.955   4.726   3.083 -0.0146  0.0759 -0.1952
  715TIP3    H123560   2.963   4.631   3.083  0.7013  0.1187  0.7682
  715TIP3    H223561   2.992   4.753   3.167  2.0353  1.4023 -1.4384
  716TIP3   OH223562   5.039   3.679   5.409  0.0515 -0.0247 -0.2733
  716TIP3    H123563   5.099   3.631   5.465 -0.5901  0.2239  0.6406
  716TIP3    H223564   4.958   3.629   5.410  0.7673 -1.4609 -3.1055
  717TIP3   OH223565   0.799   3.761   3.048  0.3102 -0.5210  0.1580
  717TIP3    H123566   0.846   3.736   2.969 -1.2499 -0.3919 -0.8574
  717TIP3    H223567   0.709   3.730   3.033 -0.5527  1.4727  0.9161
  718TIP3   OH223568   5.281   2.463   0.469 -0.0027  0.4742  0.0131
  718TIP3    H123569   5.362   2.416   0.451  0.1655  1.8603 -3.4807
  718TIP3    H223570   5.212   2.398   0.458  0.4608 -0.0376  0.1007
  719TIP3   OH223571   2.744   0.888   0.776 -0.4532 -0.1934  0.1688
  719TIP3    H123572   2.707   0.821   0.718 -0.6162  0.2433 -0.2383
  719TIP3    H223573   2.808   0.933   0.722  0.3271 -0.6160  0.7218
  720TIP3   OH223574   6.582   2.590  15.699  0.0908  0.2473 -0.0225
  720TIP3    H123575   6.653   2.609  15.760  0.5119 -0.2081 -0.3674
  720TIP3    H223576   6.612   2.513  15.650 -0.4941  0.2540 -0.3987
  721TIP3   OH223577   5.843   4.214   2.529 -0.3756 -0.6872  0.2666
  721TIP3    H123578   5.785   4.284   2.560 -1.2579 -1.2137 -0.1572
  721TIP3    H223579   5.824   4.208   2.435 -0.0437 -1.2491  0.2372
  722TIP3   OH223580   6.116   2.981   4.389 -0.6610 -0.0098 -0.1031
  722TIP3    H123581   6.167   3.057   4.418  0.4655  0.9933 -4.1919
  722TIP3    H223582   6.182   2.916   4.364 -1.6057 -2.3132  2.7196
  723TIP3   OH223583   3.241   3.855  14.718 -0.4888  0.1239  0.6661
  723TIP3    H123584   3.178   3.854  14.790 -1.5085  0.9431 -0.1662
  723TIP3    H223585   3.320   3.894  14.756 -2.2629  4.4979  0.4973
  724TIP3   OH223586   3.252   1.697  15.943 -0.1202 -0.1556  0.0833
  724TIP3    H123587   3.326   1.639  15.958 -1.1425 -1.4452  0.2771
  724TIP3    H223588   3.282   1.756  15.874  1.1880 -0.4451  0.3754
  725TIP3   OH223589   4.509   5.701   0.814  0.2189  0.1475 -0.5623
  725TIP3    H123590   4.496   5.780   0.761  0.2385  0.3352 -0.2899
  725TIP3    H223591   4.488   5.729   0.903 -2.9619 -0.9439 -0.8648
  726TIP3   OH223592   0.988   3.242  14.212 -0.1334 -0.4200  0.2900
  726TIP3    H123593   0.909   3.187  14.207 -0.3969  0.0214 -0.7238
  726TIP3    H223594   1.036   3.221  14.132 -0.6132  1.3769 -0.5056
  727TIP3   OH223595   2.456   4.773  13.712  0.1495  0.1745 -0.7098
  727TIP3    H123596   2.490   4.839  13.651 -1.9155  0.5999 -1.4863
  727TIP3    H223597   2.366   4.759  13.684 -0.3216 -0.9412  1.1968
  728TIP3   OH223598   6.435   6.519  12.827  0.7151 -0.1530  0.0470
  728TIP3    H123599   6.416   6.426  12.819 -0.8453  0.0834  0.5969
  728TIP3    H223600   6.365   6.553  12.883  0.3196  1.6102 -1.3982
  729TIP3   OH223601   2.786   4.868   0.595 -0.0728 -0.0939  0.4810
  729TIP3    H123602   2.725   4.812   0.548 -0.7935 -0.4621  1.8022
  729TIP3    H223603   2.788   4.950   0.545 -1.5024 -0.1413  0.3184
  730TIP3   OH223604   5.882   0.844   1.332 -0.2981 -0.1605 -0.0683
  730TIP3    H123605   5.830   0.849   1.413  0.9580 -4.6547  1.3554
  730TIP3    H223606   5.969   0.819   1.362  1.0919  1.1918 -2.7238
  731TIP3   OH223607   1.054   0.938  11.172 -0.0692 -0.0346 -0.2600
  731TIP3    H123608   1.060   0.969  11.082  2.0833  0.0930 -0.1425
  731TIP3    H223609   1.141   0.900  11.190 -0.7119 -0.8021  1.4891
  732TIP3   OH223610   3.030   5.079   0.152  0.2632 -0.1103  0.4976
  732TIP3    H123611   3.070   5.125   0.078 -2.9795  0.2808 -1.1957
  732TIP3    H223612   3.066   4.991   0.148  1.9002  0.5372 -0.0296
  733TIP3   OH223613   4.216   0.424   4.971  0.1718  0.1406  0.1894
  733TIP3    H123614   4.273   0.498   4.993 -0.5272  0.7944 -0.1691
  733TIP3    H223615   4.267   0.373   4.908  1.3390 -0.6140  1.6472
  734TIP3   OH223616   5.973   2.150   4.241 -0.2492 -0.4408  0.0628
  734TIP3    H123617   6.004   2.231   4.280 -1.9828 -0.3053  1.2498
  734TIP3    H223618   6.036   2.083   4.270 -0.1252  0.0832  1.0135
  735TIP3   OH223619   0.172   4.210  16.588  0.4078 -0.9375 -0.1553
  735TIP3    H123620   0.251   4.209  16.535 -0.0608 -0.9413 -0.8742
  735TIP3    H223621   0.103   4.240  16.528 -0.3734 -2.1519  0.0972
  736TIP3   OH223622   2.990   5.671  15.955 -0.2393 -0.5477  0.4223
  736TIP3    H123623   3.056   5.612  15.918 -0.7925 -1.1202  0.3243
  736TIP3    H223624   2.953   5.715  15.878  0.4447  0.2323  0.5258
  737TIP3   OH223625   5.797   2.754  11.303  0.0932  0.1197 -0.1486
  737TIP3    H123626   5.848   2.677  11.330  1.3050  1.1838  0.7366
  737TIP3    H223627   5.769   2.794  11.385  1.2283  1.7315 -0.4953
  738TIP3   OH223628   3.391   6.541  14.536  0.6847 -0.2683 -0.5415
  738TIP3    H123629   3.338   6.460  14.537  1.1863 -0.5994 -0.4820
  738TIP3    H223630   3.389   6.570  14.627 -2.8575  2.0375 -1.1499
  739TIP3   OH223631   5.539   2.174   4.639 -0.1890 -0.2193 -0.9076
  739TIP3    H123632   5.526   2.212   4.552  0.1450 -1.2956 -1.4419
  739TIP3    H223633   5.599   2.101   4.625  0.7026  0.2060  0.3899
  740TIP3   OH223634   1.221   0.541  11.371  0.0347 -0.0559  0.5056
  740TIP3    H123635   1.177   0.585  11.299 -0.3490 -0.5059  0.4604
  740TIP3    H223636   1.237   0.610  11.435  1.2204  0.5420 -0.3932
  741TIP3   OH223637   5.204   3.557   1.074  0.3443 -0.1799 -0.1429
  741TIP3    H123638   5.111   3.541   1.090  0.1577  0.3266 -0.6760
  741TIP3    H223639   5.209   3.575   0.980  0.7849  1.1536  0.1205
  742TIP3   OH223640   0.947   2.226   6.075 -0.5528 -0.5419 -0.0658
  742TIP3    H123641   0.892   2.184   6.140 -1.9165  1.1588 -0.0353
  742TIP3    H223642   1.001   2.288   6.125 -1.4566  0.6183 -0.4579
  743TIP3   OH223643   4.174   2.392  17.131  0.0704  0.0277 -0.2672
  743TIP3    H123644   4.256   2.440  17.143  1.1397 -1.1284 -2.4339
  743TIP3    H223645   4.161   2.390  17.037 -1.3824 -1.6097 -0.0794
  744TIP3   OH223646   4.403   4.112  11.731  0.1449 -0.0738  0.2403
  744TIP3    H123647   4.423   4.101  11.639 -0.9153 -0.4129  0.0412
  744TIP3    H223648   4.320   4.068  11.744  0.5121 -0.4548  1.4712
  745TIP3   OH223649   1.280   4.749   1.180  0.4239 -0.2891 -0.0009
  745TIP3    H123650   1.243   4.698   1.108  1.3930  0.2116 -0.8745
  745TIP3    H223651   1.216   4.820   1.194 -1.5578 -2.2708  2.0254
  746TIP3   OH223652   5.955   0.046   2.687 -0.2396  0.6155 -0.0466
  746TIP3    H123653   5.937   0.126   2.637  0.4638  0.8033 -0.0054
  746TIP3    H223654   5.924  -0.024   2.630 -1.3744  0.9281  0.1493
  747TIP3   OH223655   5.762   0.702   6.133  0.1302  0.3866 -0.6278
  747TIP3    H123656   5.705   0.726   6.060 -1.3773 -0.0609  0.3738
  747TIP3    H223657   5.793   0.614   6.111 -0.7217  0.0483 -0.4987
  748TIP3   OH223658   4.634   2.784   0.944  0.3254  0.2515  0.0762
  748TIP3    H123659   4.573   2.851   0.976 -0.0647 -0.6114  1.1977
  748TIP3    H223660   4.720   2.816   0.967  0.1471  0.4246  0.5060
  749TIP3   OH223661   1.089   4.833  17.152  0.3536  0.1357 -0.1603
  749TIP3    H123662   1.007   4.875  17.123 -0.2104 -1.5236 -1.1092
  749TIP3    H223663   1.062   4.747  17.183  1.7433 -0.4550 -0.5221
  750TIP3   OH223664   1.154   2.217  16.143 -0.0774 -0.1935  0.3703
  750TIP3    H123665   1.203   2.299  16.146 -0.0652 -0.2143  0.7364
  750TIP3    H223666   1.065   2.243  16.120  0.2857 -0.2367 -1.1845
  751TIP3   OH223667   0.535   4.659  16.950 -0.3635  0.2173  0.2257
  751TIP3    H123668   0.603   4.613  16.902 -0.4376 -1.9324  2.0366
  751TIP3    H223669   0.565   4.750  16.952  1.5567 -0.3518 -0.5327
  752TIP3   OH223670   4.744   4.094  11.332  0.3855 -0.4378  0.7343
  752TIP3    H123671   4.736   4.009  11.288  0.5173  1.1673 -2.7111
  752TIP3    H223672   4.665   4.142  11.307  1.2898  1.1765  0.8474
  753TIP3   OH223673   2.672   2.260   0.894 -0.3019  0.2365  0.0172
  753TIP3    H123674   2.711   2.342   0.862  1.1081  0.0156  1.0827
  753TIP3    H223675   2.738   2.194   0.877 -0.7222 -0.3818  0.7181
  754TIP3   OH223676   0.379   0.294   5.679  0.4046 -0.4680 -0.0555
  754TIP3    H123677   0.446   0.350   5.718  0.1152 -0.2737  0.1668
  754TIP3    H223678   0.332   0.351   5.618 -1.6420  0.3061  2.1136
  755TIP3   OH223679   2.019   5.731   2.417  0.5095  0.7771  0.3335
  755TIP3    H123680   1.949   5.739   2.481 -0.6634  0.8011 -0.8964
  755TIP3    H223681   2.022   5.817   2.374  0.6521  0.4909 -0.2422
  756TIP3   OH223682   3.047   5.986  12.635 -0.6215  1.1888 -0.0742
  756TIP3    H123683   3.027   6.080  12.635 -0.3428  1.2482  0.1459
  756TIP3    H223684   3.038   5.960  12.727  2.4138  1.6777  0.4649
  757TIP3   OH223685   2.485   4.255   1.044 -0.1732 -0.0092  0.0420
  757TIP3    H123686   2.472   4.344   1.010  0.2096  0.2379  0.5249
  757TIP3    H223687   2.577   4.254   1.073 -0.5650 -0.0912  1.3759
  758TIP3   OH223688   5.605   3.897  16.234 -0.0825 -0.2348 -0.1115
  758TIP3    H123689   5.673   3.841  16.196 -0.6891  0.1368 -1.7859
  758TIP3    H223690   5.584   3.854  16.317  0.7482 -1.4962 -0.5171
  759TIP3   OH223691   0.135   6.449  12.794 -0.3829 -0.5102  0.1286
  759TIP3    H123692   0.070   6.513  12.825 -0.7858 -1.5306  1.4485
  759TIP3    H223693   0.218   6.481  12.830 -0.1821  0.5122 -1.1393
  760TIP3   OH223694   5.650   2.944   4.975  0.4716 -0.1873  0.1348
  760TIP3    H123695   5.736   2.971   4.941  0.3137 -0.3199 -0.3849
  760TIP3    H223696   5.640   2.854   4.943 -0.2826  0.1586 -0.6353
  761TIP3   OH223697   6.326   4.339   0.428  0.0684 -0.1704 -0.3758
  761TIP3    H123698   6.295   4.275   0.364  0.0126 -0.5153 -0.0089
  761TIP3    H223699   6.397   4.296   0.474  2.9316  1.4706 -2.8702
  762TIP3   OH223700   5.148   5.524  14.554  0.1262 -0.1166 -0.2869
  762TIP3    H123701   5.142   5.536  14.460 -0.9220 -0.1939 -0.2374
  762TIP3    H223702   5.170   5.611  14.588 -0.8479  0.2172 -0.4917
  763TIP3   OH223703   0.136   3.381   3.979  0.0551  0.1601 -0.1608
  763TIP3    H123704   0.086   3.455   3.944 -1.1361 -1.9498 -3.3935
  763TIP3    H223705   0.071   3.328   4.026 -0.0303 -0.7253 -1.2188
  764TIP3   OH223706   2.828   2.261  16.497  0.1062  0.0228 -0.1558
  764TIP3    H123707   2.772   2.301  16.563  0.2803  2.5193 -1.4017
  764TIP3    H223708   2.881   2.199  16.546 -0.9145  0.5601  1.7529
  765TIP3   OH223709   6.206   6.214  14.786 -0.6472  0.1956 -0.1097
  765TIP3    H123710   6.197   6.171  14.701  0.9559  0.0804 -0.2452
  765TIP3    H223711   6.238   6.302  14.766  1.4583 -0.3881  0.3986
  766TIP3   OH223712   2.398   0.548  15.284 -0.1346 -0.0736 -0.3990
  766TIP3    H123713   2.321   0.525  15.335 -2.4775  1.4590 -2.9553
  766TIP3    H223714   2.439   0.620  15.332 -1.5264  0.4765  0.0062
  767TIP3   OH223715   3.593   4.930  12.979 -0.1128 -0.0748  0.5872
  767TIP3    H123716   3.507   4.889  12.969 -1.1551  1.0449  3.7236
  767TIP3    H223717   3.574   5.015  13.021  2.4970  0.0630  1.6578
  768TIP3   OH223718   6.527   0.818   0.995 -0.0089 -0.0579 -0.9484
  768TIP3    H123719   6.475   0.798   0.918 -0.5721 -0.8071 -0.3936
  768TIP3    H223720   6.533   0.735   1.042 -0.6365  0.5991  0.3675
  769TIP3   OH223721   2.698   5.067  16.426 -0.1282  0.5129  0.0511
  769TIP3    H123722   2.686   5.138  16.364  1.3467 -0.7883 -1.8629
  769TIP3    H223723   2.786   5.081  16.461  0.1296 -0.2990 -0.2613
  770TIP3   OH223724   2.140   4.997   2.669 -0.2986  0.1387 -0.5589
  770TIP3    H123725   2.224   4.954   2.684 -1.0097 -0.6195  1.5775
  770TIP3    H223726   2.121   4.981   2.577  2.0989  0.7436 -1.2319
  771TIP3   OH223727   0.545   4.624  12.956  0.6073  0.1523  0.6697
  771TIP3    H123728   0.527   4.534  12.929  0.3734  0.1064  0.9798
  771TIP3    H223729   0.608   4.657  12.891  0.6542 -0.2174  0.5299
  772TIP3   OH223730   1.800   6.112  16.677 -0.3469 -0.2022 -0.8933
  772TIP3    H123731   1.786   6.207  16.677 -0.3535 -0.1840  0.3947
  772TIP3    H223732   1.743   6.080  16.747  0.8221 -0.9787 -0.2804
  773TIP3   OH223733   3.022   3.000  12.014  0.7670 -0.5047 -0.6107
  773TIP3    H123734   3.100   3.044  12.047 -0.6075  1.8694 -0.3479
  773TIP3    H223735   3.050   2.909  12.000  3.8472  0.4740 -1.5304
  774TIP3   OH223736   1.090   5.047  16.206 -0.6519 -0.0264 -0.3358
  774TIP3    H123737   1.043   5.104  16.145 -1.0807 -0.8268 -0.7860
  774TIP3    H223738   1.175   5.088  16.218 -0.2371 -0.2665 -2.1513
  775TIP3   OH223739   0.349   2.438  11.291 -0.5628  0.2882  0.1803
  775TIP3    H123740   0.271   2.417  11.342 -0.7133  0.2461 -0.0660
  775TIP3    H223741   0.324   2.421  11.200  0.0686 -0.7698  0.1817
  776TIP3   OH223742   0.383   6.645  15.511  0.0184 -0.4573  0.5158
  776TIP3    H123743   0.396   6.666  15.603  0.0418 -0.5337  0.5301
  776TIP3    H223744   0.396   6.728  15.466  0.1656 -0.4513  0.5667
  777TIP3   OH223745   2.707   5.325   1.825 -0.0086 -0.3292 -1.0907
  777TIP3    H123746   2.783   5.295   1.775  0.4594 -0.1743 -0.4871
  777TIP3    H223747   2.636   5.326   1.762 -0.3044 -3.5603 -1.0127
  778TIP3   OH223748   6.750   3.862   5.924 -0.2279  0.0187  0.7067
  778TIP3    H123749   6.722   3.771   5.936  0.9447 -0.5726 -0.6912
  778TIP3    H223750   6.830   3.869   5.976  0.0961  0.0129  0.2178
  779TIP3   OH223751   2.202   0.019  13.781  0.0836  0.4322 -0.7812
  779TIP3    H123752   2.250   0.094  13.818 -0.3438  0.3858 -0.1057
  779TIP3    H223753   2.112   0.032  13.810 -0.5059  0.9804 -2.7631
  780TIP3   OH223754   4.577   6.275   3.339  0.5761  0.1327 -0.1003
  780TIP3    H123755   4.552   6.367   3.347  1.9730  0.5879 -0.7393
  780TIP3    H223756   4.669   6.272   3.368  0.7104 -0.9672 -0.5786
  781TIP3   OH223757   6.589   2.799  15.264 -0.1888 -0.7525  0.0313
  781TIP3    H123758   6.516   2.858  15.282  0.0349 -0.4705  0.0186
  781TIP3    H223759   6.602   2.806  15.169  1.7969  1.5210  0.3751
  782TIP3   OH223760   4.134   0.376   4.620  0.0233 -0.0272 -0.3692
  782TIP3    H123761   4.145   0.292   4.663 -0.7178  0.5756  1.0876
  782TIP3    H223762   4.156   0.441   4.688 -3.0521  0.9978 -0.2028
  783TIP3   OH223763   6.370   6.337   5.942 -0.0655  0.0872 -0.2278
  783TIP3    H123764   6.296   6.285   5.910  1.5324 -1.4432 -1.6597
  783TIP3    H223765   6.336   6.382   6.019 -2.7144  0.1162 -1.2976
  784TIP3   OH223766   0.673   0.878   4.203 -0.1409  0.2030 -0.0714
  784TIP3    H123767   0.668   0.831   4.120 -0.0195  0.2444 -0.1033
  784TIP3    H223768   0.690   0.969   4.178 -0.0942  0.2135 -0.0014
  785TIP3   OH223769   2.606   3.001  17.086 -0.1868 -0.2239  0.5229
  785TIP3    H123770   2.699   2.990  17.068  0.0436  0.1003  1.4763
  785TIP3    H223771   2.582   3.083  17.043  0.2198  0.2459  1.1829
  786TIP3   OH223772   2.635   5.428  17.087  0.2462  0.3055  0.3538
  786TIP3    H123773   2.615   5.411  17.179  0.7316  0.9332  0.5827
  786TIP3    H223774   2.594   5.512  17.068  0.2095  0.2134  0.0176
  787TIP3   OH223775   5.581   4.321  11.277 -0.0139  0.5135 -0.7261
  787TIP3    H123776   5.584   4.415  11.291  0.7142  0.4335 -0.2627
  787TIP3    H223777   5.488   4.299  11.279 -0.1709  1.1740 -0.5065
  788TIP3   OH223778   3.010   3.166   5.392 -0.5174 -0.0044 -0.3074
  788TIP3    H123779   3.054   3.210   5.464 -0.5959  1.0369 -0.8790
  788TIP3    H223780   2.921   3.151   5.423 -0.6599  0.7939 -0.3303
  789TIP3   OH223781   3.435   1.310   2.196  0.5585  0.4979  0.0716
  789TIP3    H123782   3.458   1.341   2.108  1.9876  0.5797  0.4419
  789TIP3    H223783   3.365   1.246   2.181  2.4623 -1.4187 -1.4360
  790TIP3   OH223784   6.185   4.583   5.003  0.2232 -0.5272 -0.4441
  790TIP3    H123785   6.219   4.656   5.056 -0.1114  0.3756 -1.4422
  790TIP3    H223786   6.167   4.514   5.067 -1.8457  1.1276  0.8915
  791TIP3   OH223787   6.727   0.259   2.931  0.1782 -0.2981  0.7211
  791TIP3    H123788   6.697   0.265   3.022  0.0134  0.9051  0.6059
  791TIP3    H223789   6.735   0.350   2.902  0.3589 -0.6589 -0.4318
  792TIP3   OH223790   3.644   4.230  11.430  0.2342  0.0006 -0.2618
  792TIP3    H123791   3.689   4.309  11.401  0.6071  0.1027  0.5738
  792TIP3    H223792   3.563   4.228  11.379  0.0683  1.1041 -0.0539
  793TIP3   OH223793   1.405   0.543   0.951 -0.2689 -0.8415  0.4259
  793TIP3    H123794   1.424   0.555   1.044  1.1656 -0.6357  0.1250
  793TIP3    H223795   1.461   0.471   0.924  0.3994  0.0375 -0.5961
  794TIP3   OH223796   5.831   3.709  11.992  0.1450 -0.3909 -0.3879
  794TIP3    H123797   5.890   3.680  11.923  0.0861 -1.1696 -0.1265
  794TIP3    H223798   5.873   3.786  12.029 -0.7094  1.1561 -2.4716
  795TIP3   OH223799   3.626   5.897  12.128  0.2064  0.5190  0.8235
  795TIP3    H123800   3.684   5.873  12.056 -1.5728  0.4457 -0.6737
  795TIP3    H223801   3.667   5.973  12.168 -0.0385  2.3449 -2.0680
  796TIP3   OH223802   1.533   0.295   5.194 -0.3525 -0.0966 -0.2085
  796TIP3    H123803   1.443   0.305   5.224 -0.7052  0.6866 -1.4637
  796TIP3    H223804   1.553   0.376   5.147  0.5889 -0.7528 -0.9948
  797TIP3   OH223805   3.764   3.350   3.650 -0.3115  0.0809 -0.1272
  797TIP3    H123806   3.698   3.284   3.667 -0.0873  0.0029  0.4650
  797TIP3    H223807   3.833   3.305   3.601 -1.2974  0.4792 -1.9784
  798TIP3   OH223808   2.676   4.981   0.091  0.1057 -0.8955 -0.0462
  798TIP3    H123809   2.666   4.978  -0.004  1.7703 -0.4325 -0.2739
  798TIP3    H223810   2.759   5.028   0.104  0.5266 -2.0273  1.5899
  799TIP3   OH223811   0.528   0.889  14.677  0.4343 -0.2424  0.0848
  799TIP3    H123812   0.508   0.938  14.757  0.0967  0.5303 -0.4619
  799TIP3    H223813   0.588   0.945  14.629 -0.3961 -0.0959 -0.8065
  800TIP3   OH223814   4.847   6.352  13.248 -0.2794  0.4121 -0.2287
  800TIP3    H123815   4.763   6.319  13.282  0.3242  0.2567  1.1790
  800TIP3    H223816   4.860   6.436  13.293 -0.0022  0.7666 -0.9558
  801TIP3   OH223817   5.729   6.193  15.899 -0.1213 -0.4574  0.1167
  801TIP3    H123818   5.744   6.210  15.806 -0.8600 -2.5515 -0.4333
  801TIP3    H223819   5.667   6.261  15.925 -0.2877 -0.1321 -1.0354
  802TIP3   OH223820   5.137   6.477   6.696 -0.3892 -0.2444 -0.3995
  802TIP3    H123821   5.177   6.513   6.775 -1.2059 -1.6111  0.6670
  802TIP3    H223822   5.207   6.428   6.653  0.0239  0.4031 -0.4801
  803TIP3   OH223823   3.705   2.509   5.161 -0.1284 -0.5638 -0.5331
  803TIP3    H123824   3.675   2.581   5.217 -0.7718 -2.6835  2.0570
  803TIP3    H223825   3.629   2.489   5.107 -0.3146 -0.0382 -0.4784
  804TIP3   OH223826   2.361   3.563  12.606  0.0684 -0.9960  0.0489
  804TIP3    H123827   2.373   3.638  12.548  1.7417 -0.4649  1.0083
  804TIP3    H223828   2.266   3.559  12.621 -0.0064  1.4011  0.5777
  805TIP3   OH223829   2.396   2.602   5.722 -0.2351 -0.5214  0.9616
  805TIP3    H123830   2.388   2.644   5.808  0.5858 -0.3647  0.9784
  805TIP3    H223831   2.380   2.672   5.659  0.0829 -0.4130  0.9950
  806TIP3   OH223832   1.743   2.587   4.509  0.0013 -0.0662 -0.7340
  806TIP3    H123833   1.662   2.567   4.557  0.6089  0.2653  0.4672
  806TIP3    H223834   1.727   2.674   4.472 -0.4282 -0.2674 -1.0259
  807TIP3   OH223835   2.900   5.200   3.522  0.1409  0.2601  0.0143
  807TIP3    H123836   2.905   5.279   3.467  1.9811  0.8200  0.9216
  807TIP3    H223837   2.980   5.202   3.575 -0.2841 -1.6777  0.8141
  808TIP3   OH223838   2.658   6.625  13.511  0.8073 -0.8055 -0.0815
  808TIP3    H123839   2.688   6.709  13.476 -0.1742  0.3489  1.6787
  808TIP3    H223840   2.574   6.610  13.467  0.3442 -0.1649  0.5572
  809TIP3   OH223841   5.331   3.103  15.397 -0.4570  0.7146 -0.2541
  809TIP3    H123842   5.364   3.068  15.315 -0.6400  2.0544 -0.9276
  809TIP3    H223843   5.236   3.101  15.388 -0.5885 -1.4715  0.9689
  810TIP3   OH223844   1.610   5.892   6.161 -0.1496 -0.7619  0.0950
  810TIP3    H123845   1.571   5.861   6.243  0.6941  1.2217  1.3441
  810TIP3    H223846   1.537   5.894   6.099 -1.3454 -0.1441  1.4599
  811TIP3   OH223847   5.356   4.788  12.623 -0.1598 -0.0839 -0.4111
  811TIP3    H123848   5.374   4.719  12.559 -0.3222 -1.5658  1.0730
  811TIP3    H223849   5.360   4.743  12.708 -1.5142  1.4848  0.5286
  812TIP3   OH223850   1.153   0.760   1.003  0.3665  0.2198 -0.2732
  812TIP3    H123851   1.192   0.846   0.988  0.1421  0.7748  1.9883
  812TIP3    H223852   1.076   0.759   0.947  1.0103  1.0088 -1.2045
  813TIP3   OH223853   1.594   4.146  14.467 -0.3196 -0.5924 -0.7073
  813TIP3    H123854   1.654   4.217  14.490 -0.6253  0.3034 -2.5026
  813TIP3    H223855   1.506   4.184  14.479 -0.5076 -1.0846 -0.4979
  814TIP3   OH223856   0.842   0.761   5.264 -0.6588  0.0250  0.1266
  814TIP3    H123857   0.797   0.818   5.327 -2.5566 -1.5453  0.2872
  814TIP3    H223858   0.772   0.712   5.222  0.7162 -0.3335 -1.8989
  815TIP3   OH223859   2.586   5.086  12.667  0.0622 -0.9230  0.8534
  815TIP3    H123860   2.577   4.992  12.654  0.9423 -0.9797  0.6074
  815TIP3    H223861   2.681   5.101  12.671 -0.0560  0.0104  0.4350
  816TIP3   OH223862   6.281   0.063  12.036 -0.3030 -0.3273 -0.3849
  816TIP3    H123863   6.210   0.124  12.054 -1.0983 -1.0588 -0.9072
  816TIP3    H223864   6.271  -0.006  12.101 -0.0493 -0.4142 -0.4343
  817TIP3   OH223865   4.077   2.235   1.670 -0.1442  0.6456 -0.1444
  817TIP3    H123866   4.124   2.295   1.728 -1.2711  1.9048 -0.4740
  817TIP3    H223867   4.076   2.152   1.717  1.4537  0.8660  0.3318
  818TIP3   OH223868   1.367   3.008   4.349 -0.5601 -0.2191  0.4086
  818TIP3    H123869   1.313   2.967   4.282 -1.4766 -2.5295  2.4043
  818TIP3    H223870   1.308   3.018   4.424  0.5717  1.7422  1.1065
  819TIP3   OH223871   0.815   2.257  13.429  0.3916 -0.3946 -0.3683
  819TIP3    H123872   0.767   2.191  13.479  1.3140 -0.8404 -0.0481
  819TIP3    H223873   0.861   2.207  13.362  0.2451  0.0481 -0.7985
  820TIP3   OH223874   2.086   4.041   1.270 -0.7363  0.3731  0.1005
  820TIP3    H123875   2.039   3.972   1.318 -0.1647 -0.3463 -0.3416
  820TIP3    H223876   2.018   4.092   1.227 -1.2080  0.5161  1.0034
  821TIP3   OH223877   5.165   5.332  13.420  0.1535 -0.0964 -0.4699
  821TIP3    H123878   5.209   5.249  13.441 -1.5707 -0.7924  0.5619
  821TIP3    H223879   5.190   5.391  13.492 -0.2445 -0.3623 -0.1090
  822TIP3   OH223880   3.893   4.000   4.964 -0.4493  0.5943 -0.5008
  822TIP3    H123881   3.947   3.981   4.887  0.1187  1.1430 -0.2541
  822TIP3    H223882   3.806   4.019   4.928 -0.5460 -0.5288 -0.8873
  823TIP3   OH223883   2.670   5.923   4.479 -0.1860 -0.3766 -0.2312
  823TIP3    H123884   2.729   5.941   4.553 -1.5277  2.3169  0.3010
  823TIP3    H223885   2.610   5.857   4.512  0.2933 -0.4626  0.4920
  824TIP3   OH223886   1.198   1.180   3.699  0.1759  0.1632 -0.3822
  824TIP3    H123887   1.261   1.242   3.664  0.5261 -0.1539 -0.3254
  824TIP3    H223888   1.252   1.109   3.734 -0.2152 -0.1469 -0.4040
  825TIP3   OH223889   5.576   5.346  17.046  0.6932 -0.9015 -0.0238
  825TIP3    H123890   5.622   5.423  17.079 -0.1842 -0.2408 -0.2827
  825TIP3    H223891   5.562   5.364  16.953  2.1765 -2.2546 -0.5510
  826TIP3   OH223892   3.628   4.353   2.082  0.1730 -0.0974  0.4007
  826TIP3    H123893   3.645   4.260   2.070  0.1544  0.0296 -0.6882
  826TIP3    H223894   3.535   4.358   2.105  0.1850 -0.3480  0.5083
  827TIP3   OH223895   1.193   5.062  15.185 -0.0675 -0.1480 -0.1921
  827TIP3    H123896   1.170   4.975  15.153 -1.8154 -0.4013  1.5900
  827TIP3    H223897   1.208   5.049  15.279  0.5093  1.3269 -0.0639
  828TIP3   OH223898   5.698   2.227   3.907  0.3947 -0.0188  0.3374
  828TIP3    H123899   5.724   2.311   3.868  0.1213  0.0965  0.3984
  828TIP3    H223900   5.754   2.163   3.865  1.9402  0.4024  1.6517
  829TIP3   OH223901   3.039   3.518   3.269  0.3494 -0.1848 -0.1148
  829TIP3    H123902   3.055   3.607   3.238  0.6809  0.2045  1.0959
  829TIP3    H223903   3.087   3.514   3.352  0.0401 -1.3795  0.0136
  830TIP3   OH223904   5.624   2.840  11.120 -0.2057  0.3142  0.0249
  830TIP3    H123905   5.617   2.781  11.045  0.8256 -0.0703  0.2221
  830TIP3    H223906   5.693   2.803  11.174  0.7922  1.9277 -0.0707
  831TIP3   OH223907   1.984   2.656   4.377  0.1839  0.0169  0.6027
  831TIP3    H123908   1.966   2.747   4.400  0.9022  0.6909 -1.3705
  831TIP3    H223909   1.899   2.612   4.386 -0.8953  1.5456 -1.4139
  832TIP3   OH223910   4.068   0.310  14.659  0.8633 -0.0811  0.0709
  832TIP3    H123911   4.033   0.377  14.600  1.5261 -0.5849 -0.9268
  832TIP3    H223912   4.076   0.232  14.605 -0.8471 -1.3005  1.4645
  833TIP3   OH223913   0.423   3.427   0.872 -0.1058 -0.1364  0.3324
  833TIP3    H123914   0.339   3.415   0.916  0.0516  0.0999  0.6968
  833TIP3    H223915   0.435   3.522   0.869 -2.1724  0.2437 -4.0374
  834TIP3   OH223916   4.353   0.313   0.440 -0.1571 -0.2872 -0.9267
  834TIP3    H123917   4.446   0.317   0.465 -0.0509  0.7071 -1.4511
  834TIP3    H223918   4.308   0.362   0.508 -0.4004 -1.4401 -0.2429
  835TIP3   OH223919   3.763   2.113   4.468  0.5985  0.1515 -0.1048
  835TIP3    H123920   3.707   2.054   4.418 -0.0725 -1.0847  1.9683
  835TIP3    H223921   3.835   2.133   4.409  0.1770 -1.7287 -1.3516
  836TIP3   OH223922   2.817   0.545  16.773  0.0078 -0.0365  0.1051
  836TIP3    H123923   2.742   0.487  16.782  0.7001 -0.8257  0.8557
  836TIP3    H223924   2.812   0.576  16.682 -0.5948 -0.9524 -0.1878
  837TIP3   OH223925   3.418   5.049  15.350  0.0637  0.8793 -0.3642
  837TIP3    H123926   3.423   4.953  15.346 -2.2694  0.6752  0.0268
  837TIP3    H223927   3.485   5.074  15.413  2.2795 -0.2357 -2.0940
  838TIP3   OH223928   1.120   6.752   4.893  0.0684 -0.3319 -0.0168
  838TIP3    H123929   1.190   6.697   4.857  0.1436 -0.8208  0.8561
  838TIP3    H223930   1.069   6.779   4.816  2.1611  1.3989 -0.8946
  839TIP3   OH223931   1.056   3.085   6.515  0.0916  0.1444  0.1062
  839TIP3    H123932   1.147   3.060   6.497  0.1286  0.0874  0.3681
  839TIP3    H223933   1.051   3.176   6.484 -0.1524 -0.2961 -1.1952
  840TIP3   OH223934   5.314   6.687   4.308  0.2442 -0.1032  0.2211
  840TIP3    H123935   5.220   6.701   4.318  0.1065 -1.5029  1.0734
  840TIP3    H223936   5.354   6.745   4.373 -0.1954 -1.6541  1.9398
  841TIP3   OH223937   1.868   0.114  14.997  0.4781  0.1463  0.2462
  841TIP3    H123938   1.904   0.035  15.038  2.5872 -1.4954 -4.0425
  841TIP3    H223939   1.808   0.080  14.930 -1.5257  2.4577  0.7456
  842TIP3   OH223940   0.846   4.648   4.531  0.1500  0.6373 -0.2033
  842TIP3    H123941   0.887   4.727   4.563  0.9747 -0.3787  1.3464
  842TIP3    H223942   0.753   4.659   4.550  0.6497 -0.1575  3.2670
  843TIP3   OH223943   0.877   1.474  12.214 -0.0005 -0.2742 -0.2145
  843TIP3    H123944   0.786   1.495  12.234 -0.1022  1.3311 -2.0685
  843TIP3    H223945   0.926   1.553  12.238  0.7482 -0.7364 -0.2024
  844TIP3   OH223946   2.104   0.568   1.557 -0.5474  0.0470 -0.1246
  844TIP3    H123947   2.048   0.506   1.603  0.3303 -0.5210  0.2040
  844TIP3    H223948   2.134   0.629   1.625 -0.4574  0.1140 -0.2236
  845TIP3   OH223949   2.720   1.592  14.790 -0.2641 -0.4438  0.1391
  845TIP3    H123950   2.814   1.611  14.791  0.0425 -1.8918  0.2121
  845TIP3    H223951   2.686   1.635  14.869 -0.0451  1.7867 -0.9162
  846TIP3   OH223952   0.727   3.056   3.208 -0.3166 -0.4038  0.6547
  846TIP3    H123953   0.651   3.073   3.264  1.1386  1.6878  2.1504
  846TIP3    H223954   0.753   3.143   3.176 -0.0784 -1.3630 -1.9913
  847TIP3   OH223955   2.516   2.293   3.321 -0.7733 -0.1082 -0.0780
  847TIP3    H123956   2.568   2.362   3.361 -3.0463  1.0489  1.0475
  847TIP3    H223957   2.552   2.284   3.233  1.2685  0.6206  0.6226
  848TIP3   OH223958   3.812   2.994   3.366  0.1362  0.3770  0.7517
  848TIP3    H123959   3.782   3.048   3.439 -2.5800 -0.0014  0.0385
  848TIP3    H223960   3.739   2.995   3.303  0.1994 -3.4072  0.3415
  849TIP3   OH223961   0.218   6.038  13.925 -0.3457  0.0091  0.1028
  849TIP3    H123962   0.200   6.058  13.833 -2.9885  0.4754  0.6296
  849TIP3    H223963   0.185   5.949  13.938 -1.3253  0.4613  0.8800
  850TIP3   OH223964   5.195   3.684   6.413  0.0246 -0.0707 -0.0820
  850TIP3    H123965   5.248   3.647   6.483 -0.9734 -1.3817  0.0122
  850TIP3    H223966   5.106   3.686   6.449 -0.1572  1.2442 -0.5574
  851TIP3   OH223967   1.535   5.205   1.860 -0.2963 -0.3486 -0.2488
  851TIP3    H123968   1.551   5.266   1.788 -0.5249  0.3764  0.3126
  851TIP3    H223969   1.595   5.232   1.929 -0.1783 -0.9554 -0.1080
  852TIP3   OH223970   1.896   6.169  10.896 -0.2596  0.0510 -0.4986
  852TIP3    H123971   1.879   6.092  10.841 -0.6889 -1.0151  1.0515
  852TIP3    H223972   1.847   6.240  10.854  0.3827 -0.4231 -2.1287
  853TIP3   OH223973   1.623   4.023  12.529  0.1398 -1.6346 -0.4244
  853TIP3    H123974   1.661   3.938  12.552  4.1581  0.0202 -0.0503
  853TIP3    H223975   1.667   4.085  12.587 -1.4045  0.9179 -1.7931
  854TIP3   OH223976   1.065   2.037  16.726 -0.4305 -0.2008  0.2696
  854TIP3    H123977   1.057   2.002  16.815  0.2475  0.1120  0.4600
  854TIP3    H223978   1.157   2.026  16.704 -0.4035  0.5655 -0.0369
  855TIP3   OH223979   0.546   0.845   2.406 -0.0573  0.0792 -0.2902
  855TIP3    H123980   0.487   0.901   2.356  1.1272  1.4933 -0.1876
  855TIP3    H223981   0.607   0.810   2.340 -0.6228 -0.9040 -0.3127
  856TIP3   OH223982   3.355   3.323   2.140 -0.2831 -0.1425 -0.3027
  856TIP3    H123983   3.356   3.292   2.231  0.8768 -0.2338 -0.3204
  856TIP3    H223984   3.308   3.406   2.143  0.5384  0.3092  0.5544
  857TIP3   OH223985   3.026   3.853   2.964  0.2278 -0.0937 -0.8191
  857TIP3    H123986   2.987   3.778   2.921  0.6025  0.5170 -2.3006
  857TIP3    H223987   2.955   3.916   2.972  0.2195 -0.1050 -0.8037
  858TIP3   OH223988   4.765   0.625  14.373  0.1277  0.3818  0.1018
  858TIP3    H123989   4.771   0.655  14.463 -1.1008 -0.1677  0.3898
  858TIP3    H223990   4.714   0.692  14.328 -1.4313 -0.5137  0.4319
  859TIP3   OH223991   2.969   6.323   0.041 -0.0329 -0.0013  0.1006
  859TIP3    H123992   2.876   6.298   0.039 -0.3297  0.9749  0.5776
  859TIP3    H223993   2.983   6.350   0.132  0.8085 -0.4434  0.1034
  860TIP3   OH223994   5.817   1.425  15.418 -0.4791 -0.0979  0.4757
  860TIP3    H123995   5.810   1.502  15.362  0.7788 -1.4031 -1.6443
  860TIP3    H223996   5.865   1.455  15.495  2.5247  0.7905 -1.5306
  861TIP3   OH223997   1.124   2.012  10.857 -0.4668 -1.0371  0.3903
  861TIP3    H123998   1.060   1.962  10.908 -2.7027 -0.9089 -2.0433
  861TIP3    H223999   1.079   2.095  10.837  1.4179  0.0772  0.5535
  862TIP3   OH224000   6.201   1.253  16.782  0.4748  0.5088  0.5751
  862TIP3    H124001   6.283   1.300  16.800  0.4654 -0.1248  2.5769
  862TIP3    H224002   6.197   1.186  16.850 -0.8340 -0.6641 -0.5915
  863TIP3   OH224003   5.310   0.815   4.969 -0.3126  0.3424 -0.4918
  863TIP3    H124004   5.246   0.764   4.920  0.9433  1.0415 -3.0042
  863TIP3    H224005   5.257   0.868   5.029 -1.8392 -1.3519 -0.2658
  864TIP3   OH224006   0.906   3.939  13.501  0.5529  0.0884 -0.4772
  864TIP3    H124007   0.976   3.933  13.566 -1.5094  0.4244  1.8776
  864TIP3    H224008   0.885   3.848  13.481 -1.0639 -0.1651  1.9857
  865TIP3   OH224009   3.234   3.887  13.706 -0.0664 -0.0309  0.1037
  865TIP3    H124010   3.180   3.838  13.644 -0.2911  0.2678  0.0660
  865TIP3    H224011   3.316   3.837  13.710  1.5023  1.8795 -3.3278
  866TIP3   OH224012   2.623   4.260  16.887 -0.4497 -0.7290  0.1179
  866TIP3    H124013   2.609   4.305  16.804 -1.1372 -2.0420 -0.5115
  866TIP3    H224014   2.710   4.288  16.916  0.5040 -1.4753 -1.8508
  867TIP3   OH224015   6.419   5.476  11.629 -0.4173  0.2229  0.0702
  867TIP3    H124016   6.499   5.529  11.631  1.6838 -2.5910 -1.8228
  867TIP3    H224017   6.386   5.486  11.540 -0.0576 -1.4246 -0.2769
  868TIP3   OH224018   4.722   2.247   5.136  0.1574 -0.1791  0.4389
  868TIP3    H124019   4.702   2.319   5.196  0.4019  0.4148 -0.1837
  868TIP3    H224020   4.636   2.216   5.106  0.0357 -0.4543  1.0615
  869TIP3   OH224021   3.903   0.735   5.597  0.0316  0.2447  0.3353
  869TIP3    H124022   3.900   0.666   5.664  0.6874 -1.8020 -1.6366
  869TIP3    H224023   3.996   0.744   5.575  0.0677  2.4575  1.1700
  870TIP3   OH224024   4.289   4.896   5.028 -0.3901 -0.2560  0.6138
  870TIP3    H124025   4.376   4.933   5.045 -1.1014  0.6854  2.5148
  870TIP3    H224026   4.294   4.807   5.063 -0.2822 -0.0774  1.0659
  871TIP3   OH224027   5.688   1.540  10.969 -0.1294  0.4879 -0.0944
  871TIP3    H124028   5.724   1.456  10.996  0.3352  0.4304 -0.8406
  871TIP3    H224029   5.641   1.521  10.888  1.2188  1.1690 -1.0794
  872TIP3   OH224030   0.220   3.519  12.976 -0.2354  0.9379 -0.3969
  872TIP3    H124031   0.234   3.434  13.020  0.7600 -0.7648 -3.6903
  872TIP3    H224032   0.232   3.583  13.046 -0.0117 -1.5561  2.0697
  873TIP3   OH224033   1.403   4.707  14.575  0.8469 -0.1376  0.0935
  873TIP3    H124034   1.445   4.760  14.642  1.1030 -0.9085  0.5581
  873TIP3    H224035   1.310   4.709  14.597  0.5977  1.6718 -1.0062
  874TIP3   OH224036   4.553   2.740   3.298  0.0868 -0.4904 -0.0429
  874TIP3    H124037   4.573   2.756   3.206  0.4415  0.0927  0.1320
  874TIP3    H224038   4.593   2.813   3.345 -1.0762 -0.1600  0.4748
  875TIP3   OH224039   5.016   4.474  14.931 -0.2338 -0.2731  0.3771
  875TIP3    H124040   4.987   4.393  14.972 -0.0441  0.1678  1.3986
  875TIP3    H224041   5.060   4.445  14.850  0.0634 -1.2053  0.8565
  876TIP3   OH224042   2.715   1.020   1.006 -0.1712 -0.0562  0.0947
  876TIP3    H124043   2.775   1.091   0.984  0.6379 -0.7732 -0.0858
  876TIP3    H224044   2.712   0.967   0.926 -0.6280 -0.3251  0.2874
  877TIP3   OH224045   6.398   0.884  13.227 -0.7216 -0.1032 -0.0228
  877TIP3    H124046   6.374   0.895  13.135  1.0960 -1.0595 -0.6600
  877TIP3    H224047   6.327   0.832  13.264 -1.5783  0.4657 -0.8019
  878TIP3   OH224048   5.815   3.274  17.134  0.0195 -0.7032  0.5859
  878TIP3    H124049   5.828   3.239  17.046 -0.5254  0.6958 -0.0775
  878TIP3    H224050   5.897   3.255  17.180  0.3363 -1.3813 -0.2305
  879TIP3   OH224051   4.991   2.378  12.514  0.3083 -0.8060  0.4740
  879TIP3    H124052   5.021   2.453  12.463 -1.4516 -0.1933  0.2677
  879TIP3    H224053   4.927   2.334  12.457 -1.3199 -0.4046  1.8909
  880TIP3   OH224054   2.179   3.149  15.482  0.6374 -0.6428 -0.0608
  880TIP3    H124055   2.085   3.147  15.464  0.6485 -0.3771 -0.1572
  880TIP3    H224056   2.198   3.241  15.500  0.9588 -0.6205 -0.4860
  881TIP3   OH224057   3.880   2.798  12.959  0.7743  0.2672 -0.3752
  881TIP3    H124058   3.963   2.840  12.979  0.4384  0.6008  0.3807
  881TIP3    H224059   3.897   2.704  12.969  0.7960  0.3865  0.9022
  882TIP3   OH224060   5.943   6.332  16.163 -0.1407 -0.2062 -0.8374
  882TIP3    H124061   5.873   6.281  16.203 -1.3892  0.9180 -1.5139
  882TIP3    H224062   5.899   6.409  16.125  1.4831  0.6639 -1.0648
  883TIP3   OH224063   5.829   0.571  13.409  0.5261  0.0978 -0.5356
  883TIP3    H124064   5.780   0.640  13.452 -0.8984 -0.0555 -1.8272
  883TIP3    H224065   5.920   0.587  13.434 -0.1908  0.0902  2.3321
  884TIP3   OH224066   0.709   5.960   0.538 -0.4834  0.0589  0.3747
  884TIP3    H124067   0.663   5.921   0.464 -0.4585  0.2861  0.2379
  884TIP3    H224068   0.647   5.957   0.610 -1.4410  2.1651 -0.3088
  885TIP3   OH224069   5.464   5.415   5.082 -0.5708 -0.2797  0.2204
  885TIP3    H124070   5.429   5.416   5.171 -0.8384  1.5674  0.1348
  885TIP3    H224071   5.412   5.480   5.035 -0.8724 -1.6762 -1.4938
  886TIP3   OH224072   1.467   3.249  15.043 -0.2555 -0.4268  0.4865
  886TIP3    H124073   1.535   3.188  15.071  0.1058 -0.5609 -0.6326
  886TIP3    H224074   1.460   3.311  15.115  2.7266  0.9844 -0.2762
  887TIP3   OH224075   4.888   0.601   0.976  0.0167  0.0261  0.5778
  887TIP3    H124076   4.862   0.534   0.912  1.5075 -0.2161  0.1632
  887TIP3    H224077   4.878   0.558   1.061  2.7821 -1.5263  0.2544
  888TIP3   OH224078   0.867   0.090   4.379 -0.0184 -0.0914 -0.3481
  888TIP3    H124079   0.960   0.115   4.382 -0.1579  0.3498  1.1649
  888TIP3    H224080   0.825   0.161   4.331  0.5296 -0.7267 -1.8296
  889TIP3   OH224081   5.422   0.377   4.867 -0.4734 -0.3988 -0.4702
  889TIP3    H124082   5.506   0.339   4.842  0.5899  0.1045  2.1373
  889TIP3    H224083   5.418   0.460   4.819  0.9359 -0.0242  0.0055
  890TIP3   OH224084   0.425   0.970   0.272 -0.2969 -0.4753 -0.2802
  890TIP3    H124085   0.438   0.880   0.303 -0.5901 -0.4772 -0.1628
  890TIP3    H224086   0.424   0.962   0.177 -0.4677 -0.6170 -0.2675
  891TIP3   OH224087   5.401   4.474   5.579 -0.4212  0.9044 -0.8477
  891TIP3    H124088   5.398   4.379   5.587  0.7480  0.8428 -0.9729
  891TIP3    H224089   5.378   4.507   5.666  0.3435  0.4762 -0.4735
  892TIP3   OH224090   1.455   1.397  15.241  1.0664 -0.4513  0.4523
  892TIP3    H124091   1.547   1.406  15.267  1.0069  1.5664  0.0988
  892TIP3    H224092   1.409   1.372  15.322  1.6741  0.2510  1.0200
  893TIP3   OH224093   6.605   1.540  13.009 -0.1684 -0.0416  0.3598
  893TIP3    H124094   6.583   1.448  12.993 -1.5858  0.1931  0.8369
  893TIP3    H224095   6.700   1.544  12.995 -0.2432 -1.3298 -0.8248
  894TIP3   OH224096   5.251   5.451   3.781 -0.3610 -0.1090 -0.0416
  894TIP3    H124097   5.174   5.401   3.755 -0.6373  0.0622  0.4244
  894TIP3    H224098   5.320   5.385   3.793 -0.3985 -0.2463 -0.5934
  895TIP3   OH224099   4.062   3.282  14.922  0.6795 -0.1450 -0.8099
  895TIP3    H124100   4.157   3.288  14.932  0.4510  2.0320  0.7738
  895TIP3    H224101   4.034   3.228  14.995  0.4203  2.6466  1.3058
  896TIP3   OH224102   4.015   3.125   2.691  0.2078  0.1297 -0.1360
  896TIP3    H124103   3.943   3.182   2.665 -0.6982 -0.8786  0.0907
  896TIP3    H224104   4.031   3.147   2.783 -0.0648  0.0897 -0.0791
  897TIP3   OH224105   0.652   2.357   0.410  0.4001  0.5342 -0.2342
  897TIP3    H124106   0.727   2.414   0.398 -0.7480  2.6284  1.6987
  897TIP3    H224107   0.683   2.286   0.466  1.5451 -0.1455 -1.6728
  898TIP3   OH224108   5.648   2.992   4.678  0.2021  0.0769 -0.0345
  898TIP3    H124109   5.711   3.054   4.713 -0.8666 -0.3464  2.8927
  898TIP3    H224110   5.660   2.913   4.730 -3.3517  0.3188  1.4153
  899TIP3   OH224111   2.733   1.512   5.059 -0.5299 -0.2310 -0.1269
  899TIP3    H124112   2.779   1.445   5.111  0.3441  0.0191 -0.5570
  899TIP3    H224113   2.666   1.464   5.012 -0.5773 -0.6437  0.3516
  900TIP3   OH224114   2.384   2.316  13.536 -0.5414 -0.2200 -0.0175
  900TIP3    H124115   2.440   2.273  13.601 -1.6310 -1.8113 -0.0783
  900TIP3    H224116   2.343   2.244  13.488 -1.1288  0.9194 -1.2985
  901TIP3   OH224117   2.215   5.915   3.869  0.1349 -0.1314  0.2101
  901TIP3    H124118   2.216   5.854   3.795 -0.8999 -0.9466  0.8216
  901TIP3    H224119   2.201   5.859   3.945  0.6094  0.7470  0.9589
  902TIP3   OH224120   4.924   2.329   5.466  0.1573 -0.1142  0.0888
  902TIP3    H124121   4.857   2.370   5.412  0.9261  0.8470 -0.1736
  902TIP3    H224122   4.876   2.277   5.530 -0.8711  1.2353  0.4537
  903TIP3   OH224123   3.091   0.736   2.256  0.1194  0.1453 -0.4235
  903TIP3    H124124   3.147   0.710   2.183 -1.0491  0.0593 -1.3140
  903TIP3    H224125   3.072   0.654   2.301  1.9339  0.3562  0.8213
  904TIP3   OH224126   0.548   2.597   4.102 -0.4527 -0.2419  0.4727
  904TIP3    H124127   0.547   2.508   4.138 -0.7111 -0.0934  0.8269
  904TIP3    H224128   0.485   2.594   4.031 -0.8448 -0.2009  0.8185
  905TIP3   OH224129   6.648   1.152  12.056 -0.1224  0.5705 -0.3747
  905TIP3    H124130   6.599   1.076  12.022  0.2471  0.4909 -0.7411
  905TIP3    H224131   6.689   1.120  12.136  0.6033  0.1679 -0.8986
  906TIP3   OH224132   6.553   5.498  14.579  0.2918 -0.0109  0.3493
  906TIP3    H124133   6.536   5.559  14.650  1.3952 -0.8126  1.3315
  906TIP3    H224134   6.558   5.412  14.621  0.8243 -0.5198 -0.7060
  907TIP3   OH224135   5.315   6.596   1.643  0.5651  0.0212 -0.3139
  907TIP3    H124136   5.286   6.568   1.730 -1.0375  0.8280 -0.5411
  907TIP3    H224137   5.383   6.661   1.661  0.1087  0.3292  0.3578
  908TIP3   OH224138   1.873   4.675   5.278  0.2822  0.1466 -0.6263
  908TIP3    H124139   1.941   4.691   5.343 -1.0343  0.7947  0.6514
  908TIP3    H224140   1.849   4.762   5.246 -0.8260  0.0600 -0.0933
  909TIP3   OH224141   1.477   4.387  11.452  0.2844  0.4502  0.7078
  909TIP3    H124142   1.492   4.422  11.540  0.0028  0.6723  0.6674
  909TIP3    H224143   1.388   4.413  11.430  0.3272  0.3317  0.3842
  910TIP3   OH224144   4.702   3.863   5.430  0.2719  0.2923 -0.3852
  910TIP3    H124145   4.631   3.799   5.440 -0.0859  0.5865 -0.9550
  910TIP3    H224146   4.741   3.870   5.517 -0.7210  0.4878  0.0536
  911TIP3   OH224147   3.240   4.975  10.758  1.0298  0.2383  0.1065
  911TIP3    H124148   3.151   4.943  10.772  1.5311 -0.5885  1.7369
  911TIP3    H224149   3.233   5.038  10.686 -0.8840  0.2984  0.3085
  912TIP3   OH224150   6.514   3.569   3.636 -0.0822 -0.3639 -0.1451
  912TIP3    H124151   6.574   3.632   3.675  0.3644 -1.0941  0.3955
  912TIP3    H224152   6.435   3.619   3.616  0.1491  0.3001  0.5506
  913TIP3   OH224153   3.250   2.353   4.168 -0.2333 -0.0640 -0.3773
  913TIP3    H124154   3.274   2.292   4.238 -1.4306 -0.8473 -0.6233
  913TIP3    H224155   3.215   2.429   4.213 -1.3700 -0.7254 -0.1054
  914TIP3   OH224156   5.016   4.260   1.144  0.3365 -0.1947 -0.6821
  914TIP3    H124157   5.028   4.176   1.188  0.2347 -0.4952 -1.2258
  914TIP3    H224158   5.018   4.239   1.051  0.0053  0.3631 -0.8180
  915TIP3   OH224159   2.087   1.460  15.461 -0.1713  0.0395  0.1898
  915TIP3    H124160   2.047   1.533  15.415 -0.4819 -0.1037  0.2318
  915TIP3    H224161   2.181   1.472  15.449 -0.1822  0.8966  0.8852
  916TIP3   OH224162   2.602   4.464   5.897  0.2655 -0.0303 -0.9541
  916TIP3    H124163   2.617   4.434   5.987 -1.6534  1.5264 -0.0413
  916TIP3    H224164   2.686   4.498   5.869  1.3795 -2.1836 -0.4751
  917TIP3   OH224165   2.914   4.954  17.082 -0.1823  0.4004 -0.6688
  917TIP3    H124166   2.840   4.993  17.129 -0.0564  0.1407 -0.2513
  917TIP3    H224167   2.941   4.881  17.138 -0.8221 -0.6874 -1.7288
  918TIP3   OH224168   3.240   3.027  15.189 -0.4134  0.0833  0.1031
  918TIP3    H124169   3.169   2.962  15.189  0.1271 -0.5571  1.7337
  918TIP3    H224170   3.240   3.063  15.277  0.5509  0.9102 -0.2147
  919TIP3   OH224171   0.155   1.534  14.928  0.6134  0.1366  0.5170
  919TIP3    H124172   0.231   1.584  14.900  1.4822 -0.2829  2.0051
  919TIP3    H224173   0.098   1.599  14.971 -0.7200  0.7791 -2.0142
  920TIP3   OH224174   3.952   0.803   3.183  0.2206  0.7672 -0.3503
  920TIP3    H124175   4.014   0.774   3.249  0.9012 -1.4923 -1.8894
  920TIP3    H224176   3.868   0.767   3.212 -0.2252  2.7527  1.0523
  921TIP3   OH224177   2.888   1.115  14.994  0.1319  0.4463  0.0711
  921TIP3    H124178   2.877   1.096  15.087 -1.0719  3.1161  0.5679
  921TIP3    H224179   2.812   1.074  14.952  0.3053 -0.1619  0.3372
  922TIP3   OH224180   3.854   6.123   0.507 -0.4094  0.1070 -0.1489
  922TIP3    H124181   3.827   6.170   0.428 -0.8371 -0.8158 -0.5674
  922TIP3    H224182   3.926   6.175   0.542 -1.3250  1.4479 -0.2061
  923TIP3   OH224183   2.790   0.815  17.091 -0.5143  0.5616  0.8339
  923TIP3    H124184   2.713   0.861  17.125 -0.3028  1.2489  0.3879
  923TIP3    H224185   2.819   0.867  17.016  0.4612  0.3816  1.0714
  924TIP3   OH224186   5.852   2.258   0.223 -0.0306 -0.8431 -0.2210
  924TIP3    H124187   5.932   2.234   0.177 -0.3901 -1.7398 -0.3974
  924TIP3    H224188   5.852   2.203   0.302  0.4601  0.5025  0.7423
  925TIP3   OH224189   1.594   0.606   2.866 -0.3313 -0.3785 -0.3611
  925TIP3    H124190   1.637   0.545   2.806 -0.7216  0.2559 -1.3123
  925TIP3    H224191   1.583   0.686   2.815 -1.1332  0.0123  0.3941
  926TIP3   OH224192   6.167   5.327   1.241  0.1913  0.0965  0.8525
  926TIP3    H124193   6.116   5.286   1.311 -0.4935 -0.4353  0.0588
  926TIP3    H224194   6.167   5.262   1.171  1.3157  0.4081  0.5488
  927TIP3   OH224195   4.004   1.800   0.256 -0.4325 -0.3439  0.2993
  927TIP3    H124196   3.935   1.803   0.190 -0.2148  0.7984  0.1105
  927TIP3    H224197   3.958   1.809   0.339 -0.5431  0.0802  0.1931
  928TIP3   OH224198   5.694   3.412   2.967 -0.1969  0.4080  0.0639
  928TIP3    H124199   5.699   3.460   3.049 -1.4324 -1.9721  1.6537
  928TIP3    H224200   5.601   3.418   2.941  0.0892  0.7607 -0.9478
  929TIP3   OH224201   1.057   1.492  11.933  0.1464 -0.4720  0.0039
  929TIP3    H124202   0.961   1.490  11.936 -0.0159  2.6462  0.3846
  929TIP3    H224203   1.079   1.473  11.842 -0.9975  0.9934 -0.6021
  930TIP3   OH224204   5.865   1.830  12.496  0.6669 -0.4906 -0.6133
  930TIP3    H124205   5.900   1.747  12.465  0.1763 -0.6357 -0.7974
  930TIP3    H224206   5.846   1.816  12.589 -0.3564 -0.9178 -0.8707
  931TIP3   OH224207   3.312   3.842   4.437  0.3376  0.1484  0.0483
  931TIP3    H124208   3.323   3.767   4.379  0.0171  0.7057 -0.7538
  931TIP3    H224209   3.381   3.833   4.502 -0.4961 -1.5462  0.7552
  932TIP3   OH224210   0.772   6.734  13.804 -0.2679  0.0145 -0.0206
  932TIP3    H124211   0.716   6.728  13.881 -1.2483  0.8691 -0.6269
  932TIP3    H224212   0.748   6.658  13.750  0.2353 -0.4433  0.4034
  933TIP3   OH224213   0.512   1.427   5.705 -0.2453 -0.1636 -0.0599
  933TIP3    H124214   0.572   1.371   5.655  0.0765 -0.0232  0.1692
  933TIP3    H224215   0.478   1.370   5.774 -0.5781 -0.3159 -0.3387
  934TIP3   OH224216   3.898   3.390  11.327  0.7495  0.4786  0.1651
  934TIP3    H124217   3.853   3.469  11.357  1.5354  0.5948  1.0976
  934TIP3    H224218   3.895   3.331  11.402  0.0500 -0.4470 -0.5705
  935TIP3   OH224219   2.429   2.811  12.685 -0.3721 -0.0028  0.1331
  935TIP3    H124220   2.375   2.736  12.658  0.1539 -0.0347 -0.8656
  935TIP3    H224221   2.441   2.862  12.605  0.7532  0.2118  0.4242
  936TIP3   OH224222   1.860   1.289  11.154 -0.0696 -0.4210  1.2142
  936TIP3    H124223   1.891   1.306  11.065  0.7092 -1.5749  1.2478
  936TIP3    H224224   1.888   1.365  11.205  1.1878 -0.6432  0.8721
  937TIP3   OH224225   1.040   1.340   1.524 -0.0652 -0.0245  0.0550
  937TIP3    H124226   1.028   1.362   1.616  0.6913 -0.3565  0.2429
  937TIP3    H224227   1.004   1.415   1.476  1.3839  1.1229  0.6633
  938TIP3   OH224228   2.069   5.403   4.648 -0.4698  0.3861 -0.3975
  938TIP3    H124229   2.100   5.319   4.681  0.8989  0.6347 -1.0068
  938TIP3    H224230   2.124   5.422   4.572 -0.0556  2.3255  0.3218
  939TIP3   OH224231   4.916   4.147  10.976 -0.3713  0.0771 -0.3017
  939TIP3    H124232   4.995   4.183  11.017 -0.8696  0.5941  0.2294
  939TIP3    H224233   4.870   4.224  10.942  0.2662 -0.3616 -2.3312
  940TIP3   OH224234   0.331   4.341  15.410 -0.3586 -0.2544 -0.1514
  940TIP3    H124235   0.324   4.399  15.486 -0.9237 -1.1838  0.5293
  940TIP3    H224236   0.274   4.381  15.344 -0.7653 -0.0512  0.3173
  941TIP3   OH224237   4.630   5.728   4.057 -0.5656 -0.5293  0.1031
  941TIP3    H124238   4.535   5.733   4.073 -0.1854  1.0502  2.4642
  941TIP3    H224239   4.638   5.726   3.962 -2.9665 -0.8808 -0.1605
  942TIP3   OH224240   0.402   0.624  15.321  0.1844  0.1753  0.1130
  942TIP3    H124241   0.464   0.672  15.376  1.2041 -0.4343 -0.4969
  942TIP3    H224242   0.326   0.683  15.315  0.4897  0.7298  1.2464
  943TIP3   OH224243   2.397   5.429   6.679  0.3453  0.5896 -0.2101
  943TIP3    H124244   2.304   5.452   6.677  0.2266  0.1286 -0.2170
  943TIP3    H224245   2.410   5.392   6.766  0.5860  0.8934 -0.1142
  944TIP3   OH224246   5.266   3.855  11.312 -0.6643  0.0742  0.3117
  944TIP3    H124247   5.187   3.905  11.334  1.0179  2.1276  2.2714
  944TIP3    H224248   5.316   3.914  11.256 -0.5091 -1.2233 -0.9611
  945TIP3   OH224249   5.150   2.842   3.301 -0.0397 -0.0669 -0.1141
  945TIP3    H124250   5.241   2.819   3.280  0.6227  0.0503  2.2747
  945TIP3    H224251   5.144   2.935   3.279  1.0405  0.4035  1.4172
  946TIP3   OH224252   6.616   6.178   4.243 -0.6672 -0.7294  0.6514
  946TIP3    H124253   6.651   6.131   4.166 -0.5423  1.1744 -0.5131
  946TIP3    H224254   6.552   6.117   4.280  0.0054 -2.1238 -0.3436
  947TIP3   OH224255   6.641   6.652  15.658 -0.0930  0.0009 -0.2749
  947TIP3    H124256   6.713   6.627  15.600  0.5496  1.9011 -0.3831
  947TIP3    H224257   6.618   6.741  15.630 -0.1050  0.7876  2.0456
  948TIP3   OH224258   2.453   1.415  12.686 -0.0402  0.0174  0.2382
  948TIP3    H124259   2.502   1.333  12.695  1.5826  0.9067 -0.0283
  948TIP3    H224260   2.410   1.407  12.601  1.5582  0.1351 -0.6260
  949TIP3   OH224261   0.400   3.544  14.970 -0.2616  0.4567 -0.5056
  949TIP3    H124262   0.456   3.619  14.951  0.0894 -0.0041 -1.3129
  949TIP3    H224263   0.408   3.532  15.065 -1.7136  2.5205 -0.0578
  950TIP3   OH224264   6.626   1.524  11.558  0.0042  0.2300  0.0103
  950TIP3    H124265   6.570   1.568  11.622  1.0757  1.1073  0.3570
  950TIP3    H224266   6.640   1.588  11.489  0.2662 -0.1205 -0.2689
  951TIP3   OH224267   5.500   5.756  11.488  0.1178 -0.6306 -0.6325
  951TIP3    H124268   5.450   5.835  11.508 -3.1549 -3.0142  1.8765
  951TIP3    H224269   5.513   5.714  11.573  2.6798 -2.3533 -1.7408
  952TIP3   OH224270   2.958   5.801  12.062 -0.1809  0.4100  0.0511
  952TIP3    H124271   2.998   5.823  11.978  1.4348 -0.0288  0.6515
  952TIP3    H224272   3.027   5.755  12.110 -1.8464 -1.5669  0.7081
  953TIP3   OH224273   4.994   3.963  11.317  0.9190  0.0967  0.1161
  953TIP3    H124274   4.980   3.928  11.229  1.9804  0.6663 -0.3003
  953TIP3    H224275   4.921   4.023  11.331  0.3656 -0.5072 -0.0823
  954TIP3   OH224276   1.948   4.434   4.077  0.7462 -0.2887  0.6681
  954TIP3    H124277   1.984   4.362   4.024  1.6105  0.4931  0.1516
  954TIP3    H224278   1.893   4.391   4.142 -0.4277 -1.2910 -0.9041
  955TIP3   OH224279   1.909   3.326  10.658 -0.0059  0.0223 -0.6654
  955TIP3    H124280   1.952   3.313  10.743 -0.7345  1.3634 -0.0606
  955TIP3    H224281   1.939   3.412  10.629 -1.1937  0.3786 -0.8876
  956TIP3   OH224282   3.997   4.059   5.668 -0.2610  0.6306 -0.4112
  956TIP3    H124283   3.970   3.987   5.612 -2.0004  0.9544 -0.0295
  956TIP3    H224284   3.959   4.039   5.753  1.9484  0.3858  0.5892
  957TIP3   OH224285   6.336   1.818  14.090  0.4354 -0.2428  0.0577
  957TIP3    H124286   6.338   1.737  14.140  0.3429 -0.6820 -0.6238
  957TIP3    H224287   6.300   1.792  14.005 -0.7857  0.7534  0.2538
  958TIP3   OH224288   1.759   4.851  12.608  0.3636  0.3498 -0.3223
  958TIP3    H124289   1.844   4.881  12.578  0.9974 -1.3560 -0.3470
  958TIP3    H224290   1.763   4.755  12.601 -1.6990  0.2420 -0.7232
  959TIP3   OH224291   4.018   6.625   5.974 -0.1372  0.1903 -0.0250
  959TIP3    H124292   4.062   6.688   5.917 -1.4899  2.2717  1.1369
  959TIP3    H224293   4.074   6.620   6.052 -1.0862  1.6762  0.8006
  960TIP3   OH224294   0.146   4.474   4.280 -0.4185  0.0659 -0.0886
  960TIP3    H124295   0.105   4.546   4.328 -1.1128 -0.2950 -0.1372
  960TIP3    H224296   0.235   4.470   4.315 -0.6133  0.4429  0.4674
  961TIP3   OH224297   5.814   5.607   2.628  0.4960  0.0184 -0.1237
  961TIP3    H124298   5.757   5.629   2.701 -3.1001 -0.7687 -2.4319
  961TIP3    H224299   5.856   5.690   2.604  0.7112  0.5416  1.9050
  962TIP3   OH224300   3.628   3.746  14.151 -0.4494  0.5909 -0.0933
  962TIP3    H124301   3.536   3.726  14.165 -0.1152 -0.7060  0.3390
  962TIP3    H224302   3.632   3.842  14.150 -1.7808  0.6562 -0.0495
  963TIP3   OH224303   5.266   4.457  12.947  0.3460  0.0616 -0.7413
  963TIP3    H124304   5.268   4.414  12.861  1.7500 -0.6025 -0.4049
  963TIP3    H224305   5.282   4.549  12.928  0.7743 -0.0994 -1.1920
  964TIP3   OH224306   5.081   5.482  16.576 -0.0904  0.4561  0.0763
  964TIP3    H124307   5.109   5.430  16.651 -0.4682  0.1880  0.0381
  964TIP3    H224308   5.157   5.484  16.518  0.1848  0.6177  0.4411
  965TIP3   OH224309   3.815   3.080   6.042 -0.6190  0.1439 -0.2010
  965TIP3    H124310   3.891   3.128   6.010 -0.9313  1.2130  0.6194
  965TIP3    H224311   3.799   3.014   5.975  2.4122 -1.6656  0.6303
  966TIP3   OH224312   0.112   5.840  15.600 -0.3155 -0.2862 -0.3396
  966TIP3    H124313   0.087   5.771  15.661  0.1075  0.3685  0.6058
  966TIP3    H224314   0.185   5.803  15.550 -1.8735 -1.5201 -1.8170
  967TIP3   OH224315   4.216   0.820   5.580 -0.6207 -0.3575 -0.1629
  967TIP3    H124316   4.297   0.798   5.534 -1.2518 -2.4084 -0.4018
  967TIP3    H224317   4.243   0.880   5.649  1.0190 -0.5500 -0.5956
  968TIP3   OH224318   5.654   1.034  15.906 -1.0663 -0.2473 -0.1904
  968TIP3    H124319   5.743   0.998  15.902 -0.7471  0.4641  0.1698
  968TIP3    H224320   5.650   1.077  15.991 -1.2217  1.0362 -0.8191
  969TIP3   OH224321   4.797   0.403  15.520 -0.2859 -0.6743 -0.2450
  969TIP3    H124322   4.770   0.416  15.429  0.6872 -0.8591 -0.5664
  969TIP3    H224323   4.721   0.364  15.562 -0.9105 -0.1500 -0.8626
  970TIP3   OH224324   3.169   1.262   4.024  0.0149 -0.2026  0.5559
  970TIP3    H124325   3.180   1.208   4.103 -0.8021  2.1856  2.4329
  970TIP3    H224326   3.110   1.332   4.052 -0.6102  0.5286 -2.3415
  971TIP3   OH224327   4.079   1.456   3.609  0.2584  0.3967 -0.0618
  971TIP3    H124328   4.018   1.501   3.550  0.1343 -1.2661 -1.2690
  971TIP3    H224329   4.072   1.505   3.692 -1.8038  0.9938 -0.5167
  972TIP3   OH224330   5.661   4.632  13.902 -0.6489  0.3024 -0.4301
  972TIP3    H124331   5.657   4.725  13.924  0.1953  0.3778 -0.5671
  972TIP3    H224332   5.746   4.603  13.934 -0.0568  0.0534 -2.1429
  973TIP3   OH224333   1.019   2.859  14.348 -0.0192 -0.8127 -0.4966
  973TIP3    H124334   0.933   2.871  14.307  0.3193  0.9185 -0.8079
  973TIP3    H224335   1.078   2.841  14.275 -0.0117 -1.3714 -0.3543
  974TIP3   OH224336   5.122   0.639   4.866  1.2393  0.3217 -0.0456
  974TIP3    H124337   5.175   0.608   4.793  0.8779 -1.1969  0.2807
  974TIP3    H224338   5.045   0.582   4.864  1.0567  0.4923  1.2948
  975TIP3   OH224339   5.804   5.249  11.516  0.0342  0.3046 -0.0893
  975TIP3    H124340   5.719   5.289  11.496 -0.1605 -0.0603 -0.0056
  975TIP3    H224341   5.868   5.313  11.486 -0.2614  0.2909 -0.7737
  976TIP3   OH224342   3.910   3.972   5.952 -0.3396 -0.6687 -0.0685
  976TIP3    H124343   3.899   3.988   6.045  0.7581 -2.5644  0.4508
  976TIP3    H224344   3.839   3.912   5.929 -1.2108  0.5665 -0.7254
  977TIP3   OH224345   6.297   0.547   4.493  0.2238 -0.5538 -0.4515
  977TIP3    H124346   6.254   0.547   4.407 -0.9372 -1.6464  0.1081
  977TIP3    H224347   6.267   0.629   4.534  0.9221  0.0599 -1.1329
  978TIP3   OH224348   1.260   4.515   6.470  0.4936 -0.2368 -0.0864
  978TIP3    H124349   1.194   4.584   6.455  0.8395  0.1127 -0.0177
  978TIP3    H224350   1.289   4.491   6.382  2.5497  1.8395 -0.0920
  979TIP3   OH224351   6.390   6.748  17.013 -0.0599  0.1857 -0.1407
  979TIP3    H124352   6.468   6.749  17.068  0.8519  2.2612 -1.3593
  979TIP3    H224353   6.318   6.729  17.074  1.0994  0.6550  1.4432
  980TIP3   OH224354   3.395   1.143  10.662  0.0846  0.1013  0.4956
  980TIP3    H124355   3.337   1.184  10.726 -0.6453  0.2773 -0.2649
  980TIP3    H224356   3.339   1.082  10.614  0.6063  0.0300 -0.0276
  981TIP3   OH224357   3.516   5.768   0.838  0.2473 -0.6932 -0.8060
  981TIP3    H124358   3.590   5.786   0.781  0.2056  0.0814 -0.6282
  981TIP3    H224359   3.458   5.843   0.827  0.2968 -0.4634  0.3353
  982TIP3   OH224360   4.186   4.145   1.122 -0.5314  0.6212 -0.7002
  982TIP3    H124361   4.181   4.175   1.213  0.7115 -0.6755 -0.1714
  982TIP3    H224362   4.128   4.205   1.075 -1.6804  0.9622  1.0211
  983TIP3   OH224363   2.818   5.220  13.063 -0.4172  0.0884 -0.5098
  983TIP3    H124364   2.854   5.296  13.109  2.2213 -2.4854  2.1908
  983TIP3    H224365   2.876   5.209  12.988 -0.0162  0.0598 -0.2026
  984TIP3   OH224366   6.731   2.680  16.554 -0.1367 -0.0909 -0.1494
  984TIP3    H124367   6.764   2.740  16.488  0.2425 -0.0395  0.0829
  984TIP3    H224368   6.809   2.647  16.598 -0.4184  1.7661  1.9285
  985TIP3   OH224369   5.707   6.186   4.245 -0.4400 -0.5657 -0.0405
  985TIP3    H124370   5.731   6.255   4.183  2.2668 -0.8629  0.5525
  985TIP3    H224371   5.725   6.104   4.198  2.0466 -0.7957  1.1525
  986TIP3   OH224372   3.316   1.260  12.359 -0.1517  0.3382  0.6097
  986TIP3    H124373   3.263   1.226  12.287 -0.4292 -1.1733  1.4851
  986TIP3    H224374   3.388   1.306  12.316  0.2526 -1.3834 -0.6851
  987TIP3   OH224375   6.663   1.011   5.986 -0.3299 -0.0017 -0.7669
  987TIP3    H124376   6.587   1.067   5.974 -0.0665  0.7085  0.5889
  987TIP3    H224377   6.630   0.938   6.038 -0.3043 -0.2080 -1.0432
  988TIP3   OH224378   1.771   5.005   0.794  0.1342  0.5219 -0.7770
  988TIP3    H124379   1.712   5.036   0.724  0.7422  1.7339 -0.7779
  988TIP3    H224380   1.811   5.085   0.828 -1.0971  0.1344  1.8692
  989TIP3   OH224381   3.971   2.525   2.079 -0.0448  0.3014  0.2236
  989TIP3    H124382   3.958   2.516   1.984 -1.0251  0.4565  0.3297
  989TIP3    H224383   3.924   2.450   2.116 -0.8095  0.9878  0.6536
  990TIP3   OH224384   6.285   5.570  16.360  0.5450 -0.2811 -0.3418
  990TIP3    H124385   6.304   5.663  16.348  0.6005  0.0145  1.6741
  990TIP3    H224386   6.240   5.544  16.279  1.5973  1.1786 -1.4498
  991TIP3   OH224387   6.455   2.770  13.814  0.2361  0.1408  0.3170
  991TIP3    H124388   6.413   2.797  13.732  3.4771  0.6645 -1.3073
  991TIP3    H224389   6.506   2.846  13.841  0.9164 -0.7706  1.6744
  992TIP3   OH224390   0.448   2.811   3.764  0.5524  0.0466  0.4973
  992TIP3    H124391   0.437   2.863   3.844 -2.0658 -1.4327  1.2070
  992TIP3    H224392   0.385   2.848   3.702  1.3850  0.1158 -0.3299
  993TIP3   OH224393   1.943   0.657  12.268 -0.4500 -0.1589 -0.0494
  993TIP3    H124394   2.007   0.654  12.197  0.8259  0.0535  1.0472
  993TIP3    H224395   1.962   0.738  12.314 -2.7148  0.8401 -0.7187
  994TIP3   OH224396   0.611   2.804   0.033 -0.4481 -0.3834  0.6734
  994TIP3    H124397   0.584   2.895   0.041  0.3142 -0.1479  0.6309
  994TIP3    H224398   0.553   2.767  -0.033 -0.9876 -0.0255  0.9406
  995TIP3   OH224399   2.624   4.795   4.585 -0.2109  0.0264 -0.4205
  995TIP3    H124400   2.673   4.877   4.594 -0.5965  0.3467 -1.1300
  995TIP3    H224401   2.568   4.809   4.508 -1.0401 -0.5226  0.0657
  996TIP3   OH224402   0.776   3.382   0.284  0.4007  0.1824  0.1747
  996TIP3    H124403   0.782   3.457   0.226 -0.8330 -1.2009 -1.8443
  996TIP3    H224404   0.729   3.414   0.361  0.1910  1.5348 -0.5003
  997TIP3   OH224405   4.422   1.145  13.564  0.5683 -0.1077  0.5524
  997TIP3    H124406   4.501   1.126  13.615  0.7828  0.6173  0.4984
  997TIP3    H224407   4.368   1.067  13.575  1.4653 -0.8014  0.2387
  998TIP3   OH224408   5.473   1.026  10.956 -0.0187  0.6644  0.5621
  998TIP3    H124409   5.491   1.061  10.869  3.3996  2.2531  1.7378
  998TIP3    H224410   5.544   0.964  10.972 -2.9656 -3.0688  0.6867
  999TIP3   OH224411   5.454   3.643  13.994 -0.3620  0.1898 -0.9096
  999TIP3    H124412   5.470   3.616  13.904  0.6800  3.1641 -1.7344
  999TIP3    H224413   5.535   3.687  14.021 -1.5970  1.7339  0.5054
 1000TIP3   OH224414   1.426   3.093  13.122 -0.0044 -0.5871  0.3515
 1000TIP3    H124415   1.432   3.026  13.054 -1.7369 -0.6648  0.2416
 1000TIP3    H224416   1.446   3.175  13.077 -1.3307 -0.6145 -0.3301
 1001TIP3   OH224417   0.914   0.166  12.943  0.1563  0.4695 -0.6831
 1001TIP3    H124418   0.981   0.115  12.987 -0.3125  0.2962 -0.1549
 1001TIP3    H224419   0.886   0.111  12.869 -1.6099 -0.8864  0.8985
 1002TIP3   OH224420   2.650   1.249   5.771 -0.1674  0.1631  0.0863
 1002TIP3    H124421   2.607   1.297   5.700 -0.8435 -1.9528 -1.0160
 1002TIP3    H224422   2.607   1.279   5.851 -2.1289 -0.1984 -0.7857
 1003TIP3   OH224423   1.774   6.052   6.016  0.3391 -0.1644  0.2972
 1003TIP3    H124424   1.736   5.977   6.062  0.5320  1.1820  2.8757
 1003TIP3    H224425   1.702   6.091   5.968 -0.5842 -0.1192  1.6599
 1004TIP3   OH224426   6.334   0.717   5.273 -0.1889 -0.3172 -0.2641
 1004TIP3    H124427   6.411   0.773   5.279 -0.5034  0.3992 -2.1690
 1004TIP3    H224428   6.270   0.757   5.333  0.0325  0.6331 -0.6435
 1005TIP3   OH224429   1.963   0.765   2.546 -0.4758  0.4597  0.0014
 1005TIP3    H124430   1.873   0.731   2.538 -1.1349  2.1172 -0.1261
 1005TIP3    H224431   1.951   0.857   2.571  1.1680  1.0361 -1.1949
 1006TIP3   OH224432   1.126   1.870  12.713  0.3565  0.1584 -0.4307
 1006TIP3    H124433   1.212   1.854  12.752 -0.6973  0.0150  2.0115
 1006TIP3    H224434   1.084   1.931  12.772 -2.1468 -1.6993 -0.1288
 1007TIP3   OH224435   5.527   0.915   6.762 -0.0315  0.0711  0.0443
 1007TIP3    H124436   5.563   0.831   6.790  0.4754  0.0871 -0.5424
 1007TIP3    H224437   5.480   0.947   6.839 -0.0956 -0.6700  0.3295
 1008TIP3   OH224438   3.812   4.176  13.605  0.4240  0.5096  0.3572
 1008TIP3    H124439   3.769   4.244  13.656  1.6607  1.0431  0.7203
 1008TIP3    H224440   3.896   4.162  13.648  1.4436  0.8620 -1.3900
 1009TIP3   OH224441   4.282   2.449  16.714 -0.5872 -0.0550  0.2096
 1009TIP3    H124442   4.363   2.471  16.759 -1.0166  1.4275  0.3307
 1009TIP3    H224443   4.305   2.451  16.621  0.2227 -2.7967  0.2833
 1010TIP3   OH224444   3.177   4.991  17.204  0.5674 -0.1382  0.1121
 1010TIP3    H124445   3.135   4.906  17.212 -1.3563  0.7038 -0.4405
 1010TIP3    H224446   3.250   4.977  17.144 -0.6773 -1.0804 -1.2405
 1011TIP3   OH224447   6.670   0.251   1.196  0.2217 -0.2044  0.3158
 1011TIP3    H124448   6.756   0.226   1.229  0.2976  0.1074  0.3596
 1011TIP3    H224449   6.629   0.168   1.171  0.5742 -0.3477  0.1975
 1012TIP3   OH224450   4.009   6.095   4.848 -0.3585 -0.1379 -0.0258
 1012TIP3    H124451   3.965   6.179   4.860 -0.4007  0.0798 -1.5993
 1012TIP3    H224452   3.956   6.033   4.898 -2.0756  0.2334 -1.3285
 1013TIP3   OH224453   2.456   1.798  16.423 -0.4506 -0.5876 -0.3374
 1013TIP3    H124454   2.471   1.834  16.510 -1.4613 -0.3263 -0.2657
 1013TIP3    H224455   2.418   1.870  16.373 -2.6316 -1.5315 -0.1496
 1014TIP3   OH224456   0.920   2.860   3.450 -0.2695 -0.1307 -0.0774
 1014TIP3    H124457   0.985   2.795   3.477 -0.0169  0.3195  0.4009
 1014TIP3    H224458   0.909   2.844   3.356  0.3486 -0.3695 -0.1122
 1015TIP3   OH224459   4.109   5.765   2.945  0.2964  0.3527 -0.0635
 1015TIP3    H124460   4.164   5.713   2.886 -0.2194 -0.0235 -0.2172
 1015TIP3    H224461   4.105   5.851   2.903  2.3130  0.9892  0.9019
 1016TIP3   OH224462   5.652   5.698  14.416  0.1854 -0.0837 -0.5804
 1016TIP3    H124463   5.594   5.741  14.353  0.9540 -1.8836 -2.6577
 1016TIP3    H224464   5.729   5.756  14.421 -1.3952  2.0318  1.7755
 1017TIP3   OH224465   0.571   0.658   4.718 -0.3786  0.6627  0.2607
 1017TIP3    H124466   0.633   0.702   4.777 -0.1735  1.5967 -0.6155
 1017TIP3    H224467   0.573   0.566   4.745  0.7531  0.8303  0.8049
 1018TIP3   OH224468   0.262   0.738   3.629  0.0242 -0.8794 -0.1856
 1018TIP3    H124469   0.254   0.828   3.661 -0.3430 -1.4469  1.4018
 1018TIP3    H224470   0.300   0.747   3.541 -1.6204  0.9023 -0.7806
 1019TIP3   OH224471   6.416   4.594  14.800  0.1646  0.7681 -0.2032
 1019TIP3    H124472   6.352   4.576  14.869  0.5889 -0.9313 -0.1953
 1019TIP3    H224473   6.365   4.592  14.719  0.2640 -1.4776 -0.2852
 1020TIP3   OH224474   2.596   3.205  14.873 -0.1919  0.5639  0.4052
 1020TIP3    H124475   2.531   3.136  14.889  1.4095 -0.7242  1.8250
 1020TIP3    H224476   2.620   3.194  14.781  0.5884 -1.3310  0.7954
 1021TIP3   OH224477   1.514   6.598   3.315 -0.3114 -0.0378  0.7382
 1021TIP3    H124478   1.421   6.614   3.303  0.3214  2.4155 -2.5436
 1021TIP3    H224479   1.537   6.536   3.245  0.5266 -0.6974  1.5737
 1022TIP3   OH224480   2.980   2.253  12.925 -0.1129  0.1713 -0.3688
 1022TIP3    H124481   2.899   2.220  12.962 -0.3759  1.8235  0.6692
 1022TIP3    H224482   3.028   2.175  12.897 -0.0041 -1.2672  3.2406
 1023TIP3   OH224483   2.409   5.020  15.082 -0.1327  0.1330  0.0773
 1023TIP3    H124484   2.408   4.933  15.122  0.4164  0.0110 -0.1630
 1023TIP3    H224485   2.502   5.038  15.066 -0.3450  0.0997 -1.3254
 1024TIP3   OH224486   3.475   6.421   4.352 -0.0065  0.0765 -0.0661
 1024TIP3    H124487   3.502   6.358   4.420  0.1587 -0.0564 -0.2541
 1024TIP3    H224488   3.518   6.503   4.377  1.8763 -0.5023 -1.2041
 1025TIP3   OH224489   1.768   5.087   3.211 -0.0757  0.1899  0.0467
 1025TIP3    H124490   1.801   5.112   3.124  0.3989  2.0895  0.7355
 1025TIP3    H224491   1.718   5.163   3.241  1.4644  0.3949  2.2869
 1026TIP3   OH224492   6.725   3.074   1.763 -0.1220  0.2842  0.1580
 1026TIP3    H124493   6.772   3.137   1.710 -0.7720  0.3302 -0.3743
 1026TIP3    H224494   6.672   3.126   1.823 -0.2006  0.2346  0.1313
 1027TIP3   OH224495   5.445   1.557   2.723  0.4400  0.4581 -0.1413
 1027TIP3    H124496   5.442   1.568   2.818 -1.3971  0.0153 -0.1180
 1027TIP3    H224497   5.488   1.637   2.691  1.5014  0.4086  1.0575
 1028TIP3   OH224498   4.532   4.738  11.563 -0.0452 -0.2306  0.1595
 1028TIP3    H124499   4.601   4.674  11.582  0.0771 -0.5795 -1.3765
 1028TIP3    H224500   4.451   4.689  11.577  0.0101 -0.1641  0.7810
 1029TIP3   OH224501   2.801   4.554  11.861 -0.9918 -0.0657  0.6384
 1029TIP3    H124502   2.721   4.604  11.878 -1.0287 -0.2386  0.9809
 1029TIP3    H224503   2.771   4.464  11.849 -0.7736 -0.2615  1.5291
 1030TIP3   OH224504   2.077   3.089  13.932  0.2515 -0.1295  0.0758
 1030TIP3    H124505   2.142   3.047  13.989  1.0410  0.9693  0.0265
 1030TIP3    H224506   1.996   3.039  13.947  0.8729 -0.9572  0.8273
 1031TIP3   OH224507   2.274   3.658   1.185 -0.0798 -0.5031  0.3925
 1031TIP3    H124508   2.367   3.679   1.192  0.2127 -1.6534  0.1162
 1031TIP3    H224509   2.230   3.735   1.220  0.9449  0.4756 -0.3723
 1032TIP3   OH224510   0.764   6.207  14.015  0.4637 -0.1615  0.3752
 1032TIP3    H124511   0.817   6.252  14.082 -0.2308 -1.1066  1.6144
 1032TIP3    H224512   0.826   6.186  13.945  1.4443 -0.0352  1.1833
 1033TIP3   OH224513   5.582   2.532  10.994 -0.1409  0.3261  0.0629
 1033TIP3    H124514   5.516   2.579  11.045 -0.3338 -0.9062  0.9834
 1033TIP3    H224515   5.533   2.472  10.939  0.1694 -1.3505  1.5009
 1034TIP3   OH224516   5.925   5.756   4.970 -0.5363  0.0109  0.0360
 1034TIP3    H124517   6.018   5.766   4.954 -0.3170  0.1110  1.2525
 1034TIP3    H224518   5.888   5.731   4.886  0.4340  0.9722 -0.6997
 1035TIP3   OH224519   3.202   1.745  14.651 -0.5938  0.1144 -0.0425
 1035TIP3    H124520   3.239   1.819  14.698  0.3980  0.0140 -0.6434
 1035TIP3    H224521   3.201   1.772  14.559 -0.6064 -0.4591 -0.2144
 1036TIP3   OH224522   4.364   2.695  14.241 -0.0997  0.9603  0.4113
 1036TIP3    H124523   4.393   2.751  14.169 -1.1699  0.4999 -0.4037
 1036TIP3    H224524   4.441   2.645  14.265 -0.3076 -0.9088 -2.3235
 1037TIP3   OH224525   6.497   5.788   3.911 -0.4040  0.1463 -0.8221
 1037TIP3    H124526   6.586   5.755   3.894  0.4897  2.4696 -1.0693
 1037TIP3    H224527   6.457   5.792   3.824 -0.6690 -0.6487 -0.7421
 1038TIP3   OH224528   6.103   3.667   5.790 -0.4067  0.6034  0.1560
 1038TIP3    H124529   6.186   3.621   5.794 -0.7105  0.0554  0.2868
 1038TIP3    H224530   6.119   3.749   5.836 -0.4412 -0.2927  1.8539
 1039TIP3   OH224531   2.064   5.479  16.743 -0.0222 -0.2546 -1.1180
 1039TIP3    H124532   2.143   5.514  16.702 -0.0868  0.9472 -0.2711
 1039TIP3    H224533   2.096   5.414  16.806  0.4333  1.2282  0.2411
 1040TIP3   OH224534   3.810   5.220  14.934  0.0200  0.0574 -0.0237
 1040TIP3    H124535   3.824   5.216  14.840  2.3455  2.1242  0.1311
 1040TIP3    H224536   3.870   5.155  14.970 -2.2057 -2.1116  0.0645
 1041TIP3   OH224537   5.275   5.005   2.859  0.2444  0.1200  0.0143
 1041TIP3    H124538   5.220   5.057   2.800  0.2829  0.3595  0.1868
 1041TIP3    H224539   5.282   4.920   2.817  0.0088  0.1907 -0.1703
 1042TIP3   OH224540   3.752   6.309   6.548 -0.5976 -0.0851 -0.6730
 1042TIP3    H124541   3.657   6.316   6.559 -0.9604 -1.1408 -2.6395
 1042TIP3    H224542   3.778   6.391   6.507 -0.9984 -0.5256 -1.8582
 1043TIP3   OH224543   5.627   4.224  15.751 -0.3806 -0.0130  0.3954
 1043TIP3    H124544   5.570   4.198  15.678 -0.2568  0.7422  0.0237
 1043TIP3    H224545   5.628   4.147  15.809 -0.0055 -0.8456 -0.6797
 1044TIP3   OH224546   2.810   3.218  12.256 -0.0426 -0.3423  0.3569
 1044TIP3    H124547   2.905   3.220  12.261 -0.0714 -0.3538  1.2087
 1044TIP3    H224548   2.782   3.219  12.348 -0.8646 -0.1060  0.1114
 1045TIP3   OH224549   0.612   1.210   0.120  0.3167 -0.0078 -0.4715
 1045TIP3    H124550   0.550   1.213   0.193 -0.6407  1.2111 -1.2924
 1045TIP3    H224551   0.692   1.173   0.158 -0.2792  0.2191  1.0869
 1046TIP3   OH224552   0.654   5.707   3.325  0.1496 -0.1232 -0.2041
 1046TIP3    H124553   0.591   5.708   3.253 -0.1808  0.6948  0.0862
 1046TIP3    H224554   0.625   5.776   3.384  1.5487  0.5750 -0.2762
 1047TIP3   OH224555   5.741   5.863  11.837  0.9944 -0.5348 -0.1376
 1047TIP3    H124556   5.676   5.888  11.772 -1.5238 -1.0472  2.0089
 1047TIP3    H224557   5.822   5.904  11.807 -0.7354  1.8863 -1.8966
 1048TIP3   OH224558   5.588   1.502  13.348  0.0385  0.4222  0.2471
 1048TIP3    H124559   5.599   1.495  13.443  0.7135 -1.6976  0.0764
 1048TIP3    H224560   5.674   1.527  13.315  0.0360  0.3062  0.1487
 1049TIP3   OH224561   0.335   3.410   5.353  0.3492  0.2495 -0.3272
 1049TIP3    H124562   0.279   3.342   5.389 -1.1616  1.9370  0.6847
 1049TIP3    H224563   0.349   3.385   5.262  1.4055 -2.3343  0.4625
 1050TIP3   OH224564   6.156   2.674  17.297  0.0767 -0.5645  1.0014
 1050TIP3    H124565   6.146   2.593  17.347 -4.6993  0.4841  2.2995
 1050TIP3    H224566   6.176   2.741  17.362  0.4326 -0.1702  0.4959
 1051TIP3   OH224567   3.818   5.764   2.175 -0.3374 -0.6589  0.5208
 1051TIP3    H124568   3.849   5.848   2.211 -0.0476 -1.0704  1.2403
 1051TIP3    H224569   3.896   5.725   2.136 -0.5817 -0.3668 -0.2911
 1052TIP3   OH224570   2.960   3.258   3.541  0.0209  0.2651  0.0042
 1052TIP3    H124571   2.963   3.195   3.469 -0.0828  2.0892 -1.6795
 1052TIP3    H224572   2.873   3.247   3.579 -0.1280 -0.3295 -0.4966
 1053TIP3   OH224573   0.841   3.787  15.952 -0.1014 -0.3733 -0.8278
 1053TIP3    H124574   0.908   3.736  15.906 -0.5261 -0.6589 -1.1426
 1053TIP3    H224575   0.778   3.722  15.983  0.7715 -0.2988  1.2050
 1054TIP3   OH224576   0.303   6.532  13.673  0.3688  0.5164 -0.4225
 1054TIP3    H124577   0.215   6.507  13.700  0.4397  1.7008  1.0368
 1054TIP3    H224578   0.291   6.613  13.623  0.6342  0.6866 -0.2095
 1055TIP3   OH224579   0.414   4.765  15.785  0.2646 -0.1778  0.9100
 1055TIP3    H124580   0.452   4.765  15.697 -0.5152  2.3478  0.5049
 1055TIP3    H224581   0.364   4.846  15.790  2.0624  0.8940  4.4676
 1056TIP3   OH224582   0.394   4.985   0.650 -0.5833  0.8452 -0.2546
 1056TIP3    H124583   0.413   5.078   0.666  1.4554  0.8093 -2.1131
 1056TIP3    H224584   0.440   4.964   0.569 -0.3136 -2.0248  0.5440
 1057TIP3   OH224585   2.322   4.441   5.945  0.3070 -0.3560  0.3086
 1057TIP3    H124586   2.415   4.464   5.953  0.3590  0.0284 -1.0754
 1057TIP3    H224587   2.282   4.474   6.025  1.2854 -0.1294  0.7224
 1058TIP3   OH224588   4.405   5.345  13.976  0.0075 -0.3240 -0.0797
 1058TIP3    H124589   4.475   5.404  14.002  0.5398 -0.7139 -0.6103
 1058TIP3    H224590   4.381   5.299  14.057 -1.0262  1.2257  0.5378
 1059TIP3   OH224591   6.112   1.714   4.798 -0.9905 -0.6581  0.0285
 1059TIP3    H124592   6.199   1.712   4.757 -1.0353 -1.4070 -0.0525
 1059TIP3    H224593   6.118   1.648   4.867 -1.4725 -0.6515  0.0763
 1060TIP3   OH224594   1.791   5.796   1.630  0.0063 -0.0542  0.0767
 1060TIP3    H124595   1.755   5.714   1.665  0.6111  0.1370  1.1833
 1060TIP3    H224596   1.719   5.859   1.637  0.7331  0.5817  3.1816
 1061TIP3   OH224597   3.974   4.418  14.493  0.2535 -0.3327 -0.4668
 1061TIP3    H124598   3.915   4.439  14.420 -0.1016  0.5344  0.0549
 1061TIP3    H224599   4.009   4.331  14.472 -0.1264 -0.2485 -1.4831
 1062TIP3   OH224600   6.236   4.118   5.109  0.0602 -0.3373  0.0218
 1062TIP3    H124601   6.251   4.173   5.186  0.3402  1.0648 -1.0017
 1062TIP3    H224602   6.141   4.111   5.103  0.0300 -0.2227  0.3260
 1063TIP3   OH224603   6.095   0.471   2.186 -0.0312  0.3926  0.1256
 1063TIP3    H124604   6.066   0.465   2.277  0.8024 -0.1648  0.3681
 1063TIP3    H224605   6.139   0.556   2.181 -0.6816  0.7291  0.0563
 1064TIP3   OH224606   4.902   6.591   4.340  0.0043 -0.4900  0.4788
 1064TIP3    H124607   4.987   6.581   4.383 -0.2174  1.5316  1.5212
 1064TIP3    H224608   4.925   6.617   4.250  0.5257  0.1535  0.7806
 1065TIP3   OH224609   3.299   0.006   2.112 -0.1382 -0.0677 -0.2255
 1065TIP3    H124610   3.379   0.033   2.067  0.4266 -1.0085  0.1835
 1065TIP3    H224611   3.326  -0.008   2.203 -1.1557  1.3223  0.3328
 1066TIP3   OH224612   5.970   0.554  11.542  0.9821 -0.2941  1.1446
 1066TIP3    H124613   5.984   0.459  11.541 -2.1481 -1.0380 -3.1877
 1066TIP3    H224614   5.876   0.563  11.561  1.0035  1.8346  0.4330
 1067TIP3   OH224615   3.909   3.328  13.495 -0.2210  0.4457 -0.6922
 1067TIP3    H124616   3.856   3.272  13.551 -1.6038  0.1620 -2.2109
 1067TIP3    H224617   3.917   3.410  13.545 -0.0279 -0.3260  0.5967
 1068TIP3   OH224618   2.654   6.407   3.904 -0.5993  0.4985 -1.0134
 1068TIP3    H124619   2.611   6.398   3.989 -1.7714  0.8526 -1.5555
 1068TIP3    H224620   2.747   6.400   3.924 -0.7479  2.1853  0.5212
 1069TIP3   OH224621   4.828   6.070   2.848 -0.0471  0.4447 -0.3198
 1069TIP3    H124622   4.776   6.115   2.915 -0.2749 -1.8419  1.1807
 1069TIP3    H224623   4.771   6.066   2.772  0.8003  4.5505 -1.3792
 1070TIP3   OH224624   2.201   0.562  16.409 -0.4119  0.1548  0.3388
 1070TIP3    H124625   2.106   0.553  16.403 -0.3219 -0.1015 -1.2061
 1070TIP3    H224626   2.217   0.655  16.392 -0.4315  0.4359  1.7286
 1071TIP3   OH224627   2.071   0.202   1.044 -0.4531 -0.3554  0.3446
 1071TIP3    H124628   2.133   0.248   1.100  0.3286  0.1440 -0.8811
 1071TIP3    H224629   2.099   0.111   1.046 -0.5886 -0.3874  0.9511
 1072TIP3   OH224630   3.555   0.212  12.645 -0.0080  0.7475  0.0664
 1072TIP3    H124631   3.645   0.210  12.613  0.5000  2.5541  1.2247
 1072TIP3    H224632   3.501   0.200  12.567  1.2176  0.6881 -0.7986
 1073TIP3   OH224633   4.988   5.109  11.892 -0.3054 -0.6913  0.4382
 1073TIP3    H124634   5.052   5.080  11.827 -0.1908 -1.0586  0.7106
 1073TIP3    H224635   4.928   5.166  11.843 -0.1317 -0.8398  0.0474
 1074TIP3   OH224636   1.426   2.161   0.547 -0.1853 -0.1810 -0.4481
 1074TIP3    H124637   1.488   2.219   0.591  0.1713 -1.1301  0.3359
 1074TIP3    H224638   1.481   2.094   0.506 -0.6969 -1.9716  1.6037
 1075TIP3   OH224639   3.866   3.461   2.021 -0.1892  0.3353 -0.0102
 1075TIP3    H124640   3.785   3.427   1.982  0.7446  0.6156 -2.3525
 1075TIP3    H224641   3.856   3.556   2.018  0.1469  0.3679 -0.0955
 1076TIP3   OH224642   1.953   6.128  11.645 -0.0271  0.3383  0.1683
 1076TIP3    H124643   1.918   6.042  11.621  0.5163  0.3538 -0.6939
 1076TIP3    H224644   2.015   6.149  11.576 -2.6367  3.0070 -1.5681
 1077TIP3   OH224645   1.632   0.723  15.826 -0.1173  0.3982 -0.2787
 1077TIP3    H124646   1.614   0.807  15.867 -0.7073  0.5696 -0.8782
 1077TIP3    H224647   1.582   0.660  15.878 -1.1380  0.6583 -0.9192
 1078TIP3   OH224648   4.814   6.305  14.904 -0.1091 -0.3411 -0.6610
 1078TIP3    H124649   4.727   6.289  14.869 -0.1596 -2.2670  0.2335
 1078TIP3    H224650   4.807   6.285  14.998  1.3777 -1.0080 -0.6587
 1079TIP3   OH224651   6.491   1.073   4.261 -0.3610  0.2101 -0.7473
 1079TIP3    H124652   6.578   1.036   4.248 -1.5373 -2.6750 -1.2798
 1079TIP3    H224653   6.433   1.019   4.206 -2.6023  1.5307  0.1495
 1080TIP3   OH224654   4.313   3.735  16.847 -0.0173 -0.4230  0.1754
 1080TIP3    H124655   4.289   3.812  16.795  0.1380 -0.1700  0.4765
 1080TIP3    H224656   4.328   3.769  16.935  2.2376 -0.4284 -0.1492
 1081TIP3   OH224657   4.858   6.471  13.869  0.1422  0.2055  0.2499
 1081TIP3    H124658   4.763   6.455  13.872  0.2948 -0.6793  1.7381
 1081TIP3    H224659   4.870   6.531  13.796 -1.8034  1.8036  1.1176
 1082TIP3   OH224660   2.138   2.894  15.271  0.5663  0.7025 -0.4363
 1082TIP3    H124661   2.142   2.880  15.176  1.0407 -0.2229 -0.2864
 1082TIP3    H224662   2.108   2.985  15.280 -1.1363  0.2970 -1.4536
 1083TIP3   OH224663   3.556   5.858  16.352  0.2240  0.1695 -0.3810
 1083TIP3    H124664   3.480   5.856  16.293 -1.8571  0.5952  2.0860
 1083TIP3    H224665   3.566   5.767  16.380  0.5371  0.1459 -0.5645
 1084TIP3   OH224666   6.620   2.596   3.939 -0.0101  0.1684 -0.6763
 1084TIP3    H124667   6.713   2.580   3.924  0.2144 -0.3623  1.0867
 1084TIP3    H224668   6.611   2.598   4.034 -1.8094  0.2317 -0.8182
 1085TIP3   OH224669   0.977   3.500  15.496  0.4284  0.3369  0.4838
 1085TIP3    H124670   1.053   3.552  15.525  1.1045  0.9037 -2.0586
 1085TIP3    H224671   0.904   3.561  15.499  0.2191  0.0668  1.9708
 1086TIP3   OH224672   4.662   6.692  11.866  0.0129 -0.0833 -0.4930
 1086TIP3    H124673   4.712   6.746  11.927 -2.7771 -0.4040  2.3462
 1086TIP3    H224674   4.697   6.603  11.878  0.7768  0.1617 -0.8602
 1087TIP3   OH224675   5.868   3.915   2.750 -0.0612  0.1558 -0.4405
 1087TIP3    H124676   5.946   3.963   2.720  0.4106 -0.4679 -0.2326
 1087TIP3    H224677   5.831   3.878   2.670 -0.3701  0.7639 -0.5905
 1088TIP3   OH224678   5.949   6.512  14.662  0.1170  0.1052  0.0373
 1088TIP3    H124679   6.041   6.506  14.637 -0.0159  2.2979 -1.2717
 1088TIP3    H224680   5.926   6.424  14.692  2.3089 -0.7896 -0.7286
 1089TIP3   OH224681   3.962   3.512  15.071 -0.1665  0.0142 -0.0562
 1089TIP3    H124682   3.885   3.556  15.036 -0.8898 -0.7858  0.5026
 1089TIP3    H224683   3.959   3.424  15.032  1.5101  0.5326 -1.5290
 1090TIP3   OH224684   2.253   6.507   1.305 -0.1753 -0.3574  0.4565
 1090TIP3    H124685   2.182   6.527   1.244  0.5947  2.0705  0.2501
 1090TIP3    H224686   2.217   6.441   1.364 -2.1167 -0.1821 -0.4782
 1091TIP3   OH224687   4.757   1.072   1.083 -0.1332  0.2228  1.0547
 1091TIP3    H124688   4.681   1.078   1.140 -0.2988  1.4121  0.7315
 1091TIP3    H224689   4.807   0.998   1.117 -0.7673  0.2552  2.0750
 1092TIP3   OH224690   1.810   2.151   0.209  0.1507  0.8746  0.3041
 1092TIP3    H124691   1.762   2.153   0.126  1.4063 -0.5191 -0.5080
 1092TIP3    H224692   1.830   2.059   0.223  1.5119  1.2766  1.2156
 1093TIP3   OH224693   1.163   5.006   0.453  0.1759  0.3151  0.2045
 1093TIP3    H124694   1.227   5.019   0.384  0.2821 -0.3149  0.1778
 1093TIP3    H224695   1.199   4.936   0.507  0.2597  1.0317  1.1052
 1094TIP3   OH224696   0.603   2.382   0.811 -0.2695 -0.4093 -0.0986
 1094TIP3    H124697   0.678   2.433   0.781 -1.0182 -0.8703 -3.0796
 1094TIP3    H224698   0.552   2.443   0.864  0.6138  0.8867 -0.6930
 1095TIP3   OH224699   0.101   2.039  14.588 -0.3368  0.7347  0.2109
 1095TIP3    H124700   0.173   2.063  14.646  0.1022  1.9765 -0.7912
 1095TIP3    H224701   0.059   1.965  14.631  1.5297 -0.0202  0.8288
 1096TIP3   OH224702   3.015   4.124  15.614 -0.0451 -0.6249 -0.0187
 1096TIP3    H124703   3.072   4.189  15.656 -0.9479  0.0954  0.1102
 1096TIP3    H224704   3.061   4.102  15.532 -0.3620  1.2073 -0.7385
 1097TIP3   OH224705   5.077   3.798  15.101 -0.1547 -0.6949  0.3028
 1097TIP3    H124706   5.100   3.820  15.011 -1.3258 -0.5840  0.0100
 1097TIP3    H224707   4.984   3.775  15.097  0.2749 -2.7297  1.1343
 1098TIP3   OH224708   4.334   0.870   4.819  0.0168  0.3671  0.3638
 1098TIP3    H124709   4.375   0.953   4.797  0.9477  0.1461  1.1943
 1098TIP3    H224710   4.253   0.895   4.865 -0.4358  0.7956 -0.6313
 1099TIP3   OH224711   3.411   3.553   3.213 -0.1224 -0.4603  0.4891
 1099TIP3    H124712   3.440   3.611   3.284 -0.3390 -2.0545  1.9315
 1099TIP3    H224713   3.340   3.602   3.170  0.7591  1.0060  0.6160
 1100TIP3   OH224714   2.075   1.798  13.698 -0.2644 -0.1776 -1.0446
 1100TIP3    H124715   2.061   1.892  13.693 -4.2468 -0.4897  0.1191
 1100TIP3    H224716   2.030   1.763  13.621  0.6668 -1.1774 -1.1605
 1101TIP3   OH224717   4.330   3.938  13.194 -0.0990  0.5359 -0.7635
 1101TIP3    H124718   4.251   3.902  13.153 -0.6575  0.2583  0.4978
 1101TIP3    H224719   4.309   4.030  13.209 -0.7944  0.1580  0.8741
 1102TIP3   OH224720   3.007   3.809   4.484  0.4951 -0.1700 -0.1766
 1102TIP3    H124721   2.949   3.754   4.432  0.5764 -1.1131  0.6905
 1102TIP3    H224722   3.067   3.747   4.526  0.3196  0.5282  1.1547
 1103TIP3   OH224723   1.711   0.061  14.607  0.6286  0.2009  0.8809
 1103TIP3    H124724   1.629   0.018  14.584  1.6587 -0.9546 -0.8454
 1103TIP3    H224725   1.685   0.149  14.634 -1.1612 -0.0830  0.2022
 1104TIP3   OH224726   1.401   0.279   3.226  0.7143 -0.6805  0.3124
 1104TIP3    H124727   1.420   0.228   3.304  0.1124  1.6396  2.0957
 1104TIP3    H224728   1.369   0.363   3.259 -0.0751  0.2282 -2.4460
 1105TIP3   OH224729   1.168   0.723   1.787  0.2767  0.0304 -0.3201
 1105TIP3    H124730   1.086   0.760   1.819  0.1994 -1.1839  1.0291
 1105TIP3    H224731   1.235   0.762   1.843  0.5972  0.7363 -1.1756
 1106TIP3   OH224732   5.248   2.418  13.120  0.6482  0.3934  0.4859
 1106TIP3    H124733   5.327   2.373  13.090  0.5145 -0.0462  0.7779
 1106TIP3    H224734   5.176   2.369  13.079  0.5315  0.9706 -0.0192
 1107TIP3   OH224735   0.037   4.396   0.073  0.0212 -0.6094 -0.5099
 1107TIP3    H124736   0.012   4.387   0.165 -0.9604 -0.6485 -0.7675
 1107TIP3    H224737   0.132   4.402   0.074 -0.0773  2.8301  0.8117
 1108TIP3   OH224738   1.827   0.003  13.626  0.1426  0.6571 -0.1320
 1108TIP3    H124739   1.749   0.048  13.594  0.1321 -0.9653 -2.6609
 1108TIP3    H224740   1.797  -0.086  13.645  0.9540  0.6051  0.9640
 1109TIP3   OH224741   4.052   1.009  17.298 -0.4758  0.0385 -0.0845
 1109TIP3    H124742   3.980   0.989  17.238 -1.2605  1.3584  0.3591
 1109TIP3    H224743   4.049   0.939  17.363  0.1577 -1.2101 -1.3489
 1110TIP3   OH224744   5.870   6.277  14.795  0.0832 -0.0951  0.4076
 1110TIP3    H124745   5.793   6.295  14.847 -0.4153 -0.2580 -0.2578
 1110TIP3    H224746   5.943   6.278  14.857 -0.6329 -1.5556  1.3212
 1111TIP3   OH224747   5.794   0.372  10.986  0.2017  0.4044 -0.9250
 1111TIP3    H124748   5.878   0.389  11.030  0.4856  1.8998 -1.9787
 1111TIP3    H224749   5.803   0.413  10.900 -1.9756  1.5048 -0.6977
 1112TIP3   OH224750   6.543   6.587   6.699  0.5450 -0.0752 -0.0241
 1112TIP3    H124751   6.457   6.615   6.666 -0.4001 -1.8795  0.7278
 1112TIP3    H224752   6.567   6.513   6.642  1.5321  0.3058 -0.1129
 1113TIP3   OH224753   3.433   1.022  13.698 -0.4302  0.3036 -0.7954
 1113TIP3    H124754   3.386   0.954  13.746 -0.5355  0.9045 -0.0101
 1113TIP3    H224755   3.369   1.055  13.634 -0.8706  0.6478 -0.1961
 1114TIP3   OH224756   5.345   6.410  12.029  0.2754  0.6379  0.2295
 1114TIP3    H124757   5.416   6.369  11.979  0.1749  0.0837  0.5344
 1114TIP3    H224758   5.368   6.503  12.031  0.7599  0.5298 -0.0543
 1115TIP3   OH224759   1.990   2.041  14.740  0.0799  0.3429 -0.1379
 1115TIP3    H124760   2.082   2.066  14.736  0.0111  0.4968 -0.8838
 1115TIP3    H224761   1.980   1.973  14.674 -0.2668  0.0627  0.1955
 1116TIP3   OH224762   2.126   5.227   4.902 -0.0546  0.1771  0.6144
 1116TIP3    H124763   2.073   5.301   4.932 -0.7729 -0.2255  0.3623
 1116TIP3    H224764   2.134   5.171   4.980  0.8286  0.7101  0.9125
 1117TIP3   OH224765   5.892   4.157  15.592 -0.2890 -0.6547  0.0314
 1117TIP3    H124766   5.815   4.213  15.589  0.8273  0.9704  0.5672
 1117TIP3    H224767   5.927   4.168  15.680  1.8326  0.4631 -0.8747
 1118TIP3   OH224768   4.914   6.536  14.144  0.2675  1.2526  0.2566
 1118TIP3    H124769   4.907   6.513  14.051  2.4168 -2.8236  0.8531
 1118TIP3    H224770   4.840   6.492  14.186  0.4237  1.3897  0.6857
 1119TIP3   OH224771   3.205   1.203  16.797  0.0009  0.4977  0.6310
 1119TIP3    H124772   3.268   1.250  16.742 -0.4135 -0.1316 -0.4267
 1119TIP3    H224773   3.259   1.144  16.851  0.3156 -0.9186 -1.1100
 1120TIP3   OH224774   2.410   0.754   1.897 -0.3355 -0.0094 -0.6831
 1120TIP3    H124775   2.457   0.822   1.848  0.8175  0.0103  0.3788
 1120TIP3    H224776   2.472   0.680   1.900 -0.1976  0.1383  1.0521
 1121TIP3   OH224777   4.495   0.361   2.269  0.6521  0.4848  0.1574
 1121TIP3    H124778   4.436   0.416   2.217 -0.2857 -0.8106 -0.2170
 1121TIP3    H224779   4.538   0.305   2.204  0.9051  0.1571  0.6033
 1122TIP3   OH224780   6.579   5.404  11.267  0.2143 -0.0779 -0.1386
 1122TIP3    H124781   6.648   5.374  11.207 -0.0193 -1.5430  0.2889
 1122TIP3    H224782   6.617   5.394  11.354  0.5971  2.1620  0.0116
 1123TIP3   OH224783   4.402   3.684   1.029 -0.7811 -0.5032 -0.2698
 1123TIP3    H124784   4.349   3.624   0.977  1.1087 -0.1422 -2.8210
 1123TIP3    H224785   4.425   3.755   0.969 -1.2285  1.7848  2.0707
 1124TIP3   OH224786   1.093   3.471  12.316  0.0802  0.4414  0.5032
 1124TIP3    H124787   1.101   3.518  12.233 -1.4343 -0.2332 -0.0494
 1124TIP3    H224788   1.124   3.382  12.297 -2.4478 -0.4085 -0.0324
 1125TIP3   OH224789   2.815   4.648   1.471  0.8055  0.5851  0.8698
 1125TIP3    H124790   2.821   4.669   1.378  4.0741 -0.5784  0.7030
 1125TIP3    H224791   2.808   4.553   1.474  1.0576  0.5820  1.8178
 1126TIP3   OH224792   1.358   5.434   5.187 -0.2438  0.4900  0.1742
 1126TIP3    H124793   1.320   5.413   5.273 -0.3793 -0.8956 -0.2016
 1126TIP3    H224794   1.364   5.350   5.143 -1.4963  1.3370 -1.7305
 1127TIP3   OH224795   3.524   2.773  11.398  0.3283 -0.1612 -0.0405
 1127TIP3    H124796   3.517   2.727  11.481  0.9959 -0.2252 -0.0174
 1127TIP3    H224797   3.433   2.782  11.368  0.0833 -0.1526  0.6803
 1128TIP3   OH224798   3.710   0.870   0.622  1.1415  0.3222  0.6110
 1128TIP3    H124799   3.769   0.857   0.696 -0.6323  1.1271  2.2627
 1128TIP3    H224800   3.693   0.782   0.589  0.4986 -0.2670  2.4105
 1129TIP3   OH224801   5.916   3.119   6.585  0.3402  0.5303  0.2716
 1129TIP3    H124802   5.842   3.067   6.553  2.6250 -1.5319 -2.2096
 1129TIP3    H224803   5.947   3.071   6.662 -1.1457  1.7141  1.6609
 1130TIP3   OH224804   6.190   5.737   6.090 -0.1447  0.9092  0.0379
 1130TIP3    H124805   6.213   5.829   6.077  0.9405  0.6683  0.1717
 1130TIP3    H224806   6.268   5.698   6.131  0.2968 -0.5657 -2.0447
 1131TIP3   OH224807   6.571   3.258  14.444 -0.2858  0.3297 -0.7895
 1131TIP3    H124808   6.596   3.350  14.458  0.8695 -0.2445  1.4045
 1131TIP3    H224809   6.492   3.247  14.496  0.3808 -0.2468  0.1228
 1132TIP3   OH224810   5.601   3.403   4.245  0.1805  0.3948 -0.1200
 1132TIP3    H124811   5.507   3.405   4.262 -0.0498 -0.7229 -1.0851
 1132TIP3    H224812   5.616   3.475   4.183  0.2584  1.5997  1.2650
 1133TIP3   OH224813   0.255   0.066   2.375 -0.8590 -0.1072  0.0719
 1133TIP3    H124814   0.283   0.124   2.446 -3.3397 -0.1745  1.2071
 1133TIP3    H224815   0.292  -0.019   2.397 -0.4855  0.1772  0.5568
 1134TIP3   OH224816   3.257   0.310  14.443 -0.3017 -0.6385 -0.3541
 1134TIP3    H124817   3.167   0.287  14.423  0.4117 -2.1606 -2.1415
 1134TIP3    H224818   3.297   0.329  14.358  0.6652  1.8190  0.5389
 1135TIP3   OH224819   2.597   4.822  11.848 -0.2718 -0.3713  0.1187
 1135TIP3    H124820   2.623   4.839  11.939 -0.8251  1.2247  0.0139
 1135TIP3    H224821   2.518   4.769  11.855 -0.6328  0.2202  0.5973
 1136TIP3   OH224822   5.257   3.934   1.867 -0.1640  0.0820 -0.1174
 1136TIP3    H124823   5.273   3.841   1.852 -0.8302 -0.1197  0.3687
 1136TIP3    H224824   5.271   3.975   1.782 -0.0134 -0.4856 -0.3706
 1137TIP3   OH224825   6.637   5.235   0.539  0.4234  0.0319  0.1030
 1137TIP3    H124826   6.622   5.300   0.607  1.5510  2.1492 -1.5660
 1137TIP3    H224827   6.718   5.262   0.497  1.8926 -3.4228  0.3327
 1138TIP3   OH224828   3.597   4.849  11.711 -0.1454 -0.3923 -0.0495
 1138TIP3    H124829   3.572   4.760  11.685 -0.2751 -0.2529 -0.4100
 1138TIP3    H224830   3.554   4.863  11.795  0.0798 -0.7621  0.1283
 1139TIP3   OH224831   0.922   3.161   2.625  0.5175 -0.1201 -0.1141
 1139TIP3    H124832   0.983   3.209   2.568  0.8237 -0.0486  0.2702
 1139TIP3    H224833   0.867   3.111   2.565  0.8796 -0.0918 -0.4705
 1140TIP3   OH224834   2.642   0.282  15.530 -0.6977 -0.7130 -0.7347
 1140TIP3    H124835   2.601   0.329  15.602 -0.1543 -0.1735 -0.7645
 1140TIP3    H224836   2.596   0.198  15.526 -1.5672 -0.2550 -0.5671
 1141TIP3   OH224837   1.157   1.615   2.034  0.4190  0.2308  0.1187
 1141TIP3    H124838   1.252   1.607   2.036  0.3588 -0.5829  0.1569
 1141TIP3    H224839   1.140   1.687   1.973  1.0419  0.0319 -0.2928
 1142TIP3   OH224840   1.328   1.259  15.810  0.1168 -0.2471 -0.3280
 1142TIP3    H124841   1.336   1.350  15.836 -0.2999 -0.6879  1.5014
 1142TIP3    H224842   1.272   1.220  15.878  1.7389 -2.2443 -0.0524
 1143TIP3   OH224843   5.081   1.152  13.605  0.4458  0.6158  0.4805
 1143TIP3    H124844   5.052   1.199  13.683  0.4588  0.1918  0.7393
 1143TIP3    H224845   5.051   1.207  13.532  1.3682  1.5730  0.7888
 1144TIP3   OH224846   6.625   3.823   0.368 -0.2206 -0.2516 -0.3250
 1144TIP3    H124847   6.610   3.759   0.298 -0.4418  0.4387 -0.9230
 1144TIP3    H224848   6.688   3.884   0.330  0.1152 -0.2036  0.3024
 1145TIP3   OH224849   5.414   2.603   3.435  0.5185 -0.6990  0.2030
 1145TIP3    H124850   5.491   2.560   3.398 -0.9432 -2.0288 -1.5084
 1145TIP3    H224851   5.357   2.531   3.461  0.0358  0.2596  1.9458
 1146TIP3   OH224852   1.859   6.522  17.160  0.1441  0.9095  0.0000
 1146TIP3    H124853   1.875   6.487  17.248 -2.2570  0.0474  0.1729
 1146TIP3    H224854   1.913   6.602  17.156  1.6833  0.0259  1.5591
 1147TIP3   OH224855   2.811   4.878  15.573 -0.0269 -0.1159 -0.0855
 1147TIP3    H124856   2.772   4.795  15.600 -0.3104 -0.3205 -1.0962
 1147TIP3    H224857   2.840   4.918  15.655 -0.8272 -0.7299  0.5172
 1148TIP3   OH224858   4.145   0.825  14.167 -0.5483 -0.4454 -0.3226
 1148TIP3    H124859   4.096   0.893  14.122 -2.2217  0.1782  2.2461
 1148TIP3    H224860   4.229   0.822  14.121 -0.6933  2.7797 -1.0473
 1149TIP3   OH224861   5.815   0.871  15.414  0.0932 -0.1940 -0.0986
 1149TIP3    H124862   5.821   0.967  15.415  1.5075 -0.2301 -1.4557
 1149TIP3    H224863   5.839   0.844  15.502 -0.8367  0.6926  0.4606
 1150TIP3   OH224864   4.455   1.274   4.590  0.6805 -0.1284 -0.5064
 1150TIP3    H124865   4.405   1.337   4.642  0.3047 -1.7151  1.1583
 1150TIP3    H224866   4.488   1.325   4.516 -0.2434  1.8282  0.3521
 1151TIP3   OH224867   5.268   3.606   6.160 -0.0922 -0.0337  0.3805
 1151TIP3    H124868   5.281   3.693   6.121  1.0647 -0.3720 -0.0388
 1151TIP3    H224869   5.239   3.623   6.249  0.9072  0.7895  0.5547
 1152TIP3   OH224870   2.777   3.615  12.321  0.0132  0.1154  0.1886
 1152TIP3    H124871   2.701   3.559  12.336  0.2014  0.2333  1.7555
 1152TIP3    H224872   2.839   3.559  12.274 -0.6424 -0.3024 -0.1892
 1153TIP3   OH224873   3.230   0.640  13.431  0.3705 -0.1458 -0.0500
 1153TIP3    H124874   3.186   0.559  13.406  2.0670 -1.0637 -0.2527
 1153TIP3    H224875   3.206   0.654  13.523  0.9587 -1.5340  0.3335
 1154TIP3   OH224876   5.283   1.040  14.068 -0.4249 -0.5006  0.0978
 1154TIP3    H124877   5.225   0.964  14.073 -0.6073 -0.3268  0.8630
 1154TIP3    H224878   5.261   1.092  14.146  0.1674 -0.0053 -0.0525
 1155TIP3   OH224879   3.647   6.632   4.462  0.2505 -0.0459  0.0586
 1155TIP3    H124880   3.727   6.666   4.503  0.3928  0.8236 -0.8883
 1155TIP3    H224881   3.584   6.703   4.471  0.4875  0.4428 -1.7735
 1156TIP3   OH224882   3.286   3.102  13.078  0.4839  0.0471  0.2961
 1156TIP3    H124883   3.261   3.060  13.160  0.4923 -2.9175 -1.0615
 1156TIP3    H224884   3.381   3.099  13.077  0.4607 -1.8447 -0.6289
 1157TIP3   OH224885   1.241   0.336   4.263  0.3033 -0.1791 -0.2277
 1157TIP3    H124886   1.206   0.425   4.261 -0.5406 -0.5121 -1.2074
 1157TIP3    H224887   1.325   0.344   4.308  0.0071  1.0234  0.1536
 1158TIP3   OH224888   6.508   6.259  17.153 -0.7939 -0.1277 -0.2505
 1158TIP3    H124889   6.525   6.213  17.235 -0.2021 -1.7680 -1.2420
 1158TIP3    H224890   6.595   6.278  17.118 -1.0365  1.2152 -0.1884
 1159TIP3   OH224891   4.347   5.697  17.211  0.6566 -0.6633  0.8081
 1159TIP3    H124892   4.340   5.621  17.270  1.6352 -0.6629  0.9368
 1159TIP3    H224893   4.371   5.659  17.127 -0.7155 -0.6607  0.3823
 1160TIP3   OH224894   2.393   5.044   3.285 -0.0789 -0.2755  0.4639
 1160TIP3    H124895   2.464   5.033   3.348 -0.8190 -0.6022  1.2645
 1160TIP3    H224896   2.313   5.030   3.336 -0.7553  0.8984 -0.2362
 1161TIP3   OH224897   4.297   3.204   4.095  0.4562 -0.0888 -0.1998
 1161TIP3    H124898   4.358   3.188   4.167 -0.4151  0.5767  0.7151
 1161TIP3    H224899   4.353   3.223   4.019  1.3933  1.0869  0.7489
 1162TIP3   OH224900   6.290   3.399   2.446  0.5161 -0.0400  0.3615
 1162TIP3    H124901   6.290   3.493   2.464  1.5172  0.1556 -0.6086
 1162TIP3    H224902   6.230   3.388   2.372 -0.9115 -0.4110  1.5122
 1163TIP3   OH224903   4.843   6.648  11.437  0.1408  0.2773  0.1662
 1163TIP3    H124904   4.780   6.697  11.491 -1.3055 -1.6580  0.3590
 1163TIP3    H224905   4.788   6.597  11.378  1.6620  0.9396 -1.9344
 1164TIP3   OH224906   3.891   2.231  16.686  0.1735  0.3534 -0.2435
 1164TIP3    H124907   3.874   2.322  16.660  2.0658  1.2736  1.4979
 1164TIP3    H224908   3.974   2.234  16.732  0.2304 -2.2846 -0.0243
 1165TIP3   OH224909   6.549   3.342   2.510  0.2393 -0.1560 -0.3221
 1165TIP3    H124910   6.456   3.362   2.510  0.5885  1.6799  0.6990
 1165TIP3    H224911   6.572   3.333   2.417 -0.7274  0.4913 -0.6335
 1166TIP3   OH224912   6.607   3.706  11.378 -0.0627 -0.3705 -0.0584
 1166TIP3    H124913   6.564   3.649  11.315 -1.4441 -0.1606  0.6434
 1166TIP3    H224914   6.653   3.771  11.326 -1.3933 -0.0417 -0.8734
 1167TIP3   OH224915   4.846   4.849  16.657  0.2276 -0.9447  0.3854
 1167TIP3    H124916   4.927   4.800  16.667  1.1232  0.4611  0.3159
 1167TIP3    H224917   4.851   4.918  16.722 -1.5949 -1.6466  1.3469
 1168TIP3   OH224918   1.692   1.962   0.788 -0.4390  0.1022  0.0520
 1168TIP3    H124919   1.715   1.872   0.809 -1.3849  0.2922  2.1476
 1168TIP3    H224920   1.765   1.994   0.735  2.7224 -0.2539  3.7596
 1169TIP3   OH224921   5.536   1.425   1.807  0.6507 -0.3401 -0.0504
 1169TIP3    H124922   5.518   1.382   1.890  1.6842 -1.5740 -0.4203
 1169TIP3    H224923   5.489   1.373   1.742  0.1522  0.3905 -0.2814
 1170TIP3   OH224924   4.064   0.196  14.143 -0.0151 -0.9241  0.0387
 1170TIP3    H124925   4.058   0.134  14.216 -1.2414 -0.7119  0.1375
 1170TIP3    H224926   4.149   0.239  14.156  0.0430 -1.2953  1.0108
 1171TIP3   OH224927   1.301   6.656   1.156  0.6503 -0.0424  0.0472
 1171TIP3    H124928   1.240   6.729   1.139  1.0261  0.4639  0.8190
 1171TIP3    H224929   1.305   6.609   1.073 -0.9622 -0.2153  0.0206
 1172TIP3   OH224930   4.408   5.952  12.549  0.8409  0.7256  0.6537
 1172TIP3    H124931   4.405   5.859  12.527 -1.7682  0.9079 -0.0731
 1172TIP3    H224932   4.411   5.997  12.464 -0.0170  1.3312  0.9387
 1173TIP3   OH224933   6.005   5.334  13.440  0.5569 -0.3812 -0.6204
 1173TIP3    H124934   6.073   5.273  13.412  0.9485  0.5506 -1.7778
 1173TIP3    H224935   5.941   5.333  13.368  0.0926 -0.1195 -0.2205
 1174TIP3   OH224936   0.465   3.485   0.180 -0.0506 -0.2004 -0.1350
 1174TIP3    H124937   0.496   3.401   0.148 -0.2103  0.1369 -1.2159
 1174TIP3    H224938   0.488   3.548   0.112  1.0343  0.8323  1.1164
 1175TIP3   OH224939   2.872   3.456  13.701 -0.1629  0.1251 -0.3969
 1175TIP3    H124940   2.848   3.504  13.622  0.4874  0.3481 -0.4589
 1175TIP3    H224941   2.888   3.524  13.767 -2.0703 -0.0699  0.3542
 1176TIP3   OH224942   1.068   3.121   0.647  0.4365  0.1656  0.0282
 1176TIP3    H124943   1.004   3.086   0.709  0.9509 -0.5662  0.1654
 1176TIP3    H224944   1.047   3.214   0.640 -0.0940  0.1047  0.7321
 1177TIP3   OH224945   6.058   0.264   2.015  0.5896  0.2688 -0.5076
 1177TIP3    H124946   6.131   0.203   2.031 -0.0277 -0.9858 -2.2339
 1177TIP3    H224947   6.078   0.339   2.071  1.7742 -1.1853  1.1533
 1178TIP3   OH224948   4.521   1.550   2.802  0.6654 -0.2010  0.5170
 1178TIP3    H124949   4.483   1.627   2.844  4.0532  1.1246  1.4943
 1178TIP3    H224950   4.561   1.584   2.721  2.1873 -0.8450  0.9541
 1179TIP3   OH224951   0.501   2.440   4.364  0.3752  0.0249  0.1350
 1179TIP3    H124952   0.456   2.400   4.290  2.9278 -2.7564 -0.0977
 1179TIP3    H224953   0.475   2.389   4.440  0.4282  0.6580  0.5913
 1180TIP3   OH224954   4.027   1.873  17.275 -0.2371 -0.1508 -0.2020
 1180TIP3    H124955   4.019   1.797  17.334  1.2578 -0.1076  0.0974
 1180TIP3    H224956   4.121   1.890  17.271 -0.5158  1.4127 -0.6427
 1181TIP3   OH224957   3.418   1.611   5.271 -0.0152  0.3070  0.0174
 1181TIP3    H124958   3.489   1.588   5.211  0.6591  0.8484  0.6077
 1181TIP3    H224959   3.460   1.622   5.356 -0.6236  1.7015  0.1591
 1182TIP3   OH224960   1.782   3.125  14.861  0.2296 -0.0605  0.0073
 1182TIP3    H124961   1.804   3.208  14.819 -0.3127  0.5369  0.8796
 1182TIP3    H224962   1.737   3.074  14.793 -0.1911  0.6869 -0.2795
 1183TIP3   OH224963   6.490   1.241   5.941  0.2496 -0.1521  0.3093
 1183TIP3    H124964   6.471   1.324   5.896 -0.7305 -1.0875 -1.0615
 1183TIP3    H224965   6.405   1.198   5.951  0.8941 -1.6463 -0.3412
 1184TIP3   OH224966   1.822   2.333  14.533 -0.0368  0.1230 -0.4840
 1184TIP3    H124967   1.789   2.254  14.490 -1.4286  0.6596 -0.4546
 1184TIP3    H224968   1.916   2.333  14.513 -0.2919 -0.6703 -1.8814
 1185TIP3   OH224969   4.206   1.404   0.186 -0.2781 -0.6247  0.6273
 1185TIP3    H124970   4.280   1.370   0.236  1.6754 -0.2814 -1.8092
 1185TIP3    H224971   4.161   1.326   0.154 -0.0332 -0.8571  0.8480
 1186TIP3   OH224972   6.673   3.549  12.556  0.1372 -0.0203  0.8806
 1186TIP3    H124973   6.762   3.552  12.591  0.2739 -2.2862  0.8424
 1186TIP3    H224974   6.683   3.568  12.463  0.3522  1.2405  1.1359
 1187TIP3   OH224975   3.518   4.323  12.525  0.3124  0.5641 -0.3952
 1187TIP3    H124976   3.606   4.358  12.536  0.5756  0.4025 -1.8063
 1187TIP3    H224977   3.528   4.229  12.534  0.1999  0.5875 -0.0403
 1188TIP3   OH224978   5.021   6.379   4.663 -0.1303 -0.6127  0.0103
 1188TIP3    H124979   5.062   6.448   4.610 -1.7172  0.2063 -0.2363
 1188TIP3    H224980   5.038   6.298   4.614  0.8192 -0.2601 -0.2775
 1189TIP3   OH224981   0.003   2.543   3.117  0.3824 -0.6525 -0.0542
 1189TIP3    H124982   0.031   2.488   3.044 -0.6615 -0.0470 -0.9400
 1189TIP3    H224983   0.073   2.608   3.127  2.3389 -2.8776  1.9239
 1190TIP3   OH224984   1.374   0.675  13.539 -0.6322 -0.1453 -0.5872
 1190TIP3    H124985   1.402   0.693  13.449  0.4169  0.7426 -0.1093
 1190TIP3    H224986   1.353   0.761  13.576  0.5914 -0.2738  0.5167
 1191TIP3   OH224987   3.603   1.069   0.976 -0.3427  0.3699 -0.7623
 1191TIP3    H124988   3.556   1.066   0.893 -0.9677 -0.3111 -0.3970
 1191TIP3    H224989   3.552   1.129   1.031  0.8658  1.9970 -1.3142
 1192TIP3   OH224990   0.516   0.980  13.976  0.3799 -0.5046 -0.2168
 1192TIP3    H124991   0.531   0.900  14.025 -0.5886 -0.1598  0.6707
 1192TIP3    H224992   0.516   1.049  14.042  1.8610  0.3418 -1.0237
 1193TIP3   OH224993   1.870   1.249   5.897  0.0716  0.3603 -0.2226
 1193TIP3    H124994   1.866   1.208   5.811 -1.3254 -0.8421  0.3618
 1193TIP3    H224995   1.828   1.335   5.884 -1.1293 -0.2434 -0.5509
 1194TIP3   OH224996   2.809   1.994   1.024 -0.9191  0.0897 -0.6391
 1194TIP3    H124997   2.885   2.039   1.061  0.9400 -2.8563 -0.6111
 1194TIP3    H224998   2.806   2.021   0.933  0.1079  0.2965 -0.6153
 1195TIP3   OH224999   1.078   0.775  13.125  0.4230 -0.5672 -0.2820
 1195TIP3    H125000   1.030   0.812  13.199 -1.4905 -1.4048 -1.0164
 1195TIP3    H225001   1.051   0.828  13.050 -1.3550 -2.4997 -1.1202
 1196TIP3   OH225002   2.015   4.967  12.713 -0.0023  0.0353  0.2812
 1196TIP3    H125003   2.026   4.962  12.808 -1.5212  1.0490  0.5466
 1196TIP3    H225004   2.100   4.942  12.678  1.4590  2.2297  1.9740
 1197TIP3   OH225005   0.888   0.637   0.071  0.0339  0.4063  0.0632
 1197TIP3    H125006   0.812   0.614   0.017  0.1122 -1.5109  0.6937
 1197TIP3    H225007   0.852   0.692   0.140 -0.8320 -0.5758  0.4183
 1198TIP3   OH225008   0.288   4.030  16.299 -0.0114  0.2966  0.2324
 1198TIP3    H125009   0.276   3.978  16.379 -0.3612 -1.6757 -1.0347
 1198TIP3    H225010   0.357   4.092  16.321 -0.1413 -0.1527  2.0832
 1199TIP3   OH225011   5.150   5.909  16.214 -0.4705  0.2216 -0.3660
 1199TIP3    H125012   5.133   5.874  16.126  0.2262 -0.5130 -0.2146
 1199TIP3    H225013   5.229   5.963  16.203  0.3132 -0.8146  0.0308
 1200TIP3   OH225014   6.248   3.291  13.465 -0.3466  0.1935 -0.8044
 1200TIP3    H125015   6.331   3.283  13.419 -0.6951 -0.5144 -1.3331
 1200TIP3    H225016   6.194   3.220  13.430 -0.7532 -0.1399  0.4338
 1201TIP3   OH225017   1.593   3.436   5.055 -0.2009 -0.0321 -0.2354
 1201TIP3    H125018   1.529   3.425   5.126  0.7410  1.7812  0.9681
 1201TIP3    H225019   1.545   3.486   4.988 -1.1459 -1.8940 -1.0167
 1202TIP3   OH225020   0.671   1.725   2.780  0.3448 -0.1117  0.8373
 1202TIP3    H125021   0.671   1.792   2.848 -2.6007 -0.1347  0.9998
 1202TIP3    H225022   0.700   1.771   2.701 -1.7416  1.5003  0.9060
 1203TIP3   OH225023   2.904   1.139  15.582 -0.3580 -0.1034 -0.2458
 1203TIP3    H125024   2.962   1.185  15.521 -2.0728  0.5794 -1.4786
 1203TIP3    H225025   2.947   1.146  15.667 -0.8252  4.6608 -0.1271
 1204TIP3   OH225026   0.051   6.332  14.129 -0.0120 -0.4692  0.1086
 1204TIP3    H125027   0.011   6.367  14.209 -0.3786  0.3201 -0.4156
 1204TIP3    H225028  -0.023   6.301  14.077 -0.6582  4.8050 -2.8028
 1205TIP3   OH225029   1.869   4.668   5.717  0.2930 -0.0709  0.1114
 1205TIP3    H125030   1.827   4.751   5.741 -2.0675 -1.2686  0.3916
 1205TIP3    H225031   1.802   4.621   5.668  1.5871 -1.8323 -0.0443
 1206TIP3   OH225032   2.459   2.524   2.511  0.1637 -0.3081  0.3288
 1206TIP3    H125033   2.378   2.480   2.537 -0.5512  0.1846 -0.9580
 1206TIP3    H225034   2.458   2.607   2.560  1.2223 -1.3801  2.3040
 1207TIP3   OH225035   4.627   1.352   5.957  0.3055  0.1351 -0.5603
 1207TIP3    H125036   4.574   1.296   6.013  1.7842 -0.2029  0.5579
 1207TIP3    H225037   4.567   1.422   5.929 -0.7644 -0.3329  0.4937
 1208TIP3   OH225038   0.744   5.330   0.902  0.1101  0.4614 -0.3107
 1208TIP3    H125039   0.816   5.378   0.861 -0.8067  2.9168  0.7866
 1208TIP3    H225040   0.774   5.239   0.902  2.1446  1.0294 -2.0747
 1209TIP3   OH225041   0.184   4.890  16.633 -0.6090  0.2204  0.2232
 1209TIP3    H125042   0.099   4.849  16.619 -2.1175  1.7706  3.6047
 1209TIP3    H225043   0.216   4.852  16.714  1.0001  1.0898  0.0359
 1210TIP3   OH225044   4.150   0.706   3.361  0.1118  0.5268 -0.1445
 1210TIP3    H125045   4.198   0.641   3.309 -0.2537  0.4471 -0.3865
 1210TIP3    H225046   4.147   0.669   3.449  0.4716  0.5194 -0.1357
 1211TIP3   OH225047   2.670   4.758   3.255  0.0903  0.3048  0.1206
 1211TIP3    H125048   2.748   4.812   3.248  1.5545 -1.5316  1.2156
 1211TIP3    H225049   2.614   4.786   3.183  1.4436  2.1375 -0.2884
 1212TIP3   OH225050   3.518   3.305   0.827  0.4869  0.1252  0.0343
 1212TIP3    H125051   3.428   3.307   0.860  1.0033  0.6976  1.4797
 1212TIP3    H225052   3.547   3.395   0.831  1.2461 -0.1077 -0.1287
 1213TIP3   OH225053   3.025   4.065   3.276 -0.1508  0.2137 -0.3394
 1213TIP3    H125054   2.960   4.095   3.212 -2.1940 -0.9978  1.0547
 1213TIP3    H225055   3.104   4.113   3.253 -1.4800  1.7078 -2.1874
 1214TIP3   OH225056   3.086   0.683   1.764  0.0704 -0.3084 -0.0851
 1214TIP3    H125057   3.041   0.724   1.838  2.1373 -1.3380  1.8679
 1214TIP3    H225058   3.016   0.659   1.704 -1.8952 -0.8951  2.2581
 1215TIP3   OH225059   3.847   3.263   1.413 -0.1592  0.1936  0.3465
 1215TIP3    H125060   3.811   3.237   1.329  0.0262  1.8941 -0.3048
 1215TIP3    H225061   3.937   3.231   1.412  0.1443  1.0166 -0.5363
 1216TIP3   OH225062   2.206   0.257  14.004  0.8535 -0.4057 -0.1469
 1216TIP3    H125063   2.202   0.187  14.069  1.1123  1.7064  2.3135
 1216TIP3    H225064   2.293   0.296  14.015  0.1175  1.3766 -0.1637
 1217TIP3   OH225065   6.202   3.527   0.528  0.6730  0.8096  0.1077
 1217TIP3    H125066   6.190   3.562   0.440  0.9938 -0.9626 -0.6957
 1217TIP3    H225067   6.116   3.535   0.569  0.6497  2.1354 -0.1592
 1218TIP3   OH225068   2.137   5.491  12.575  0.3543 -0.6018  0.2349
 1218TIP3    H125069   2.133   5.448  12.489  0.9936 -1.1137  0.4523
 1218TIP3    H225070   2.077   5.565  12.568  0.8056 -0.3160 -0.8360
 1219TIP3   OH225071   5.238   1.391  11.999 -0.2716  0.0795  0.4913
 1219TIP3    H125072   5.305   1.443  11.954  0.5338 -0.4311  1.0753
 1219TIP3    H225073   5.258   1.301  11.975 -0.2848 -0.1376  1.2993
 1220TIP3   OH225074   1.754   3.526  14.102 -0.1640  0.6366 -0.2766
 1220TIP3    H125075   1.683   3.513  14.039  0.7326  0.5956 -1.3213
 1220TIP3    H225076   1.831   3.489  14.058  0.6815  1.5107  0.4362
 1221TIP3   OH225077   2.993   2.943   1.735  0.1587 -0.0663  0.7852
 1221TIP3    H125078   3.025   3.003   1.802 -2.5097  0.0065  2.1209
 1221TIP3    H225079   2.897   2.944   1.745 -0.3180 -0.7073 -2.4793
 1222TIP3   OH225080   5.706   0.576  14.948 -0.0366 -0.0440  0.1881
 1222TIP3    H125081   5.699   0.601  14.856  3.4333 -2.4018 -0.9278
 1222TIP3    H225082   5.657   0.494  14.954 -1.0461  0.5811  0.7325
 1223TIP3   OH225083   1.008   0.722  16.348 -0.1016 -0.0297 -0.6382
 1223TIP3    H125084   0.914   0.742  16.354  0.2428  1.3364  0.6096
 1223TIP3    H225085   1.017   0.640  16.397 -0.7169 -0.5053 -1.2880
 1224TIP3   OH225086   3.000   0.138   0.142 -0.3407 -0.2879  0.0850
 1224TIP3    H125087   3.022   0.062   0.196 -0.0173 -0.3919 -0.1928
 1224TIP3    H225088   3.044   0.122   0.059  0.8167  0.8131  0.4515
 1225TIP3   OH225089   6.559   2.004   2.815 -1.0925  0.1770  0.2371
 1225TIP3    H125090   6.508   1.934   2.857 -1.8181 -0.0990 -1.0232
 1225TIP3    H225091   6.512   2.020   2.733 -0.5317  1.6679  0.1846
 1226TIP3   OH225092   5.234   5.971   2.043 -0.1226 -0.1337 -0.6299
 1226TIP3    H125093   5.325   5.959   2.068 -0.2356 -0.9216 -0.5526
 1226TIP3    H225094   5.186   5.973   2.125 -0.2022  0.0360 -0.6798
 1227TIP3   OH225095   4.239   0.413  15.394 -0.2825  0.8208  0.1252
 1227TIP3    H125096   4.240   0.332  15.445 -0.4887 -0.3280 -1.6205
 1227TIP3    H225097   4.150   0.418  15.359 -0.6291  2.4535  1.1597
 1228TIP3   OH225098   4.045   1.472  13.950 -0.1949 -0.4081  0.0564
 1228TIP3    H125099   4.064   1.462  13.856 -0.5749 -1.7651  0.1040
 1228TIP3    H225100   4.109   1.416  13.993 -0.4588 -0.3170  0.5754
 1229TIP3   OH225101   2.118   2.586   0.175  0.0531 -0.0158 -0.1558
 1229TIP3    H125102   2.108   2.546   0.089  1.6187  1.0704 -0.8973
 1229TIP3    H225103   2.045   2.552   0.227 -2.0382  0.7173 -2.4171
 1230TIP3   OH225104   3.358   5.124   4.613  0.1477  0.3303 -0.0081
 1230TIP3    H125105   3.348   5.202   4.559 -0.9857 -0.0736 -0.3903
 1230TIP3    H225106   3.282   5.124   4.670  0.2464 -0.3930  0.1325
 1231TIP3   OH225107   0.759   3.689  14.210  0.4731 -0.4963 -0.2516
 1231TIP3    H125108   0.706   3.638  14.149 -0.2923 -2.0161  1.5575
 1231TIP3    H225109   0.781   3.769  14.163 -0.0860 -1.5742 -2.4689
 1232TIP3   OH225110   2.466   4.646   1.974 -0.4406 -0.1724 -0.1940
 1232TIP3    H125111   2.434   4.583   1.909 -0.2374  0.3356 -0.7975
 1232TIP3    H225112   2.387   4.691   2.005 -0.4744 -0.0009 -0.5289
 1233TIP3   OH225113   2.994   4.417   4.826 -0.0864  1.1938  0.1218
 1233TIP3    H125114   3.059   4.410   4.756  0.4743  2.1522  0.5206
 1233TIP3    H225115   3.032   4.366   4.898 -2.2277 -2.8077 -1.2681
 1234TIP3   OH225116   1.911   3.656  13.773 -0.2417 -0.2028 -0.1112
 1234TIP3    H125117   1.996   3.630  13.807  0.0840 -0.8877 -1.3877
 1234TIP3    H225118   1.865   3.694  13.848  0.4183 -1.6725  1.0765
 1235TIP3   OH225119   6.006   0.754   3.602  0.0429 -0.4789  0.0895
 1235TIP3    H125120   5.933   0.696   3.582  0.0576 -0.6446  0.5083
 1235TIP3    H225121   6.081   0.696   3.616  0.6283 -0.2461 -1.8080
 1236TIP3   OH225122   3.694   4.982   3.950 -0.0841 -0.3330 -0.0030
 1236TIP3    H125123   3.715   5.007   3.860 -0.5025 -1.1905 -0.3510
 1236TIP3    H225124   3.604   5.013   3.963 -0.2581 -0.7941 -0.1060
 1237TIP3   OH225125   2.913   0.971   2.423 -0.4609  0.1973  0.0464
 1237TIP3    H125126   2.864   0.901   2.466 -1.0249  0.3518 -0.3189
 1237TIP3    H225127   2.903   0.953   2.330 -1.5998  1.3901 -0.0972
 1238TIP3   OH225128   6.158   4.681   0.037  0.0102 -0.0410  0.2740
 1238TIP3    H125129   6.172   4.706  -0.055  0.0848  2.6435  0.9141
 1238TIP3    H225130   6.064   4.661   0.042 -0.4535  1.8170 -0.0520
 1239TIP3   OH225131   0.442   4.167   4.316  0.5327 -0.0883 -0.0667
 1239TIP3    H125132   0.507   4.188   4.249  0.7352  1.9606  0.7200
 1239TIP3    H225133   0.404   4.251   4.340 -0.4252 -0.9221  1.5177
 1240TIP3   OH225134   2.540   0.958   4.618  0.1071 -0.3378  0.3099
 1240TIP3    H125135   2.614   0.920   4.665 -0.2865  0.1691  1.3802
 1240TIP3    H225136   2.569   1.046   4.596  0.6382 -0.8793 -1.2602
 1241TIP3   OH225137   1.885   4.995   3.443  0.3370  0.8197  0.2955
 1241TIP3    H125138   1.864   5.028   3.356  1.6226 -0.3186 -0.4660
 1241TIP3    H225139   1.803   5.006   3.492 -1.6546 -1.9170 -2.0811
 1242TIP3   OH225140   1.271   4.934  11.227 -0.2854 -0.2303  0.0313
 1242TIP3    H125141   1.340   4.983  11.183  0.1742 -0.8040  0.0970
 1242TIP3    H225142   1.252   4.860  11.168 -1.0554  0.0862 -0.1272
 1243TIP3   OH225143   4.111   1.839  12.521  0.8765  0.2476 -0.4944
 1243TIP3    H125144   4.056   1.860  12.596 -0.1668 -0.7954 -0.9267
 1243TIP3    H225145   4.056   1.855  12.445  1.0149 -1.1455 -0.9262
 1244TIP3   OH225146   1.040   3.439   3.099 -0.1376 -0.1808  0.1128
 1244TIP3    H125147   0.945   3.441   3.085 -0.1785 -0.4684  0.3267
 1244TIP3    H225148   1.075   3.499   3.034 -0.4061 -0.6717 -0.5020
 1245TIP3   OH225149   0.248   0.129  13.313  0.4823  0.2214  0.0022
 1245TIP3    H125150   0.292   0.063  13.259 -0.0857 -1.2988  1.3213
 1245TIP3    H225151   0.202   0.184  13.250 -1.9978 -2.8179 -1.0973
 1246TIP3   OH225152   2.242   0.500   1.063  0.2053 -0.5414  0.0487
 1246TIP3    H125153   2.328   0.533   1.040 -0.2618 -0.0935 -1.1358
 1246TIP3    H225154   2.259   0.421   1.114  1.3300 -0.9462 -0.9053
 1247TIP3   OH225155   5.342   3.721   2.310 -0.5613  0.3704 -1.0090
 1247TIP3    H125156   5.284   3.687   2.241 -1.4551  0.6401 -0.4117
 1247TIP3    H225157   5.299   3.801   2.340  0.5142  0.9825 -1.0544
 1248TIP3   OH225158   3.109   1.774  10.918  0.1278  0.0468 -0.2038
 1248TIP3    H125159   3.060   1.708  10.868  2.7203 -0.2940 -2.5303
 1248TIP3    H225160   3.140   1.727  10.995 -1.3977 -0.2967  0.2284
 1249TIP3   OH225161   2.979   5.106  14.701 -0.2078  0.0846  0.7863
 1249TIP3    H125162   2.920   5.155  14.759  0.0950  0.4493  0.7840
 1249TIP3    H225163   2.938   5.019  14.694  0.2235 -0.2766  2.2796
 1250TIP3   OH225164   1.059   2.420  17.010  0.4040 -0.1645 -0.3772
 1250TIP3    H125165   0.988   2.375  16.965 -0.4445  0.3271  0.4477
 1250TIP3    H225166   1.132   2.419  16.947  0.1326 -1.8995 -0.6961
 1251TIP3   OH225167   3.123   3.903   3.967  1.0071  0.6148 -0.0952
 1251TIP3    H125168   3.117   3.815   3.930  1.2831  1.1028 -1.3508
 1251TIP3    H225169   3.165   3.955   3.898  0.6675  1.7714  0.5473
 1252TIP3   OH225170   1.261   4.914  16.855  0.7498  0.0140  0.3260
 1252TIP3    H125171   1.300   5.000  16.870  0.0776  0.0665  1.8743
 1252TIP3    H225172   1.173   4.933  16.824  1.4574 -0.1245 -1.9770
 1253TIP3   OH225173   0.563   0.152  12.173  0.2745  0.1350 -0.1662
 1253TIP3    H125174   0.576   0.246  12.158  2.1663  0.2945  1.8395
 1253TIP3    H225175   0.643   0.111  12.141 -0.0976 -0.6736 -0.0975
 1254TIP3   OH225176   3.681   1.794  12.950 -0.0080 -0.2244 -0.1237
 1254TIP3    H125177   3.629   1.856  13.000 -0.9455  0.3235 -1.6970
 1254TIP3    H225178   3.767   1.795  12.991 -0.5888  0.5797  1.1177
 1255TIP3   OH225179   2.462   3.610  11.352  0.1371  0.0048  0.6289
 1255TIP3    H125180   2.538   3.565  11.317  0.6921 -0.1728  1.9795
 1255TIP3    H225181   2.390   3.548  11.341  0.3154 -0.0791 -0.0787
 1256TIP3   OH225182   1.610   2.323   0.640  0.5770 -0.1513  0.7154
 1256TIP3    H125183   1.652   2.302   0.556  0.7352 -0.2210  0.8106
 1256TIP3    H225184   1.617   2.418   0.647 -0.8605  0.0354 -0.0945
 1257TIP3   OH225185   0.186   0.162  16.611 -0.5397 -0.1454  0.5121
 1257TIP3    H125186   0.190   0.067  16.610  0.1772 -0.1367 -1.6292
 1257TIP3    H225187   0.258   0.190  16.554 -1.4034  1.6421  0.2345
 1258TIP3   OH225188   3.344   5.607   2.671  0.4685  0.2743  0.1791
 1258TIP3    H125189   3.334   5.609   2.575  0.5163  0.1581  0.1723
 1258TIP3    H225190   3.338   5.699   2.697  0.7058  0.3305  0.0397
 1259TIP3   OH225191   6.620   6.258  13.970 -0.1278  0.3715 -0.1626
 1259TIP3    H125192   6.536   6.299  13.948  0.1007  0.0879 -1.6867
 1259TIP3    H225193   6.607   6.165  13.948  0.8086  0.4533 -1.1134
 1260TIP3   OH225194   2.796   6.105  15.765  0.2304 -0.1092  0.1718
 1260TIP3    H125195   2.878   6.117  15.814  0.4379 -1.6505  0.2472
 1260TIP3    H225196   2.729   6.143  15.821  0.4817 -1.7373  1.6626
 1261TIP3   OH225197   3.898   1.725   3.508  0.3353 -0.3858 -0.2645
 1261TIP3    H125198   3.965   1.782   3.545 -0.4229  1.2121 -1.2753
 1261TIP3    H225199   3.819   1.778   3.505 -0.8836 -2.0550  0.3798
 1262TIP3   OH225200   2.893   5.146  12.383 -0.3447  0.1606  0.4619
 1262TIP3    H125201   2.857   5.079  12.441 -0.7498  1.1541  1.4137
 1262TIP3    H225202   2.981   5.116  12.363  0.0466  0.0629  2.1305
 1263TIP3   OH225203   2.767   0.457   2.132  0.0081 -0.0906  0.8427
 1263TIP3    H125204   2.828   0.428   2.065  0.8469  1.1632  1.0181
 1263TIP3    H225205   2.764   0.386   2.196 -0.1095 -0.9120 -0.0617
 1264TIP3   OH225206   4.373   5.728  14.738 -0.4347 -0.0709 -0.2150
 1264TIP3    H125207   4.407   5.799  14.683 -1.7965  0.4802 -0.3991
 1264TIP3    H225208   4.367   5.653  14.678 -0.6086  0.1455 -0.4763
 1265TIP3   OH225209   5.675   6.347   3.976  0.5024 -0.3580  0.3235
 1265TIP3    H125210   5.663   6.441   3.993 -0.2383 -0.6461  1.4598
 1265TIP3    H225211   5.666   6.339   3.881 -2.2109  0.3519  0.4551
 1266TIP3   OH225212   2.089   0.305  13.588 -0.2577  0.4403 -0.0036
 1266TIP3    H125213   2.040   0.316  13.669 -1.6059  0.2328 -0.7509
 1266TIP3    H225214   2.118   0.394  13.566  1.0634  0.3450  1.2394
 1267TIP3   OH225215   4.950   5.706  14.937 -0.3374  0.0766 -0.5708
 1267TIP3    H125216   4.988   5.747  15.015  0.9186  0.2974 -1.2607
 1267TIP3    H225217   4.870   5.664  14.968  0.7622 -0.9009  1.0950
 1268TIP3   OH225218   5.246   1.329  13.011  0.0191  0.2924  0.1203
 1268TIP3    H125219   5.332   1.367  13.027 -0.9814  1.7231  2.6505
 1268TIP3    H225220   5.262   1.236  12.999  2.0136  0.6985 -0.7748
 1269TIP3   OH225221   5.440   1.675   6.091 -0.1808 -0.2177 -0.5263
 1269TIP3    H125222   5.437   1.756   6.142  3.8827  0.6012 -1.2644
 1269TIP3    H225223   5.485   1.612   6.147 -1.1288 -1.2837 -0.8954
 1270TIP3   OH225224   5.144   1.151   5.719 -0.8351 -0.1590  0.7039
 1270TIP3    H125225   5.109   1.203   5.791 -1.8782  0.6494 -0.3443
 1270TIP3    H225226   5.186   1.215   5.661  1.7256 -1.0091  1.4964
 1271TIP3   OH225227   6.208   2.979   6.221 -0.8606 -0.0775 -0.4032
 1271TIP3    H125228   6.225   2.940   6.135  1.6133 -2.2806  0.8944
 1271TIP3    H225229   6.268   2.932   6.280  0.8000  4.2562  1.8233
 1272TIP3   OH225230   0.839   2.942   1.040  0.0001  0.5493 -0.2795
 1272TIP3    H125231   0.752   2.939   1.082  0.8750 -0.6130  1.5645
 1272TIP3    H225232   0.896   2.977   1.108  1.5362 -1.6271 -0.3571
 1273TIP3   OH225233   1.083   0.495  16.528 -0.1938 -0.1496  0.0595
 1273TIP3    H125234   1.099   0.569  16.587  0.9307 -0.0894 -0.2961
 1273TIP3    H225235   1.125   0.421  16.571 -0.7789 -0.4566  0.1115
 1274TIP3   OH225236   0.884   0.404  13.360 -0.2924  0.3091  0.3736
 1274TIP3    H125237   0.843   0.490  13.355 -0.9626  0.2626  3.3792
 1274TIP3    H225238   0.821   0.350  13.408  1.0100 -1.2799  0.3847
 1275TIP3   OH225239   0.377   3.810   2.254  0.1129  0.7206 -0.2615
 1275TIP3    H125240   0.398   3.738   2.315 -2.9989  0.6575  0.9184
 1275TIP3    H225241   0.457   3.863   2.252  1.4876 -1.1340  1.2169
 1276TIP3   OH225242   0.244   3.416  11.758  0.9231 -0.3008  0.1164
 1276TIP3    H125243   0.214   3.477  11.690  3.0973  1.0099  0.2403
 1276TIP3    H225244   0.335   3.396  11.734  0.5789 -2.8305  0.6039
 1277TIP3   OH225245   3.031   3.647   1.433  0.4680  0.0065 -0.1304
 1277TIP3    H125246   3.096   3.704   1.392  0.0512  0.0376 -0.7596
 1277TIP3    H225247   3.029   3.569   1.377 -1.0863  0.6168 -0.9912
 1278TIP3   OH225248   5.527   0.020  14.505  0.5651  0.6447 -0.1856
 1278TIP3    H125249   5.606   0.073  14.511 -0.1569  1.6842  0.5770
 1278TIP3    H225250   5.552  -0.065  14.541  0.7429  1.7050  2.4056
 1279TIP3   OH225251   5.211   0.388  12.090 -0.1262  0.0941  0.1526
 1279TIP3    H125252   5.271   0.347  12.027 -0.1469  1.1333 -0.5846
 1279TIP3    H225253   5.225   0.341  12.172  1.6729  0.2678 -0.0162
 1280TIP3   OH225254   0.338   4.887   1.758 -0.1599  0.5090  0.5061
 1280TIP3    H125255   0.361   4.971   1.720  0.4956 -0.1232 -0.5399
 1280TIP3    H225256   0.363   4.895   1.850  1.1653  1.0008  0.1251
 1281TIP3   OH225257   3.142   3.412  11.275  0.3785  0.3784  0.0217
 1281TIP3    H125258   3.078   3.417  11.205  1.0474  0.8366 -0.5681
 1281TIP3    H225259   3.137   3.321  11.305 -0.3156  0.3271 -0.2243
 1282TIP3   OH225260   5.998   1.899  11.012 -0.3402  0.3413  0.2974
 1282TIP3    H125261   5.948   1.817  11.014 -0.0657  0.1651  0.0186
 1282TIP3    H225262   5.933   1.966  10.988 -0.2381 -0.0504 -1.2209
 1283TIP3   OH225263   2.606   0.676   4.369 -0.6356 -0.4056  0.3918
 1283TIP3    H125264   2.637   0.641   4.452 -0.1134 -0.5716  0.1335
 1283TIP3    H225265   2.666   0.747   4.349 -0.2267 -0.9238 -0.2633
 1284TIP3   OH225266   6.753   6.706  12.855  0.6408  0.5065  0.0245
 1284TIP3    H125267   6.669   6.703  12.810 -1.1623 -0.7107  3.1618
 1284TIP3    H225268   6.774   6.799  12.861 -0.8901  0.8869 -0.1404
 1285TIP3   OH225269   2.513   3.851  16.476 -0.1153 -0.0491  0.4194
 1285TIP3    H125270   2.524   3.933  16.525 -1.3923 -0.6799  1.8225
 1285TIP3    H225271   2.600   3.811  16.477  0.9708  2.0025 -1.7380
 1286TIP3   OH225272   5.742   5.718   1.536  0.3071  0.5739 -0.3856
 1286TIP3    H125273   5.663   5.686   1.492  1.5450 -2.7704 -0.4437
 1286TIP3    H225274   5.711   5.790   1.590 -2.2870  1.0891 -2.3268
 1287TIP3   OH225275   2.377   6.112   3.857  0.9121 -0.5308 -0.2941
 1287TIP3    H125276   2.327   6.031   3.850  0.1319 -0.1385  0.4951
 1287TIP3    H225277   2.351   6.150   3.941 -1.4794  2.2785 -2.0786
 1288TIP3   OH225278   3.964   1.164   3.510 -0.2702 -0.5576 -0.1220
 1288TIP3    H125279   3.962   1.076   3.471 -0.8163 -0.0480 -1.2903
 1288TIP3    H225280   3.874   1.181   3.535 -0.2341 -0.1858 -0.2398
 1289TIP3   OH225281   6.521   5.714   0.020 -0.1428 -0.4408  0.0728
 1289TIP3    H125282   6.457   5.755   0.078 -0.4295  0.1859 -0.6665
 1289TIP3    H225283   6.604   5.720   0.068 -0.1966  0.9488  0.0362
 1290TIP3   OH225284   3.960   1.791   1.456  0.1569 -0.2806  0.3024
 1290TIP3    H125285   3.959   1.884   1.478 -2.9779 -0.0946 -0.2074
 1290TIP3    H225286   3.979   1.747   1.540 -0.2592  0.7532  0.9564
 1291TIP3   OH225287   3.833   6.114   5.523 -0.3217  0.7886 -0.3720
 1291TIP3    H125288   3.777   6.076   5.455 -1.1836 -0.7603  1.1531
 1291TIP3    H225289   3.922   6.102   5.490 -0.6494 -1.3024 -0.5972
 1292TIP3   OH225290   1.188   3.651  11.092 -0.1492 -0.2238  0.3877
 1292TIP3    H125291   1.156   3.597  11.020 -1.5162  0.3757  0.4993
 1292TIP3    H225292   1.214   3.733  11.050 -0.9385  0.1226  0.5407
 1293TIP3   OH225293   3.552   4.709  14.015  0.6517 -0.1784 -0.0775
 1293TIP3    H125294   3.563   4.716  13.921 -0.4800 -0.2517 -0.2287
 1293TIP3    H225295   3.624   4.654  14.044  1.0747 -0.0568 -0.8779
 1294TIP3   OH225296   4.199   3.877  12.866  0.0166 -0.4339 -0.7752
 1294TIP3    H125297   4.252   3.800  12.883  1.1416  0.7160  1.4021
 1294TIP3    H225298   4.109   3.848  12.883  0.2767 -1.5672 -1.2583
 1295TIP3   OH225299   3.401   4.160   5.850  0.0739 -0.6621 -0.1430
 1295TIP3    H125300   3.474   4.099   5.858  0.1159 -0.4906  1.0686
 1295TIP3    H225301   3.442   4.246   5.836  0.0757 -0.6951 -0.3353
 1296TIP3   OH225302   1.716   0.149   0.758 -0.0354 -0.5455 -0.4343
 1296TIP3    H125303   1.807   0.158   0.727  0.7608 -0.6232  1.7314
 1296TIP3    H225304   1.723   0.096   0.837 -2.0272 -0.7375 -0.3364
 1297TIP3   OH225305   3.927   1.700   5.090 -0.6009  1.1150 -0.3490
 1297TIP3    H125306   3.880   1.719   5.009  0.2122  0.6162 -0.9625
 1297TIP3    H225307   4.018   1.724   5.071 -0.0606 -0.6402 -0.2072
 1298TIP3   OH225308   6.122   4.256  12.522 -0.5866 -0.0834 -0.1975
 1298TIP3    H125309   6.040   4.234  12.567 -0.7037  2.3919  0.9422
 1298TIP3    H225310   6.097   4.266  12.431 -1.8266  1.7127  0.2944
 1299TIP3   OH225311   3.150   6.188   5.214 -0.5677 -0.0015  0.0216
 1299TIP3    H125312   3.164   6.198   5.308 -0.9184 -0.6345  0.1468
 1299TIP3    H225313   3.236   6.168   5.179 -0.3102  0.8979  0.1060
 1300TIP3   OH225314   3.298   3.604   2.165 -0.0714  0.9296 -0.8587
 1300TIP3    H125315   3.339   3.660   2.231  0.4505  1.9616 -2.0053
 1300TIP3    H225316   3.204   3.619   2.175 -0.0605  0.3942  0.2086
 1301TIP3   OH225317   2.893   1.824  15.328 -0.7540 -0.3097 -0.0947
 1301TIP3    H125318   2.976   1.860  15.298 -0.1730 -1.1545  0.4479
 1301TIP3    H225319   2.888   1.737  15.287 -2.0479  0.2881 -1.2529
 1302TIP3   OH225320   3.962   2.498   4.829  0.1966  0.3052  0.1251
 1302TIP3    H125321   3.930   2.564   4.767  0.2688 -0.6907 -1.0192
 1302TIP3    H225322   4.036   2.540   4.873  0.2218  1.0018 -0.5472
 1303TIP3   OH225323   1.924   0.249   0.102  0.0806  0.1517  0.0935
 1303TIP3    H125324   1.984   0.174   0.100  0.6055  0.4545  2.0266
 1303TIP3    H225325   1.982   0.326   0.105 -0.4309  0.7891 -3.0420
 1304TIP3   OH225326   4.791   1.528   6.701  0.3879 -0.0232  0.1035
 1304TIP3    H125327   4.873   1.569   6.672  0.8735 -1.0635 -0.0404
 1304TIP3    H225328   4.730   1.542   6.629  1.4680 -2.2627 -1.3943
 1305TIP3   OH225329   6.345   1.589  14.522 -0.1358 -0.4906 -0.2329
 1305TIP3    H125330   6.305   1.620  14.603  0.5923  0.7195 -0.3211
 1305TIP3    H225331   6.440   1.592  14.539  0.0473  0.3614 -1.3272
 1306TIP3   OH225332   5.958   0.585  15.048  0.3283 -0.6628  0.2616
 1306TIP3    H125333   6.000   0.500  15.033 -0.4261 -1.0155  0.0970
 1306TIP3    H225334   5.875   0.579  15.001 -0.3040 -0.3058  1.3060
 1307TIP3   OH225335   1.353   2.718   0.502 -0.1466  0.6308  0.1165
 1307TIP3    H125336   1.439   2.717   0.546 -0.2791  0.1563  0.3731
 1307TIP3    H225337   1.303   2.785   0.550  0.9659  3.0035 -1.8087
 1308TIP3   OH225338   1.558   6.357   0.278 -0.7056  0.2316  0.2936
 1308TIP3    H125339   1.482   6.315   0.238  1.0145 -1.7265 -1.1673
 1308TIP3    H225340   1.600   6.287   0.329  0.3625  1.1322  0.6888
 1309TIP3   OH225341   3.465   3.428  12.812 -0.3767 -0.3226 -0.2050
 1309TIP3    H125342   3.370   3.431  12.820 -0.3920 -1.1347  0.0153
 1309TIP3    H225343   3.489   3.514  12.777 -1.1901 -0.1239 -0.2935
 1310TIP3   OH225344   2.009   5.817  11.287 -0.7527 -0.8323  0.0825
 1310TIP3    H125345   1.962   5.737  11.265 -0.2957 -1.2577  0.6336
 1310TIP3    H225346   2.070   5.830  11.215 -2.0309  0.0064 -0.9048
 1311TIP3   OH225347   1.986   5.883  13.424 -0.1736  0.1857 -0.2790
 1311TIP3    H125348   1.963   5.793  13.445 -0.0730  0.4561  1.0430
 1311TIP3    H225349   2.058   5.875  13.361 -1.9224 -0.6389 -2.2876
 1312TIP3   OH225350   1.092   3.054   2.430 -0.0273 -0.2891 -0.0069
 1312TIP3    H125351   1.164   3.107   2.395  0.1402 -0.2550  0.3867
 1312TIP3    H225352   1.132   3.000   2.498  0.0644 -1.8829 -1.2650
 1313TIP3   OH225353   6.160   1.241  14.194  0.1679  0.2883 -0.0046
 1313TIP3    H125354   6.121   1.328  14.203  2.6945  1.2497  3.6078
 1313TIP3    H225355   6.167   1.228  14.099 -1.1504  3.5567 -0.6938
 1314TIP3   OH225356   0.827   3.944   3.501  0.2259  0.2214  0.1107
 1314TIP3    H125357   0.896   3.936   3.566  0.5452  0.4801 -0.1896
 1314TIP3    H225358   0.810   4.038   3.495 -2.1631  0.0135  2.2472
 1315TIP3   OH225359   1.167   5.789   5.272 -0.4416  0.1402  0.1649
 1315TIP3    H125360   1.263   5.792   5.275 -0.4055 -0.6071  0.1094
 1315TIP3    H225361   1.143   5.851   5.204  0.0472 -0.0956 -0.2309
 1316TIP3   OH225362   3.697   0.334  11.808  0.2070  0.6374 -0.2432
 1316TIP3    H125363   3.609   0.299  11.819  0.6181 -0.4726 -0.3719
 1316TIP3    H225364   3.702   0.358  11.715  0.8327 -1.6241 -0.8488
 1317TIP3   OH225365   4.992   2.011   3.473 -0.0146  0.2192 -0.4887
 1317TIP3    H125366   4.997   2.058   3.390  0.6978 -0.1018 -0.6372
 1317TIP3    H225367   4.971   2.079   3.538 -2.7104  0.1435 -1.1887
 1318TIP3   OH225368   5.792   0.760  14.430  0.0716 -0.1510  0.5638
 1318TIP3    H125369   5.747   0.819  14.369  0.6881 -1.4526 -1.2382
 1318TIP3    H225370   5.885   0.782  14.420  0.3973 -1.8286 -0.7120
 1319TIP3   OH225371   2.463   6.211   1.787  0.2944  0.1944 -0.4280
 1319TIP3    H125372   2.466   6.224   1.881 -2.5130  0.8969 -0.3781
 1319TIP3    H225373   2.428   6.122   1.775  0.4390  0.1843 -0.8224
 1320TIP3   OH225374   0.110   0.181  12.749 -0.2220  0.1700  0.6875
 1320TIP3    H125375   0.033   0.236  12.761 -1.2051 -0.8193 -0.6577
 1320TIP3    H225376   0.179   0.241  12.720 -0.5828  1.0184  1.5580
 1321TIP3   OH225377   4.693   3.277  12.058  0.2260  0.1226 -0.1336
 1321TIP3    H125378   4.608   3.291  12.099 -1.3944 -0.5773 -2.9671
 1321TIP3    H225379   4.679   3.203  11.999  1.3050  2.8897 -4.3282
 1322TIP3   OH225380   2.570   0.128   0.465 -0.1240  0.1637 -0.8925
 1322TIP3    H125381   2.591   0.035   0.473  0.1498  0.2411 -0.6657
 1322TIP3    H225382   2.636   0.171   0.519  0.4502  0.5656 -1.8931
 1323TIP3   OH225383   5.203   1.393   3.239  0.3808 -0.1378 -0.2810
 1323TIP3    H125384   5.247   1.390   3.154  2.8175 -0.3647  0.9026
 1323TIP3    H225385   5.126   1.338   3.227 -1.2553  2.4737 -3.2623
 1324TIP3   OH225386   5.618   1.650  16.768 -0.2802 -0.0577  0.0893
 1324TIP3    H125387   5.584   1.576  16.818 -1.0330 -0.3702 -0.8640
 1324TIP3    H225388   5.543   1.683  16.720  0.9224 -1.6878 -3.2696
 1325TIP3   OH225389   2.897   1.783  11.144 -0.1006  0.0543 -0.3851
 1325TIP3    H125390   2.939   1.814  11.224  0.6840 -0.3690 -0.6149
 1325TIP3    H225391   2.954   1.712  11.114 -0.5186  0.0467 -1.1836
 1326TIP3   OH225392   6.045   4.015   3.502  0.2503 -0.0151  0.5804
 1326TIP3    H125393   5.961   4.060   3.508 -1.6591 -3.3601  1.8532
 1326TIP3    H225394   6.058   4.001   3.408 -1.3034 -0.5001  0.4081
 1327TIP3   OH225395   4.033   1.578  15.388  0.5804  0.0701 -0.4392
 1327TIP3    H125396   3.969   1.515  15.354  0.7688 -0.5147  0.2456
 1327TIP3    H225397   4.025   1.654  15.331  0.1550 -0.4740 -1.1246
 1328TIP3   OH225398   5.511   3.927   4.020  0.2939 -0.1583 -0.3345
 1328TIP3    H125399   5.510   4.022   4.012  1.2918 -0.1833 -0.9125
 1328TIP3    H225400   5.471   3.896   3.939  0.5165 -0.2389 -0.4137
 1329TIP3   OH225401   4.930   5.592   0.210  0.3974 -0.2247 -0.5005
 1329TIP3    H125402   4.962   5.659   0.269  1.3218  0.0267 -1.2610
 1329TIP3    H225403   5.001   5.529   0.204 -0.4895 -1.3390  0.2658
 1330TIP3   OH225404   2.737   3.894   4.632 -0.4692  0.4758  0.8651
 1330TIP3    H125405   2.804   3.826   4.631 -0.4258  0.5205  0.7614
 1330TIP3    H225406   2.724   3.912   4.725  1.3291  2.0969  0.8669
 1331TIP3   OH225407   4.826   2.851  15.202  0.4526  0.2227  0.2048
 1331TIP3    H125408   4.875   2.899  15.135  1.2440  1.0085  1.3076
 1331TIP3    H225409   4.856   2.760  15.192 -0.3723  0.0737 -1.2870
 1332TIP3   OH225410   3.510   1.041   0.699  0.3709  0.0495 -0.3633
 1332TIP3    H125411   3.574   0.977   0.668 -0.5183  0.0211 -2.2893
 1332TIP3    H225412   3.428   1.016   0.656 -0.4418  1.3453  0.3628
 1333TIP3   OH225413   3.701   6.570   3.305  0.6556 -0.6369  0.5208
 1333TIP3    H125414   3.661   6.644   3.259  0.1573 -0.4100  1.2938
 1333TIP3    H225415   3.761   6.532   3.241  1.0020  0.4989  0.1446
 1334TIP3   OH225416   6.724   4.748   3.201  0.3352 -0.2984  0.4272
 1334TIP3    H125417   6.777   4.672   3.223 -0.0600 -0.6270  0.2383
 1334TIP3    H225418   6.768   4.788   3.126 -0.7993 -1.7453 -1.0858
 1335TIP3   OH225419   4.719   1.164  13.499 -0.7043 -0.0489  0.4478
 1335TIP3    H125420   4.740   1.163  13.592  0.5501 -3.3998  0.2921
 1335TIP3    H225421   4.779   1.229  13.461  0.5074 -0.3975  1.7014
 1336TIP3   OH225422   2.185   5.276   2.324 -0.2489  0.1283 -0.5312
 1336TIP3    H125423   2.264   5.292   2.375 -0.6162  0.7391 -0.1306
 1336TIP3    H225424   2.135   5.213   2.376  0.3749 -0.9573 -1.2239
 1337TIP3   OH225425   0.446   1.391   1.490 -0.6444  0.3861 -0.3613
 1337TIP3    H125426   0.423   1.464   1.549 -0.6733  1.9496 -2.2078
 1337TIP3    H225427   0.468   1.319   1.549 -2.3973  1.3037  1.5541
 1338TIP3   OH225428   1.513   4.376  12.118 -0.4696  0.1264  0.4758
 1338TIP3    H125429   1.487   4.467  12.106  0.2631  0.1037 -1.8401
 1338TIP3    H225430   1.431   4.330  12.136 -1.0481  1.0608  0.2971
 1339TIP3   OH225431   0.584   6.577  12.464  0.2576  0.1071 -0.1050
 1339TIP3    H125432   0.602   6.528  12.545 -2.1604  1.7789  1.6070
 1339TIP3    H225433   0.643   6.652  12.468 -0.2366  0.4764  0.4306
 1340TIP3   OH225434   2.721   4.246  14.896  0.0774 -0.0304 -0.1887
 1340TIP3    H125435   2.649   4.310  14.896  0.8893  0.9834  1.6262
 1340TIP3    H225436   2.800   4.300  14.905  0.8882 -1.2270  0.0638
 1341TIP3   OH225437   6.009   4.241   4.008  0.7499 -0.1534  0.4723
 1341TIP3    H125438   6.028   4.270   4.097  1.1673  0.4025  0.2105
 1341TIP3    H225439   5.995   4.147   4.016  1.3886 -0.2085  1.0363
 1342TIP3   OH225440   3.634   0.018  16.545 -0.0678  0.2641 -0.8534
 1342TIP3    H125441   3.596  -0.028  16.620  0.9155 -0.3381 -0.7155
 1342TIP3    H225442   3.579  -0.007  16.471 -0.0433 -0.4736 -0.6266
 1343TIP3   OH225443   0.947   5.665   4.231 -0.5910  0.1722 -0.3256
 1343TIP3    H125444   0.867   5.716   4.221 -1.2087 -1.0388 -2.1180
 1343TIP3    H225445   1.009   5.704   4.169 -0.9108 -0.9010 -1.3533
 1344TIP3   OH225446   0.596   0.658   3.961  0.3239 -0.2519  0.7103
 1344TIP3    H125447   0.539   0.730   3.933 -0.3480 -0.6154  1.1126
 1344TIP3    H225448   0.685   0.689   3.943 -0.0334 -1.2199 -3.8436
 1345TIP3   OH225449   5.615   3.143   5.141  0.7868  0.4082 -0.5816
 1345TIP3    H125450   5.617   3.217   5.079  0.7707  0.4445 -0.5384
 1345TIP3    H225451   5.602   3.066   5.086 -0.6748  0.5737 -0.5058
 1346TIP3   OH225452   5.612   0.463  15.444  0.0352 -0.2139  0.0144
 1346TIP3    H125453   5.598   0.553  15.413 -0.1413 -0.7305 -1.4536
 1346TIP3    H225454   5.543   0.450  15.510  0.1246  0.7482  0.3216
 1347TIP3   OH225455   0.878   5.372   4.259  0.0708 -0.0753  0.5055
 1347TIP3    H125456   0.946   5.382   4.325  1.2567 -0.0182 -0.6820
 1347TIP3    H225457   0.853   5.461   4.235  0.9961 -0.0692 -0.4626
 1348TIP3   OH225458   1.655   2.751   0.466 -0.3555  0.3782 -0.1571
 1348TIP3    H125459   1.664   2.673   0.413 -1.3884 -0.3521  0.6846
 1348TIP3    H225460   1.745   2.778   0.486  0.0157 -0.6679 -0.3605
 1349TIP3   OH225461   2.532   0.408  16.058 -0.0082 -0.1195  0.5621
 1349TIP3    H125462   2.460   0.428  16.117 -0.6679 -1.9916  0.4571
 1349TIP3    H225463   2.610   0.408  16.114 -0.1935  1.0796  0.8365
 1350TIP3   OH225464   1.155   0.538   1.183 -0.0248 -0.2616 -0.0747
 1350TIP3    H125465   1.248   0.518   1.177  0.0668  0.6224 -2.3001
 1350TIP3    H225466   1.144   0.620   1.136 -1.8935 -0.1511  0.4433
 1351TIP3   OH225467   4.707   5.231  10.545 -0.5680 -0.2568  0.0213
 1351TIP3    H125468   4.653   5.223  10.466 -1.2710  0.7448  0.3844
 1351TIP3    H225469   4.780   5.170  10.530  1.3198  2.4627 -3.0535
 1352TIP3   OH225470   5.969   2.019   3.134 -0.6196  0.2865 -0.1777
 1352TIP3    H125471   6.015   2.009   3.217 -1.0126  1.8018  0.2601
 1352TIP3    H225472   5.999   1.946   3.081  1.2388  0.4550  0.5605
 1353TIP3   OH225473   1.013   2.147  15.474 -0.2944 -0.8944 -0.3723
 1353TIP3    H125474   1.035   2.221  15.416  1.6025 -0.8312  0.3620
 1353TIP3    H225475   0.943   2.180  15.530 -1.5465 -0.6641 -1.9930
 1354TIP3   OH225476   3.470   1.994  11.157  0.5213  0.3145 -0.4261
 1354TIP3    H125477   3.471   2.020  11.065 -1.1943  0.1955 -0.5075
 1354TIP3    H225478   3.429   1.908  11.157 -0.3686  0.7067  0.5054
 1355TIP3   OH225479   6.220   1.831   5.618 -0.7819  0.0139  0.0941
 1355TIP3    H125480   6.249   1.917   5.649 -0.8258  0.0344  0.0785
 1355TIP3    H225481   6.193   1.785   5.697 -0.0326 -0.2681  0.1992
 1356TIP3   OH225482   3.696   5.082  15.816 -0.0277  0.3083  0.3022
 1356TIP3    H125483   3.642   5.005  15.830  0.9541 -0.4601 -0.0012
 1356TIP3    H225484   3.661   5.148  15.876 -2.1091  0.2753 -0.7881
 1357TIP3   OH225485   0.043   0.110  11.994 -0.1468 -0.3543 -0.5036
 1357TIP3    H125486   0.022   0.203  11.981  2.8970  0.6755  0.9732
 1357TIP3    H225487   0.017   0.092  12.084  0.1557 -0.6553 -0.4769
 1358TIP3   OH225488   0.337   5.108  14.022 -0.0642  1.2925  0.5468
 1358TIP3    H125489   0.382   5.038  14.069  1.0477  1.9503  0.5285
 1358TIP3    H225490   0.264   5.066  13.979  1.0810 -0.0240 -0.1853
 1359TIP3   OH225491   1.737   3.700  11.390 -0.0842  0.4183  0.1737
 1359TIP3    H125492   1.818   3.732  11.352 -0.5645  0.1667 -1.0986
 1359TIP3    H225493   1.668   3.742  11.340 -0.7515  0.3896  1.0325
 1360TIP3   OH225494   5.998   1.236   2.803  0.2935  0.4399 -0.0519
 1360TIP3    H125495   6.001   1.144   2.829  0.9133  0.9323  1.8511
 1360TIP3    H225496   5.905   1.254   2.790  0.0128 -0.1162  1.0219
 1361TIP3   OH225497   0.627   2.722   0.550 -0.1591 -0.8694  0.0599
 1361TIP3    H125498   0.553   2.743   0.492 -1.0823 -1.4495  0.9998
 1361TIP3    H225499   0.673   2.651   0.505 -0.4603 -0.8450 -0.2902
 1362TIP3   OH225500   3.594   1.518   0.960  0.1741 -0.3635 -0.2343
 1362TIP3    H125501   3.595   1.610   0.932 -0.0014 -0.3238 -0.1136
 1362TIP3    H225502   3.537   1.474   0.898  0.9236 -0.5608 -0.8022
 1363TIP3   OH225503   0.156   3.513   2.884  0.1761  0.5190 -0.3796
 1363TIP3    H125504   0.230   3.463   2.849 -0.2255 -0.5684  0.2871
 1363TIP3    H225505   0.087   3.503   2.818  0.3117  0.7483 -0.5572
 1364TIP3   OH225506   5.778   0.970  12.233  0.2715  0.0219 -0.2855
 1364TIP3    H125507   5.706   0.945  12.290 -0.7771  2.1604 -0.5840
 1364TIP3    H225508   5.756   0.933  12.148  0.3732 -0.7054 -0.0039
 1365TIP3   OH225509   2.519   3.423  15.867 -0.3600 -0.0206 -0.0356
 1365TIP3    H125510   2.578   3.372  15.922  1.4256  2.5162  0.5474
 1365TIP3    H225511   2.529   3.386  15.779  0.1465 -1.2687  0.5345
 1366TIP3   OH225512   1.145   5.388  15.417  0.4790  0.7570  0.0096
 1366TIP3    H125513   1.218   5.388  15.355 -0.6534 -0.5763 -1.4163
 1366TIP3    H225514   1.145   5.300  15.454 -0.5397  0.6718 -0.1738
 1367TIP3   OH225515   3.838   6.091   1.666  0.3865  0.0657 -0.4348
 1367TIP3    H125516   3.830   6.021   1.601 -0.2999 -0.3825  0.1132
 1367TIP3    H225517   3.839   6.172   1.614 -0.5357 -0.2596 -0.9917
 1368TIP3   OH225518   4.267   6.200  11.895 -0.1089 -0.2479 -0.3131
 1368TIP3    H125519   4.228   6.242  11.818 -0.0988  2.6342  1.1064
 1368TIP3    H225520   4.320   6.269  11.935 -0.3282 -1.5322  2.4176
 1369TIP3   OH225521   1.818   1.250   4.156  0.1038  0.1301 -0.1166
 1369TIP3    H125522   1.843   1.341   4.170  0.2371  0.1739 -0.6001
 1369TIP3    H225523   1.832   1.208   4.240 -0.4820  0.6726  0.2602
 1370TIP3   OH225524   6.312   2.021  15.138 -0.3331  0.1801 -0.1471
 1370TIP3    H125525   6.227   2.013  15.180  0.3373  1.0379  1.4965
 1370TIP3    H225526   6.322   2.115  15.122  0.6090  0.1916  0.4097
 1371TIP3   OH225527   5.672   6.344  17.193  0.3066  0.0585 -0.2547
 1371TIP3    H125528   5.642   6.274  17.251 -1.5575  1.3846  0.4989
 1371TIP3    H225529   5.757   6.370  17.229 -0.6409  0.6124  1.7404
 1372TIP3   OH225530   5.841   1.754   3.510 -0.0187  0.6993  0.3684
 1372TIP3    H125531   5.793   1.701   3.573 -0.8302  1.7637  0.6662
 1372TIP3    H225532   5.887   1.690   3.455 -0.8941 -0.2997  0.7752
 1373TIP3   OH225533   5.631   5.662   2.368 -0.1771  0.4239 -0.1197
 1373TIP3    H125534   5.591   5.575   2.375 -2.3182  1.3186 -0.2646
 1373TIP3    H225535   5.639   5.692   2.459  1.3957 -0.2285 -0.0118
 1374TIP3   OH225536   6.177   0.739   0.179 -0.9494  0.3037 -0.3187
 1374TIP3    H125537   6.249   0.687   0.144 -0.6723 -1.4559  2.5553
 1374TIP3    H225538   6.221   0.811   0.226 -1.2064  0.8298 -0.8661
 1375TIP3   OH225539   4.107   1.958  12.037 -0.0183 -0.2981  0.0489
 1375TIP3    H125540   4.053   1.887  12.074  0.3934 -0.0180  1.2073
 1375TIP3    H225541   4.100   2.029  12.100  0.3526  0.3610 -0.6364
 1376TIP3   OH225542   0.871   4.190  16.849 -0.3802  0.4976 -0.1056
 1376TIP3    H125543   0.908   4.231  16.771  0.4877  0.9858  0.5479
 1376TIP3    H225544   0.778   4.182  16.830  0.2520 -3.1889 -2.9561
 1377TIP3   OH225545   3.921   6.104   6.523 -0.2713  0.5089  0.3276
 1377TIP3    H125546   3.996   6.133   6.575  0.5253 -1.1209  0.1542
 1377TIP3    H225547   3.856   6.173   6.533  1.4875  2.2970 -0.0312
 1378TIP3   OH225548   5.695   0.067  13.763  0.0889 -0.2839 -0.1220
 1378TIP3    H125549   5.680  -0.026  13.747 -0.9058 -0.2468  0.4715
 1378TIP3    H225550   5.611   0.109  13.745  0.0179  0.2520  1.2623
 1379TIP3   OH225551   0.518   6.040   2.199  0.1074  0.1961  0.2010
 1379TIP3    H125552   0.558   5.999   2.123  1.7054 -0.8135  1.5107
 1379TIP3    H225553   0.441   5.986   2.218  2.3908 -2.6992  2.1349
 1380TIP3   OH225554   6.506   3.644  12.745 -0.8039 -0.6602 -0.0522
 1380TIP3    H125555   6.425   3.596  12.727 -0.7926 -0.7287  0.0775
 1380TIP3    H225556   6.569   3.608  12.682 -0.0475 -2.7520  1.7818
 1381TIP3   OH225557   5.896   3.323  12.152 -0.4516 -0.0797 -0.1347
 1381TIP3    H125558   5.866   3.310  12.062  1.2842  0.3714 -0.8270
 1381TIP3    H225559   5.987   3.351  12.143 -0.2537  0.0355  1.7731
 1382TIP3   OH225560   1.186   0.470   6.139  0.3660  0.4854 -0.0488
 1382TIP3    H125561   1.161   0.468   6.047 -0.5007  0.8985  0.1668
 1382TIP3    H225562   1.159   0.556   6.169  1.5908  0.7492  0.3444
 1383TIP3   OH225563   5.153   6.387  12.215 -0.3118 -0.5244  0.1492
 1383TIP3    H125564   5.231   6.354  12.171  0.8544  0.3600  1.4974
 1383TIP3    H225565   5.155   6.346  12.302 -1.5974 -0.8281  0.0617
 1384TIP3   OH225566   1.649   3.353   2.997  0.1698  0.4002  0.3905
 1384TIP3    H125567   1.600   3.416   3.049 -1.9086 -1.0751  0.3551
 1384TIP3    H225568   1.600   3.347   2.915 -0.1922 -1.8078  0.7050
 1385TIP3   OH225569   2.125   3.527  16.078  0.4643  0.0810  0.4800
 1385TIP3    H125570   2.162   3.444  16.107  2.5488  1.1756  1.2316
 1385TIP3    H225571   2.070   3.505  16.003  1.2389 -1.9137  0.4500
 1386TIP3   OH225572   0.358   0.024  12.053 -0.1034  0.1548  0.0428
 1386TIP3    H125573   0.291   0.063  12.110 -2.5094 -2.1567 -0.9640
 1386TIP3    H225574   0.440   0.064  12.081 -1.5350  1.2575  3.1386
 1387TIP3   OH225575   3.588   0.561   1.389 -0.3386 -0.6363  0.8847
 1387TIP3    H125576   3.650   0.602   1.450 -0.3900 -0.4105  0.7892
 1387TIP3    H225577   3.643   0.519   1.324 -0.2843 -0.1757  0.6313
 1388TIP3   OH225578   5.644   3.791  16.516 -0.3581 -0.5967  0.0053
 1388TIP3    H125579   5.712   3.736  16.477  0.0043  0.0911 -0.3377
 1388TIP3    H225580   5.691   3.867  16.549 -0.8892 -0.3877  0.2793
 1389TIP3   OH225581   2.667   3.984   5.262 -0.9000  0.1787  0.1407
 1389TIP3    H125582   2.628   4.039   5.193 -1.0157 -1.1793 -0.9264
 1389TIP3    H225583   2.759   3.976   5.238 -0.5945  0.9480  1.0125
 1390TIP3   OH225584   1.643   1.703  11.923  0.0449 -0.8218  0.3278
 1390TIP3    H125585   1.675   1.717  12.012  2.8519  0.4131 -0.7696
 1390TIP3    H225586   1.664   1.612  11.903  3.0431 -0.0976 -0.2998
 1391TIP3   OH225587   2.058   1.273  15.211 -0.1903 -0.2046  0.0858
 1391TIP3    H125588   2.119   1.301  15.279 -0.2002  0.3342 -0.1180
 1391TIP3    H225589   2.108   1.278  15.130  0.3058 -2.3467  0.1935
 1392TIP3   OH225590   4.802   5.426  10.712 -0.4743  0.4657 -0.0860
 1392TIP3    H125591   4.769   5.365  10.646 -0.4786  0.2820  0.0854
 1392TIP3    H225592   4.875   5.471  10.669 -0.7897  0.6960 -0.3826
 1393TIP3   OH225593   0.888   5.562   2.575 -0.6321 -0.1624 -0.1733
 1393TIP3    H125594   0.838   5.542   2.654 -0.1899 -3.5315 -0.6043
 1393TIP3    H225595   0.834   5.527   2.504  0.7643 -0.7502 -0.9742
 1394TIP3   OH225596   2.402   2.573  11.520  0.2288  0.2449 -0.5512
 1394TIP3    H125597   2.416   2.654  11.471 -1.8818  0.9856 -0.0414
 1394TIP3    H225598   2.367   2.511  11.456 -1.4102  0.8480 -0.2918
 1395TIP3   OH225599   3.811   2.076   3.462  0.2185 -0.1127  0.0447
 1395TIP3    H125600   3.840   2.120   3.382 -0.0052  2.4467  1.2903
 1395TIP3    H225601   3.892   2.061   3.512  0.2420 -0.6683 -0.1585
 1396TIP3   OH225602   5.179   1.642  16.436  0.0221  0.3653  0.2953
 1396TIP3    H125603   5.186   1.694  16.356 -0.7336  0.3782  0.2229
 1396TIP3    H225604   5.197   1.703  16.507 -1.0565  0.7895  0.2217
 1397TIP3   OH225605   0.398   4.593  16.729 -0.1414  0.0906 -0.8555
 1397TIP3    H125606   0.304   4.606  16.740 -0.1152 -0.7871  0.8588
 1397TIP3    H225607   0.437   4.635  16.805  0.7898 -0.1174 -1.2076
 1398TIP3   OH225608   0.384   4.955  14.471 -0.0320 -0.0417  0.4548
 1398TIP3    H125609   0.306   5.006  14.448  0.3233  0.9317  1.3457
 1398TIP3    H225610   0.424   5.003  14.543  1.9957  0.0596 -0.6606
 1399TIP3   OH225611   0.548   5.307  15.884 -0.2891  0.0012 -0.0745
 1399TIP3    H125612   0.608   5.300  15.810  0.8929 -0.8070  0.9131
 1399TIP3    H225613   0.473   5.252  15.860 -1.1895  1.8466 -1.7694
 1400TIP3   OH225614   0.531   1.284  12.371  0.2003 -0.1515 -0.0412
 1400TIP3    H125615   0.492   1.201  12.400  0.2797 -0.2138 -0.1135
 1400TIP3    H225616   0.621   1.280  12.402  0.3276 -0.2856 -0.4335
 1401TIP3   OH225617   6.351   3.499  14.627  0.5408 -0.1454 -0.0178
 1401TIP3    H125618   6.428   3.523  14.678 -0.4447  1.1288  0.9667
 1401TIP3    H225619   6.298   3.447  14.688  0.2016 -0.2236 -0.3741
 1402TIP3   OH225620   6.140   5.614   2.227 -0.4995  0.0790 -0.3105
 1402TIP3    H125621   6.076   5.588   2.293  1.3326  0.6278  1.7580
 1402TIP3    H225622   6.204   5.544   2.226  0.3449  0.8304 -0.3275
 1403TIP3   OH225623   0.984   3.420   3.709  0.5044 -0.0941  0.3625
 1403TIP3    H125624   0.955   3.331   3.730  1.1704 -0.2231  0.7632
 1403TIP3    H225625   0.954   3.434   3.619  0.0231 -0.5641  0.4398
 1404TIP3   OH225626   2.308   0.119  16.875 -0.5528 -0.2245 -0.1249
 1404TIP3    H125627   2.266   0.127  16.961  2.1562 -0.0442  1.2606
 1404TIP3    H225628   2.381   0.058  16.889  1.3270  1.5399 -1.7014
 1405TIP3   OH225629   2.895   4.503  16.445 -0.6649  0.0051  0.1207
 1405TIP3    H125630   2.982   4.478  16.412  0.1621  1.8312  0.7720
 1405TIP3    H225631   2.847   4.532  16.368 -0.4982 -0.4444 -0.1576
 1406TIP3   OH225632   6.734   0.345  15.157  0.2703  0.4480  0.0055
 1406TIP3    H125633   6.815   0.384  15.124  0.8090 -0.1537  0.5858
 1406TIP3    H225634   6.756   0.254  15.174 -0.9248 -0.0843 -1.1410
 1407TIP3   OH225635   5.185   2.041   5.571 -0.4059 -0.3894 -0.3191
 1407TIP3    H125636   5.177   2.106   5.501  0.3864  2.7972  2.2772
 1407TIP3    H225637   5.280   2.031   5.584 -0.5371 -1.1004  0.1825
 1408TIP3   OH225638   2.033   6.527  12.217 -0.2868  0.0848 -0.5106
 1408TIP3    H125639   2.062   6.436  12.211  0.4120  0.2000  0.8087
 1408TIP3    H225640   2.081   6.571  12.147  0.5552 -0.2820 -0.1787
 1409TIP3   OH225641   4.058   1.744   6.050 -0.3961 -0.1273  0.2708
 1409TIP3    H125642   3.978   1.789   6.077 -0.4117  0.2779 -0.4137
 1409TIP3    H225643   4.103   1.807   5.993  0.9676  0.0660  1.5255
 1410TIP3   OH225644   0.865   1.380   3.105  0.4698  0.2634  0.1428
 1410TIP3    H125645   0.834   1.408   3.020 -2.2032 -1.8529  0.2965
 1410TIP3    H225646   0.950   1.341   3.088  0.0656  0.0490 -1.5213
 1411TIP3   OH225647   2.769   0.287  13.699  0.4380 -0.2421  0.3221
 1411TIP3    H125648   2.713   0.217  13.666  1.0641 -0.4173 -0.3894
 1411TIP3    H225649   2.852   0.244  13.719  0.3390  0.0176  1.3605
 1412TIP3   OH225650   0.458   5.946   4.511 -0.2012 -0.1936 -0.0420
 1412TIP3    H125651   0.482   5.856   4.488  0.5355  0.2677 -1.1520
 1412TIP3    H225652   0.437   5.988   4.428  0.2663  0.8948  0.3688
 1413TIP3   OH225653   0.220   5.774   0.060 -0.2789 -0.1453 -0.0663
 1413TIP3    H125654   0.256   5.848   0.010 -0.2632  0.7888  1.2760
 1413TIP3    H225655   0.161   5.731  -0.002  1.2416 -0.2438 -1.5202
 1414TIP3   OH225656   5.339   2.032  16.222  0.2072  0.2489  0.0879
 1414TIP3    H125657   5.433   2.050  16.217 -0.0489  1.8324  0.5123
 1414TIP3    H225658   5.298   2.118  16.213 -1.1539 -0.2314  1.3959
 1415TIP3   OH225659   1.078   4.452  15.132  0.1128  0.3790  0.5373
 1415TIP3    H125660   1.158   4.413  15.168  0.5036 -0.2900 -0.9904
 1415TIP3    H225661   1.010   4.427  15.195  1.0740  0.9949  1.8825
 1416TIP3   OH225662   4.394   1.104  11.390  0.1486 -0.0989 -0.1432
 1416TIP3    H125663   4.298   1.110  11.395 -0.2239 -0.2652 -4.0562
 1416TIP3    H225664   4.424   1.194  11.389 -0.3642  0.1073 -2.2458
 1417TIP3   OH225665   1.764   0.543  12.126  0.4246 -0.1657 -0.2794
 1417TIP3    H125666   1.798   0.453  12.135  1.6390  0.2982  0.0176
 1417TIP3    H225667   1.820   0.595  12.184 -0.0564  0.8348 -0.7015
 1418TIP3   OH225668   1.064   6.660  11.784  0.1647  0.3734 -0.0471
 1418TIP3    H125669   1.133   6.596  11.764  1.2995  1.4568  0.2394
 1418TIP3    H225670   1.074   6.728  11.717 -1.2913  0.0731 -0.6028
 1419TIP3   OH225671   3.007   5.633  12.714  0.4616 -0.7333  0.4361
 1419TIP3    H125672   2.996   5.703  12.649 -1.2252  0.7762  2.2089
 1419TIP3    H225673   2.927   5.580  12.705  0.1558 -0.4374  1.3265
 1420TIP3   OH225674   5.525   0.721   5.636 -0.3508  0.1471 -0.0714
 1420TIP3    H125675   5.574   0.671   5.702  1.3621  2.5645  0.6041
 1420TIP3    H225676   5.523   0.663   5.560  0.1021 -1.5846  1.1641
 1421TIP3   OH225677   6.678   0.085   4.754  0.1077 -0.2345 -0.2587
 1421TIP3    H125678   6.602   0.029   4.765 -0.3223  0.5903  1.3916
 1421TIP3    H225679   6.753   0.025   4.755 -0.3227 -0.8233  1.7132
 1422TIP3   OH225680   5.109   4.165   3.356  0.1863 -0.1129 -0.1926
 1422TIP3    H125681   5.203   4.157   3.375  0.0100 -0.8870  0.4477
 1422TIP3    H225682   5.104   4.226   3.283  1.1246  0.7120  0.4039
 1423TIP3   OH225683   3.347   5.379   0.666 -0.0013  0.2965 -0.0276
 1423TIP3    H125684   3.299   5.303   0.697 -0.6475  1.2558  1.4179
 1423TIP3    H225685   3.438   5.349   0.660 -0.1024 -0.3761  1.3457
 1424TIP3   OH225686   1.565   2.439   5.764 -0.1640  0.1971 -0.0301
 1424TIP3    H125687   1.598   2.510   5.709  2.3484 -0.6201  0.3133
 1424TIP3    H225688   1.527   2.483   5.840  0.7869  1.1898 -0.1132
 1425TIP3   OH225689   6.149   6.671   0.429 -0.4622 -0.5111 -0.0092
 1425TIP3    H125690   6.218   6.643   0.487  0.7854 -0.1755 -1.2704
 1425TIP3    H225691   6.192   6.683   0.344 -1.7285  1.2173 -0.4730
 1426TIP3   OH225692   0.674   3.991  12.555 -0.2875 -0.2278 -0.3286
 1426TIP3    H125693   0.674   4.022  12.464  0.6553  0.2254 -0.1942
 1426TIP3    H225694   0.728   3.913  12.554 -0.3705 -0.2876 -0.1792
 1427TIP3   OH225695   4.402   5.388  14.817 -0.0211  0.1628 -0.0166
 1427TIP3    H125696   4.413   5.443  14.894 -0.8811  2.1220 -1.2113
 1427TIP3    H225697   4.491   5.357  14.796  0.1139 -1.1097  2.1800
 1428TIP3   OH225698   4.377   5.910  11.647 -0.0322  0.0311  0.0744
 1428TIP3    H125699   4.366   5.920  11.741  1.1409  1.4361  0.0981
 1428TIP3    H225700   4.393   5.817  11.634 -0.2176 -0.1806  1.2545
 1429TIP3   OH225701   0.390   1.328   0.623  0.4617  0.0636  0.2112
 1429TIP3    H125702   0.437   1.366   0.697  2.2318  0.9015 -1.2611
 1429TIP3    H225703   0.306   1.373   0.622  0.4542  0.1098  1.6305
 1430TIP3   OH225704   3.414   5.379   4.546  0.4001  0.5782 -0.0843
 1430TIP3    H125705   3.479   5.354   4.612  0.2876 -0.5873 -0.3983
 1430TIP3    H225706   3.464   5.392   4.466  0.6813  2.9865  0.3988
 1431TIP3   OH225707   0.719   0.672  13.398  0.5646  0.6784 -0.3388
 1431TIP3    H125708   0.664   0.705  13.468  0.7541  0.6425 -0.1710
 1431TIP3    H225709   0.662   0.668  13.322 -0.7786 -2.8774  0.6559
 1432TIP3   OH225710   4.519   0.888   6.120  0.5247  0.5140  0.1613
 1432TIP3    H125711   4.497   0.912   6.030 -0.0289 -0.5688 -0.0125
 1432TIP3    H225712   4.560   0.966   6.157  1.8164  0.6232 -1.3840
 1433TIP3   OH225713   3.301   2.822  11.699 -0.3690  0.6149  0.3585
 1433TIP3    H125714   3.391   2.787  11.701  0.1738  1.6924 -1.9996
 1433TIP3    H225715   3.312   2.917  11.706 -1.4378  0.6774  1.3671
 1434TIP3   OH225716   5.808   2.960   2.951  0.0038 -0.5964  0.1710
 1434TIP3    H125717   5.869   2.925   2.887  2.0065 -0.8114  2.0836
 1434TIP3    H225718   5.757   2.884   2.980  0.5844 -0.9086  0.3849
 1435TIP3   OH225719   2.306   6.181   5.763 -0.5444  0.3487  0.5594
 1435TIP3    H125720   2.326   6.272   5.785 -1.2042  0.7722 -0.5106
 1435TIP3    H225721   2.338   6.130   5.837  1.1071  1.3206  0.5568
 1436TIP3   OH225722   2.501   6.308   6.101 -0.1933 -0.3909  0.0053
 1436TIP3    H125723   2.505   6.214   6.084  1.6441 -0.2755 -0.4024
 1436TIP3    H225724   2.478   6.315   6.194  0.7994 -1.2780  0.3312
 1437TIP3   OH225725   5.525   5.620  13.611 -0.4131  0.0513  0.2301
 1437TIP3    H125726   5.467   5.676  13.558  1.0953  1.6621  0.2009
 1437TIP3    H225727   5.517   5.655  13.699  0.1731  0.0045  0.3026
 1438TIP3   OH225728   5.029   4.924  15.129 -0.1799  0.1007 -0.6246
 1438TIP3    H125729   4.966   4.862  15.091 -1.2888  1.3735 -0.9357
 1438TIP3    H225730   5.031   4.998  15.068  3.4286 -0.8169 -1.8791
 1439TIP3   OH225731   6.019   2.228   5.442  0.4803  0.2137  0.3153
 1439TIP3    H125732   5.965   2.150   5.454  0.2558  0.5105  1.2940
 1439TIP3    H225733   6.064   2.214   5.359 -1.9003  0.4239 -1.0969
 1440TIP3   OH225734   4.985   4.901  15.682  0.6543 -0.1162  0.0234
 1440TIP3    H125735   5.041   4.976  15.658 -0.5556  1.6303  2.2107
 1440TIP3    H225736   5.026   4.865  15.761  0.4574 -0.8752 -0.2151
 1441TIP3   OH225737   0.239   5.246  12.625  0.8226  0.3689 -0.5397
 1441TIP3    H125738   0.189   5.209  12.552 -0.4878  0.3548  0.3253
 1441TIP3    H225739   0.227   5.183  12.697  2.0301  0.4153 -0.2762
 1442TIP3   OH225740   2.454   2.018  16.595 -0.5775  0.2191  0.4308
 1442TIP3    H125741   2.380   2.079  16.588  0.0098  0.8815 -0.2548
 1442TIP3    H225742   2.522   2.068  16.640 -0.1792 -0.0229  0.1013
 1443TIP3   OH225743   3.383   3.116   6.678 -0.2198 -0.2848  0.4529
 1443TIP3    H125744   3.370   3.021   6.689  0.0803 -0.2442  1.1651
 1443TIP3    H225745   3.315   3.141   6.615  2.3779 -1.7105 -3.2816
 1444TIP3   OH225746   5.345   3.285   4.960  0.3332 -0.1091  0.3943
 1444TIP3    H125747   5.427   3.334   4.960  0.9694 -1.1518  0.9033
 1444TIP3    H225748   5.326   3.270   4.868 -0.1207  1.4656  0.1937
 1445TIP3   OH225749   2.249   2.587  13.523  0.4156 -0.3238 -0.2616
 1445TIP3    H125750   2.211   2.665  13.564  0.5310  1.0955 -2.6649
 1445TIP3    H225751   2.173   2.536  13.494  0.2227 -2.4548  3.2658
 1446TIP3   OH225752   2.268   6.764   1.129  0.2314  0.3944  0.3245
 1446TIP3    H125753   2.355   6.726   1.120  0.7592  1.2819  1.4485
 1446TIP3    H225754   2.284   6.855   1.153 -1.0084  0.5903  0.4660
 1447TIP3   OH225755   0.536   2.668   5.340 -0.3152 -0.4441  0.3504
 1447TIP3    H125756   0.608   2.647   5.281 -1.4524  0.2307 -1.3488
 1447TIP3    H225757   0.493   2.584   5.356  0.1883 -0.6802  0.4662
 1448TIP3   OH225758   2.707   5.954   2.391  0.3103 -0.3599 -0.0762
 1448TIP3    H125759   2.676   6.043   2.372  1.7632  0.2814  0.4209
 1448TIP3    H225760   2.660   5.899   2.328  0.4384  0.9294 -1.3680
 1449TIP3   OH225761   1.139   1.632   5.934 -0.4109 -0.2127 -0.2261
 1449TIP3    H125762   1.205   1.571   5.902 -1.2480 -1.4403  0.2905
 1449TIP3    H225763   1.070   1.629   5.868  0.1381  1.2612 -0.8951
 1450TIP3   OH225764   3.056   6.233   3.786 -0.4142 -0.1440  0.0691
 1450TIP3    H125765   3.063   6.146   3.826 -1.2063  0.4684  1.5970
 1450TIP3    H225766   2.971   6.234   3.743 -0.7823  0.1745  0.8020
 1451TIP3   OH225767   0.792   2.212  12.194  0.5850  0.5645 -0.7618
 1451TIP3    H125768   0.757   2.245  12.277  1.5565  0.2945 -0.2314
 1451TIP3    H225769   0.879   2.179  12.216  0.6121 -0.0720 -1.7775
 1452TIP3   OH225770   4.431   4.944   5.902 -0.0498  0.0415 -0.4101
 1452TIP3    H125771   4.383   4.997   5.839 -0.0531  0.1629 -0.3046
 1452TIP3    H225772   4.413   4.984   5.987 -0.3692 -0.3587 -0.2875
 1453TIP3   OH225773   4.559   4.674   5.283 -0.3968 -0.3306 -0.3494
 1453TIP3    H125774   4.576   4.581   5.296  0.0580 -0.7044 -3.0990
 1453TIP3    H225775   4.639   4.709   5.243 -1.2585  0.7907 -1.1796
 1454TIP3   OH225776   2.130   4.624   0.972  1.0835 -0.2718  0.6488
 1454TIP3    H125777   2.143   4.680   0.896 -0.5748  0.9056  1.1919
 1454TIP3    H225778   2.142   4.681   1.047  0.3384 -0.8623  1.2342
 1455TIP3   OH225779   3.799   5.889  13.208 -0.0696  0.3336 -0.0354
 1455TIP3    H125780   3.763   5.963  13.256  0.3801 -0.0507  0.9145
 1455TIP3    H225781   3.764   5.899  13.119  1.9768  3.1021 -0.6718
 1456TIP3   OH225782   6.336   2.029  15.965 -0.4898  0.7698 -0.1773
 1456TIP3    H125783   6.420   2.051  15.924  0.8243 -0.4705  1.7053
 1456TIP3    H225784   6.299   1.961  15.909  1.6634 -1.4969  0.9440
 1457TIP3   OH225785   0.326   3.197  13.392 -0.1417  0.1512  0.5713
 1457TIP3    H125786   0.379   3.226  13.467  0.8831 -0.4469  0.1004
 1457TIP3    H225787   0.327   3.102  13.397  1.1237  0.0444 -0.9658
 1458TIP3   OH225788   0.777   6.132   4.115  0.2779 -0.0477 -0.2471
 1458TIP3    H125789   0.869   6.134   4.140  0.5720 -2.2105 -0.9590
 1458TIP3    H225790   0.775   6.162   4.024  0.6085 -2.0526 -0.9516
 1459TIP3   OH225791   4.260   4.450   4.456  0.1134 -0.1101  0.8214
 1459TIP3    H125792   4.177   4.410   4.481 -1.4337  0.9987 -2.0419
 1459TIP3    H225793   4.308   4.379   4.411 -0.0193 -0.3028  0.9826
 1460TIP3   OH225794   5.232   1.585  11.305  0.1686 -0.1333 -0.4511
 1460TIP3    H125795   5.244   1.517  11.239 -0.1537 -3.6150  2.7029
 1460TIP3    H225796   5.310   1.578  11.360 -0.5873  0.9942  0.8150
 1461TIP3   OH225797   2.126   2.733  16.724  0.0360 -0.1554 -0.4572
 1461TIP3    H125798   2.124   2.648  16.767  2.4670  0.2787  0.6856
 1461TIP3    H225799   2.063   2.725  16.652 -0.9739 -2.3463  0.5691
 1462TIP3   OH225800   4.207   4.930  16.484 -0.1640  0.2984  0.1173
 1462TIP3    H125801   4.122   4.936  16.439 -0.4263  0.9056  0.6662
 1462TIP3    H225802   4.260   4.874  16.429 -1.2136 -0.8270  0.2081
 1463TIP3   OH225803   5.834   1.677  15.292 -0.1413  0.2633  0.0271
 1463TIP3    H125804   5.791   1.722  15.365  1.9849  1.3299  0.7077
 1463TIP3    H225805   5.810   1.728  15.215 -2.5053 -0.9398 -0.1547
 1464TIP3   OH225806   1.861   4.103   5.125 -0.0347  0.1107 -0.3665
 1464TIP3    H125807   1.932   4.155   5.161 -0.1677  1.0005 -1.3366
 1464TIP3    H225808   1.902   4.052   5.055 -0.4922  1.4024 -1.6433
 1465TIP3   OH225809   3.553   0.258  16.152  0.0275  0.4710 -0.1927
 1465TIP3    H125810   3.622   0.245  16.217  0.3885  1.6333 -0.3228
 1465TIP3    H225811   3.474   0.227  16.195  0.3548  0.7177  0.5977
 1466TIP3   OH225812   5.443   1.514   4.850  0.4768  0.0928  0.5158
 1466TIP3    H125813   5.480   1.497   4.936  1.8838 -0.6593 -0.2014
 1466TIP3    H225814   5.489   1.453   4.791  0.0203  1.0271 -0.8675
 1467TIP3   OH225815   1.538   6.343  16.184 -0.0329  0.2985  0.4502
 1467TIP3    H125816   1.633   6.358  16.187  0.0029  0.3519 -0.5385
 1467TIP3    H225817   1.500   6.428  16.207  0.1818  1.4017 -2.7982
 1468TIP3   OH225818   3.421   5.910   6.409 -0.8553 -0.2539 -0.3613
 1468TIP3    H125819   3.359   5.981   6.392 -0.2976  0.4863  0.5873
 1468TIP3    H225820   3.379   5.857   6.476 -1.4426 -1.0681 -1.3450
 1469TIP3   OH225821   4.168   3.556   1.212  0.2299 -0.2661  0.3854
 1469TIP3    H125822   4.131   3.504   1.141 -0.1637 -0.0090  0.4002
 1469TIP3    H225823   4.096   3.612   1.241  0.9642  1.1744 -0.4517
 1470TIP3   OH225824   4.599   3.056   5.495  0.5113 -0.2194 -0.2973
 1470TIP3    H125825   4.601   2.998   5.571  0.6495  0.6516  0.3777
 1470TIP3    H225826   4.526   3.023   5.442  0.6199 -1.0353  0.0431
 1471TIP3   OH225827   0.685   1.980  16.019 -0.2264  0.1357 -0.8170
 1471TIP3    H125828   0.722   2.006  16.103 -2.7239  0.1006  0.3975
 1471TIP3    H225829   0.647   2.060  15.983  1.8765  0.4236 -2.5833
 1472TIP3   OH225830   4.223   0.140  12.881  0.2952 -0.4158 -0.3853
 1472TIP3    H125831   4.283   0.119  12.953  1.3165  0.9832 -0.7890
 1472TIP3    H225832   4.212   0.057  12.835  2.8232 -0.5523 -0.9146
 1473TIP3   OH225833   6.024   5.582  16.743  0.4398  0.7013 -0.4458
 1473TIP3    H125834   6.063   5.539  16.668  0.5041 -2.7088  1.3494
 1473TIP3    H225835   5.933   5.600  16.717  1.4920  3.4975 -2.6548
 1474TIP3   OH225836   4.771   6.739  14.623 -0.1111  0.2365  0.3655
 1474TIP3    H125837   4.689   6.788  14.624  0.0542  0.5579 -0.7972
 1474TIP3    H225838   4.770   6.690  14.705 -1.6749 -0.1061  0.1824
 1475TIP3   OH225839   4.606   4.278   1.627  0.0935 -0.0370  0.2329
 1475TIP3    H125840   4.692   4.244   1.653 -0.0328  0.6614  1.7042
 1475TIP3    H225841   4.589   4.348   1.689 -0.2756  1.7988 -1.8351
 1476TIP3   OH225842   0.850   1.325  17.300  0.0677 -0.0135  0.0728
 1476TIP3    H125843   0.839   1.420  17.302 -1.4389  0.0594 -3.5451
 1476TIP3    H225844   0.813   1.295  17.383  1.2806  2.5421  1.6715
 1477TIP3   OH225845   4.125   4.180  14.511 -0.0130  0.5695 -0.3670
 1477TIP3    H125846   4.155   4.158  14.599 -2.6235  0.3223  0.5710
 1477TIP3    H225847   4.122   4.096  14.464  2.5926  0.8579 -1.1949
 1478TIP3   OH225848   2.064   1.755  16.932  0.7388  0.1165  0.2597
 1478TIP3    H125849   1.968   1.758  16.932  0.7433  0.3143  0.0329
 1478TIP3    H225850   2.090   1.825  16.992  0.7698  1.6536 -1.4428
 1479TIP3   OH225851   1.520   2.324  12.339  0.0404 -0.3235 -0.2381
 1479TIP3    H125852   1.460   2.390  12.305 -1.1931 -1.3315 -0.0918
 1479TIP3    H225853   1.500   2.319  12.433 -0.5206 -1.5152 -0.3995
 1480TIP3   OH225854   5.707   6.022  14.959 -0.4756  0.1841  0.0477
 1480TIP3    H125855   5.695   6.116  14.946  0.1683  0.2148 -0.3729
 1480TIP3    H225856   5.677   5.983  14.877 -0.1268  0.0756 -0.0304
 1481TIP3   OH225857   0.779   0.358   3.839  0.3897 -0.0675  0.1750
 1481TIP3    H125858   0.808   0.449   3.829 -0.5920  0.0593 -2.3773
 1481TIP3    H225859   0.825   0.326   3.916  0.7975  2.5754  1.1185
 1482TIP3   OH225860   4.816   6.576   1.848  0.3433 -0.1064  0.0907
 1482TIP3    H125861   4.838   6.484   1.863  1.6043  0.1276 -0.2061
 1482TIP3    H225862   4.884   6.607   1.789 -0.2574  0.9413 -0.0654
 1483TIP3   OH225863   5.290   6.128   2.705 -0.5821  0.2102  0.1710
 1483TIP3    H125864   5.310   6.101   2.615  0.5934 -1.3769  0.8721
 1483TIP3    H225865   5.335   6.064   2.760  0.1096  2.0991  1.9160
 1484TIP3   OH225866   3.197   4.111  11.417 -0.1469 -0.0567  0.2647
 1484TIP3    H125867   3.218   4.149  11.502  0.6691  0.0020  0.0520
 1484TIP3    H225868   3.190   4.186  11.358  0.9208 -0.1784 -0.0433
 1485TIP3   OH225869   2.235   4.574   4.666 -0.2788 -0.0962  0.0983
 1485TIP3    H125870   2.168   4.546   4.604 -0.9725 -2.7066  1.8338
 1485TIP3    H225871   2.317   4.571   4.616 -1.0485 -0.1033 -1.2032
 1486TIP3   OH225872   2.700   4.105  14.653 -0.3008  0.5305  0.1416
 1486TIP3    H125873   2.696   4.125  14.747 -0.7676  0.1379  0.2070
 1486TIP3    H225874   2.619   4.141  14.617  0.0583  1.0322 -0.1862
 1487TIP3   OH225875   5.072   0.669   2.261  0.1011 -0.0978  0.3953
 1487TIP3    H125876   5.123   0.629   2.332 -0.0873  0.0942  0.6384
 1487TIP3    H225877   5.047   0.755   2.295 -0.1639 -0.0879  0.1727
 1488TIP3   OH225878   3.167   1.795   0.275 -0.4688 -0.1550 -0.0408
 1488TIP3    H125879   3.236   1.737   0.307  0.0471 -0.1849 -1.1602
 1488TIP3    H225880   3.126   1.829   0.354  0.2169 -0.8649  0.6399
 1489TIP3   OH225881   0.526   6.210  11.248 -0.1363 -0.3376 -0.9267
 1489TIP3    H125882   0.512   6.238  11.338  2.1435 -0.4032 -0.4985
 1489TIP3    H225883   0.461   6.259  11.197  0.1953  1.6481  0.4550
 1490TIP3   OH225884   4.124   2.695   4.251  0.3308  0.0639  0.0865
 1490TIP3    H125885   4.101   2.665   4.163 -2.1261 -1.3410  1.1217
 1490TIP3    H225886   4.193   2.635   4.280  1.6351  0.9404 -1.0566
 1491TIP3   OH225887   3.939   5.689   0.256 -0.0206 -0.3104 -0.1471
 1491TIP3    H125888   4.027   5.696   0.219 -0.3647 -0.6996 -1.0626
 1491TIP3    H225889   3.906   5.779   0.256 -0.6219 -0.4985 -2.3330
 1492TIP3   OH225890   5.263   3.528  11.645  0.3857  0.0457 -0.3449
 1492TIP3    H125891   5.292   3.448  11.601 -0.1978  0.2772 -1.1622
 1492TIP3    H225892   5.299   3.599  11.594 -0.0477  0.3159 -0.2826
 1493TIP3   OH225893   5.663   3.309   4.497  0.7337 -0.0043 -0.1747
 1493TIP3    H125894   5.604   3.322   4.422 -0.3257  0.0959  0.6453
 1493TIP3    H225895   5.706   3.393   4.508  0.6396  0.0844 -0.4694
 1494TIP3   OH225896   2.450   3.418  14.999  0.9827 -0.4485 -0.0122
 1494TIP3    H125897   2.491   3.394  15.083 -2.3805 -2.3149  1.2851
 1494TIP3    H225898   2.447   3.336  14.950  1.8688  0.4012 -1.5639
 1495TIP3   OH225899   5.244   4.638   4.324  0.3524 -0.4821  0.2012
 1495TIP3    H125900   5.230   4.651   4.230 -2.1022 -0.2925  0.5515
 1495TIP3    H225901   5.295   4.557   4.328 -0.0075 -0.8268 -1.2780
 1496TIP3   OH225902   1.598   6.014  13.928  0.1512 -0.6718  0.7754
 1496TIP3    H125903   1.622   5.930  13.889  0.7743  0.0573 -0.4634
 1496TIP3    H225904   1.673   6.035  13.984  0.5047 -0.4204  0.2170
 1497TIP3   OH225905   6.381   3.145   6.459 -0.2973  0.3514 -0.0538
 1497TIP3    H125906   6.374   3.051   6.444 -2.4466  0.4582 -0.0993
 1497TIP3    H225907   6.473   3.159   6.483  0.0963 -1.7231 -0.1448
 1498TIP3   OH225908   2.468   3.663  16.702 -0.3455  0.5270  0.3227
 1498TIP3    H125909   2.464   3.685  16.609  0.0229  2.0304  0.6348
 1498TIP3    H225910   2.432   3.574  16.708  2.0449 -0.7085 -1.6055
 1499TIP3   OH225911   6.065   2.002  12.026 -0.1213 -0.1575  0.5043
 1499TIP3    H125912   6.008   1.941  11.979 -0.3813 -0.6342  1.4168
 1499TIP3    H225913   6.117   2.044  11.957 -0.6224 -0.6988 -0.2210
 1500TIP3   OH225914   2.597   2.580   2.919 -0.5051  0.0975 -0.1680
 1500TIP3    H125915   2.524   2.577   2.981  0.5331 -0.6098  1.0779
 1500TIP3    H225916   2.602   2.672   2.893  0.0168  0.7974  2.1025
 1501TIP3   OH225917   2.825   5.833  15.759  0.4679  0.6527  0.6798
 1501TIP3    H125918   2.737   5.797  15.768  1.0307 -1.1127 -0.2525
 1501TIP3    H225919   2.812   5.922  15.727 -1.0082 -0.5884 -2.6123
 1502TIP3   OH225920   0.026   3.813   5.545  0.5151  0.0405 -0.2577
 1502TIP3    H125921   0.043   3.719   5.556  0.6322  0.1451  0.5290
 1502TIP3    H225922   0.035   3.828   5.451 -0.5642 -0.9466 -0.5504
 1503TIP3   OH225923   0.202   5.400   1.516 -0.4040  0.1332  0.0650
 1503TIP3    H125924   0.148   5.371   1.442  0.4164 -0.9340 -0.1471
 1503TIP3    H225925   0.292   5.384   1.487 -0.0459  0.3701  1.0237
 1504TIP3   OH225926   0.348   6.665  14.381  0.3935  0.0253 -0.0023
 1504TIP3    H125927   0.322   6.640  14.292 -0.2450 -2.8633  0.8916
 1504TIP3    H225928   0.270   6.649  14.434  0.9968  0.9429  1.2034
 1505TIP3   OH225929   1.029   1.157  15.304 -0.2525 -0.3926  0.0845
 1505TIP3    H125930   0.938   1.129  15.318 -0.3042  0.7555  2.4983
 1505TIP3    H225931   1.024   1.252  15.298  0.6804 -0.3926 -1.2633
 1506TIP3   OH225932   1.132   3.232   0.116  0.2086  0.1006  0.1182
 1506TIP3    H125933   1.099   3.209   0.203  2.8269 -0.3127  1.1129
 1506TIP3    H225934   1.227   3.223   0.124  0.6904  2.2127 -2.1807
 1507TIP3   OH225935   3.297   4.590  16.575 -0.2998 -0.2184  0.4722
 1507TIP3    H125936   3.233   4.543  16.629 -1.6572 -0.1922 -1.0147
 1507TIP3    H225937   3.319   4.667  16.627 -1.0945 -0.4907  1.2556
 1508TIP3   OH225938   0.438   4.453  12.670 -0.0154  0.3647 -0.2673
 1508TIP3    H125939   0.430   4.399  12.749 -2.0830  1.1216  0.1150
 1508TIP3    H225940   0.482   4.397  12.606 -0.7753 -1.2567  0.5823
 1509TIP3   OH225941   0.933   0.389  16.713 -0.7235  0.4197 -0.3445
 1509TIP3    H125942   0.953   0.411  16.622  1.1681  0.2379 -0.0213
 1509TIP3    H225943   0.844   0.422  16.727 -0.9215  0.7608 -2.1401
 1510TIP3   OH225944   4.317   6.109  15.528  0.0852  0.5191  0.5016
 1510TIP3    H125945   4.409   6.081  15.538  0.0004 -1.4167 -2.7066
 1510TIP3    H225946   4.300   6.101  15.435 -3.2999  1.2116  0.9470
 1511TIP3   OH225947   5.544   6.674  10.748  0.4530  0.0137  0.2238
 1511TIP3    H125948   5.558   6.610  10.678  1.0768  1.2135 -0.7975
 1511TIP3    H225949   5.616   6.657  10.810  0.4203 -0.4692  0.1380
 1512TIP3   OH225950   4.716   6.134   5.774 -0.4154 -0.3551  0.2496
 1512TIP3    H125951   4.678   6.113   5.688 -0.7934 -0.6653  0.4921
 1512TIP3    H225952   4.769   6.058   5.797  0.6053  0.1965 -0.2200
 1513TIP3   OH225953   6.526   6.284   5.355  0.2388  0.9375 -0.6678
 1513TIP3    H125954   6.465   6.308   5.285  1.4886  0.3015 -2.0266
 1513TIP3    H225955   6.517   6.354   5.420  0.4685  2.6251 -2.3675
 1514TIP3   OH225956   0.842   0.296   3.001 -0.5688 -0.2645 -0.1239
 1514TIP3    H125957   0.931   0.300   3.036 -1.1123 -2.6293  1.8091
 1514TIP3    H225958   0.818   0.387   2.986  2.3507  0.4293 -1.3201
 1515TIP3   OH225959   6.191   0.736  10.225 -0.5844  0.2657 -0.0707
 1515TIP3    H125960   6.282   0.710  10.213  0.0565  1.3616  2.0282
 1515TIP3    H225961   6.141   0.670  10.175  1.3624  0.8854 -3.0773
 1516TIP3   OH225962   2.650   6.571  14.818  0.5665  0.1954  0.2347
 1516TIP3    H125963   2.560   6.545  14.835  0.4618  0.0880 -0.4580
 1516TIP3    H225964   2.695   6.489  14.797  1.6450 -0.3106  3.7782
 1517TIP3   OH225965   1.458   4.165  15.087  0.1022  0.4900  0.5835
 1517TIP3    H125966   1.551   4.183  15.105  0.6678 -1.3650 -0.2928
 1517TIP3    H225967   1.432   4.235  15.027  1.9881 -0.8769 -2.0562
 1518TIP3   OH225968   1.058   2.390  15.368  0.1361 -0.6241  0.4859
 1518TIP3    H125969   1.023   2.414  15.282  1.6295 -1.6572 -0.4622
 1518TIP3    H225970   1.001   2.435  15.430 -0.7803  0.4384 -1.0423
 1519TIP3   OH225971   2.894   4.407  16.769  1.0352  0.4844 -0.4773
 1519TIP3    H125972   2.909   4.314  16.787 -0.9266  0.1570 -0.2957
 1519TIP3    H225973   2.951   4.452  16.831 -0.1548 -0.6299  1.5653
 1520TIP3   OH225974   6.216   1.781  12.385  0.7909  0.0588  0.5044
 1520TIP3    H125975   6.133   1.826  12.370  1.3201  1.1289  0.6508
 1520TIP3    H225976   6.232   1.733  12.304 -0.4475 -0.9905  0.8464
 1521TIP3   OH225977   2.229   4.060   6.340  0.3915  0.7131 -0.0017
 1521TIP3    H125978   2.323   4.063   6.357  0.1413  1.2084  1.4029
 1521TIP3    H225979   2.210   4.143   6.296  0.4787  1.0177  0.5203
 1522TIP3   OH225980   1.562   1.482  10.767  0.2672  0.3672  0.6931
 1522TIP3    H125981   1.632   1.543  10.789  0.8440  0.4177 -1.1275
 1522TIP3    H225982   1.490   1.537  10.736  1.4411  0.2267 -2.7877
 1523TIP3   OH225983   4.722   6.502   4.058  0.0995  0.5729  0.1118
 1523TIP3    H125984   4.654   6.551   4.104 -0.2833 -0.7758  1.0197
 1523TIP3    H225985   4.710   6.525   3.966  0.5945  2.9870  0.5762
 1524TIP3   OH225986   1.839   6.624   5.897  0.3147 -0.1599  0.3602
 1524TIP3    H125987   1.911   6.685   5.883  0.6994 -0.0534  2.4605
 1524TIP3    H225988   1.881   6.539   5.910  0.1674 -0.0043  2.1421
 1525TIP3   OH225989   5.499   0.533  16.376 -0.1441 -0.2001  0.1414
 1525TIP3    H125990   5.433   0.464  16.373 -0.8919  0.5266 -0.9202
 1525TIP3    H225991   5.554   0.517  16.299 -0.2895  0.3331 -0.0846
 1526TIP3   OH225992   0.886   4.277   2.851 -0.1179  0.8059  0.4949
 1526TIP3    H125993   0.792   4.284   2.869 -0.6263  0.4249 -1.6903
 1526TIP3    H225994   0.914   4.203   2.905 -0.7541  1.7250  2.1670
 1527TIP3   OH225995   5.980   6.333   2.329  0.1948 -0.0276 -0.0140
 1527TIP3    H125996   6.044   6.348   2.260  1.0085 -1.7519  0.3220
 1527TIP3    H225997   6.028   6.347   2.410  0.0880 -1.0613  0.2403
 1528TIP3   OH225998   0.779   2.148   0.525 -0.0157 -0.2935  0.8091
 1528TIP3    H125999   0.750   2.058   0.537  0.8679 -0.8118 -0.6318
 1528TIP3    H226000   0.839   2.164   0.597 -0.7277 -0.5993  1.4808
 1529TIP3   OH226001   3.178   4.804  14.745 -0.3485 -0.2577  0.1388
 1529TIP3    H126002   3.241   4.806  14.817 -0.9737  2.0318  0.6736
 1529TIP3    H226003   3.094   4.822  14.785 -0.5443  2.3585 -1.2558
 1530TIP3   OH226004   4.627   0.457   4.158 -0.3059 -0.2548 -0.3322
 1530TIP3    H126005   4.643   0.378   4.106 -0.6652  0.0104 -0.8565
 1530TIP3    H226006   4.710   0.505   4.156  0.3009 -1.1988  1.0236
 1531TIP3   OH226007   4.370   5.965  13.627  0.1101  0.2510  0.7290
 1531TIP3    H126008   4.349   5.894  13.565  0.5590  0.2265  0.6015
 1531TIP3    H226009   4.340   5.932  13.712 -1.1077  0.5481  0.4381
 1532TIP3   OH226010   1.264   5.557  12.627 -0.4494 -0.1809  0.4520
 1532TIP3    H126011   1.297   5.474  12.592 -2.4797  0.3497 -3.3678
 1532TIP3    H226012   1.233   5.604  12.549 -2.8911  2.5403  2.8396
 1533TIP3   OH226013   0.839   2.465   6.545  0.0964  0.0309 -0.6388
 1533TIP3    H126014   0.925   2.493   6.576  0.6628 -0.6012 -1.6054
 1533TIP3    H226015   0.789   2.546   6.536  0.8524  0.4829 -0.8449
 1534TIP3   OH226016   2.704   3.355   2.392 -0.0677 -0.1425  0.4496
 1534TIP3    H126017   2.622   3.374   2.438 -0.0146  0.3071  0.3660
 1534TIP3    H226018   2.769   3.344   2.462 -0.1764 -0.3895  0.5123
 1535TIP3   OH226019   3.082   6.611   2.137 -0.8670  0.4739  0.0341
 1535TIP3    H126020   3.132   6.532   2.158 -2.3889 -0.1332  1.5936
 1535TIP3    H226021   3.146   6.683   2.146 -0.2063 -0.2821  1.8109
 1536TIP3   OH226022   0.440   5.981  13.508  0.8212  0.1175 -0.4992
 1536TIP3    H126023   0.504   5.969  13.438  0.9954  0.0280 -0.3249
 1536TIP3    H226024   0.492   6.001  13.586  0.5980  0.8026 -0.5178
 1537TIP3   OH226025   5.899   1.056   3.540 -0.2763 -0.1246  0.2448
 1537TIP3    H126026   5.962   1.029   3.473  0.5725  1.2478  0.4594
 1537TIP3    H226027   5.866   0.973   3.576 -0.6025 -0.9067 -1.6931
 1538TIP3   OH226028   2.131   3.889  13.465  0.1986 -0.1324  0.4699
 1538TIP3    H126029   2.170   3.892  13.553 -1.1509  0.3943  1.0694
 1538TIP3    H226030   2.077   3.810  13.466 -0.0740  0.0517  0.2308
 1539TIP3   OH226031   0.019   6.555   1.908  0.1240 -0.3868 -0.8555
 1539TIP3    H126032   0.032   6.506   1.827 -0.9732 -1.1363 -0.6068
 1539TIP3    H226033   0.026   6.490   1.978  1.3376  0.2947 -0.2953
 1540TIP3   OH226034   0.313   3.868   3.880  0.4286 -0.3729 -0.1545
 1540TIP3    H126035   0.383   3.812   3.847 -0.5802 -1.7058 -0.1085
 1540TIP3    H226036   0.295   3.834   3.967 -0.3411 -0.1159 -0.2105
 1541TIP3   OH226037   0.022   2.625   5.046 -0.1595 -0.1121  0.3236
 1541TIP3    H126038   0.028   2.649   4.953 -1.1346 -2.3474 -0.3813
 1541TIP3    H226039  -0.016   2.703   5.088 -1.6060  0.2522 -1.5184
 1542TIP3   OH226040   2.118   6.260   2.630  0.4648  0.0512  0.2167
 1542TIP3    H126041   2.198   6.306   2.656  0.8007 -0.1440 -0.4360
 1542TIP3    H226042   2.111   6.277   2.536  0.8026 -1.5247 -0.1303
 1543TIP3   OH226043   1.130   2.701   3.494  0.6311 -0.2474 -0.5317
 1543TIP3    H126044   1.098   2.618   3.458  0.3073 -0.0765 -0.6454
 1543TIP3    H226045   1.217   2.713   3.454  0.5628 -0.3985 -0.7283
 1544TIP3   OH226046   5.775   2.170   5.304 -0.4426 -0.5024 -0.1335
 1544TIP3    H126047   5.850   2.115   5.282 -0.7675 -0.2529 -2.0985
 1544TIP3    H226048   5.771   2.234   5.233 -1.8357  0.2013  0.5402
 1545TIP3   OH226049   3.928   5.976   1.191  0.5990 -0.4188  0.0147
 1545TIP3    H126050   4.011   5.955   1.234  1.1134  2.6404  0.8108
 1545TIP3    H226051   3.920   5.911   1.121  2.6930 -1.9736  1.0848
 1546TIP3   OH226052   1.179   6.450   5.381 -0.2392 -0.0623 -0.1650
 1546TIP3    H126053   1.203   6.502   5.458 -0.5533 -0.7030  0.3799
 1546TIP3    H226054   1.162   6.362   5.416 -0.8565 -0.2463 -0.8925
 1547TIP3   OH226055   3.138   3.927  15.807  0.3092  1.0009  0.7426
 1547TIP3    H126056   3.155   3.961  15.895 -2.3176  0.4311  1.5554
 1547TIP3    H226057   3.066   3.980  15.774 -1.2888 -1.1476  0.5048
 1548TIP3   OH226058   4.530   0.916   0.160  0.3090  0.2662  0.0789
 1548TIP3    H126059   4.538   1.011   0.171  3.4486  0.2077 -0.7942
 1548TIP3    H226060   4.482   0.906   0.078  1.3874  1.1794 -0.6928
 1549TIP3   OH226061   5.067   6.691  10.411  0.1143 -0.2945 -0.3706
 1549TIP3    H126062   5.146   6.665  10.458  0.5304 -1.3280 -1.5933
 1549TIP3    H226063   5.095   6.699  10.319 -0.3374  3.0479 -0.3497
 1550TIP3   OH226064   2.218   0.978  12.296 -0.1302  0.0113  0.6201
 1550TIP3    H126065   2.210   1.073  12.307  0.0336  0.1268 -0.2602
 1550TIP3    H226066   2.190   0.961  12.207  1.4355 -0.5684  0.2102
 1551TIP3   OH226067   3.866   4.866   4.646  0.4688 -0.1259  0.1515
 1551TIP3    H126068   3.785   4.900   4.609  1.4481 -0.6704 -2.6995
 1551TIP3    H226069   3.921   4.943   4.660  0.4710  0.0035 -0.5631
 1552TIP3   OH226070   3.094   0.282  15.405 -0.4404 -0.0538 -0.2742
 1552TIP3    H126071   3.071   0.191  15.423 -1.0262  0.0382 -0.5222
 1552TIP3    H226072   3.117   0.283  15.312  1.7377 -0.3616  0.2160
 1553TIP3   OH226073   3.150   4.281   5.043 -0.1141 -0.0746  0.5146
 1553TIP3    H126074   3.162   4.354   5.105  0.5969  0.7927 -0.6005
 1553TIP3    H226075   3.233   4.233   5.046  0.0211  0.1219  0.0679
 1554TIP3   OH226076   3.788   3.190  17.154  0.2402 -0.5091  0.5687
 1554TIP3    H126077   3.753   3.182  17.242 -0.3047  2.3073  0.6984
 1554TIP3    H226078   3.711   3.199  17.098  0.6167 -0.4997  0.0422
 1555TIP3   OH226079   6.493   3.840   3.296  0.3164 -0.1719 -0.4318
 1555TIP3    H126080   6.454   3.763   3.255 -1.9693 -0.8032  2.5239
 1555TIP3    H226081   6.433   3.911   3.277 -0.5019 -0.3679  1.1977
 1556TIP3   OH226082   6.426   3.735  11.028 -0.5382  0.0709 -0.3683
 1556TIP3    H126083   6.462   3.675  11.093 -0.9668  0.4881  0.2645
 1556TIP3    H226084   6.502   3.765  10.977 -0.2672 -0.6405 -0.3844
 1557TIP3   OH226085   6.439   2.242   1.611  0.0939 -0.4367  0.2661
 1557TIP3    H126086   6.459   2.149   1.596 -2.5472 -1.0820  0.1716
 1557TIP3    H226087   6.434   2.250   1.706 -1.1780 -0.8231  0.2598
 1558TIP3   OH226088   2.767   4.400  11.100 -0.6337 -0.2003  0.3320
 1558TIP3    H126089   2.696   4.464  11.097 -0.7239  0.0687  3.9900
 1558TIP3    H226090   2.845   4.452  11.121  0.0773 -0.8577 -0.5942
 1559TIP3   OH226091   0.495   6.704   3.593 -0.5763  0.1275 -0.6420
 1559TIP3    H126092   0.512   6.780   3.647  1.4024 -0.4352 -0.4113
 1559TIP3    H226093   0.450   6.643   3.651 -1.2522  0.7035 -0.5447
 1560TIP3   OH226094   1.742   0.098  12.387 -0.2125 -0.4319 -0.5599
 1560TIP3    H126095   1.720   0.117  12.478  2.4221  0.5282 -0.0382
 1560TIP3    H226096   1.757   0.003  12.384 -1.8494 -0.7099 -0.3934
 1561TIP3   OH226097   1.922   1.969   1.339 -0.0982  0.3211 -0.6083
 1561TIP3    H126098   1.993   1.996   1.397  1.1139 -0.4248 -1.7060
 1561TIP3    H226099   1.951   1.995   1.251 -0.4248 -1.3952 -1.2733
 1562TIP3   OH226100   0.194   3.213  13.801 -0.2173  0.0717 -0.2037
 1562TIP3    H126101   0.155   3.182  13.719 -0.6404 -0.3462  0.1467
 1562TIP3    H226102   0.227   3.133  13.843  0.4268  0.3433 -0.1878
 1563TIP3   OH226103   4.076   6.555   0.811  0.0627 -0.1444 -0.4872
 1563TIP3    H126104   4.058   6.605   0.732 -2.3407  0.6041  0.4402
 1563TIP3    H226105   4.081   6.621   0.880 -0.2431 -0.9584  0.3323
 1564TIP3   OH226106   5.839   2.473  13.065  0.4943 -0.3792 -0.2868
 1564TIP3    H126107   5.896   2.504  13.135  1.4899 -0.0142 -1.2216
 1564TIP3    H226108   5.899   2.444  12.996 -0.4489 -0.9783 -0.8857
 1565TIP3   OH226109   2.543   4.816   3.941  0.5890 -0.1529 -0.4943
 1565TIP3    H126110   2.621   4.813   3.886 -1.5847  1.9788 -4.1544
 1565TIP3    H226111   2.477   4.768   3.891 -1.0056 -0.0367  1.3804
 1566TIP3   OH226112   0.046   3.074  16.956 -0.2471  0.0738  0.0229
 1566TIP3    H126113   0.092   3.082  17.039  0.0636  0.5829 -0.1925
 1566TIP3    H226114  -0.046   3.092  16.977 -0.1531  0.3107  0.2374
 1567TIP3   OH226115   5.313   2.989  13.133 -0.2001 -0.1692 -0.0944
 1567TIP3    H126116   5.236   2.978  13.078 -0.1853  0.1099 -0.1733
 1567TIP3    H226117   5.320   2.907  13.181 -1.0504  0.1211  0.5564
 1568TIP3   OH226118   3.055   1.937  16.927 -1.1835  0.0455  0.4625
 1568TIP3    H126119   3.037   1.995  17.001  1.2979 -0.8851  1.9224
 1568TIP3    H226120   3.072   1.852  16.967  1.0665 -0.2995 -1.0552
 1569TIP3   OH226121   2.893   5.021   6.061  0.3144 -0.5274  0.3429
 1569TIP3    H126122   2.854   4.952   6.007  0.7628 -0.3109 -0.2713
 1569TIP3    H226123   2.915   4.977   6.143  0.9865 -1.2262 -0.1960
 1570TIP3   OH226124   2.723   2.717  13.570  0.2492 -0.3857  0.1497
 1570TIP3    H126125   2.801   2.661  13.572 -0.1506 -1.0599 -1.4846
 1570TIP3    H226126   2.658   2.670  13.622 -0.2003 -1.6990 -1.4972
 1571TIP3   OH226127   2.220   3.550  14.441 -0.3315  0.2238 -0.2357
 1571TIP3    H126128   2.239   3.545  14.535 -0.8984  0.9499 -0.0752
 1571TIP3    H226129   2.188   3.462  14.418  0.5105 -0.1743  0.0822
 1572TIP3   OH226130   1.641   5.230  15.672 -0.0455 -0.0070  0.5792
 1572TIP3    H126131   1.569   5.209  15.612 -1.4875 -0.4170  2.3573
 1572TIP3    H226132   1.627   5.322  15.694  0.3771  0.0970  0.4235
 1573TIP3   OH226133   2.499   3.326  15.597 -0.1202 -0.9153  0.3010
 1573TIP3    H126134   2.586   3.313  15.560  0.2451  0.1582  0.7382
 1573TIP3    H226135   2.450   3.370  15.528 -0.7293 -2.6639 -0.4206
 1574TIP3   OH226136   3.814   6.260   4.206  0.3713 -0.4247  0.4765
 1574TIP3    H126137   3.758   6.195   4.248 -1.5045  0.6018 -0.3114
 1574TIP3    H226138   3.795   6.251   4.113 -0.4430  1.6360  0.3956
 1575TIP3   OH226139   4.732   4.759  11.296 -0.4635 -0.8460  0.4909
 1575TIP3    H126140   4.676   4.815  11.243  0.8559 -0.1421 -0.2343
 1575TIP3    H226141   4.672   4.711  11.353 -1.6907  0.8695  0.7358
 1576TIP3   OH226142   6.114   3.988  13.867  0.7466  0.6610 -0.5990
 1576TIP3    H126143   6.023   3.989  13.896  0.5562 -0.5012 -1.0799
 1576TIP3    H226144   6.163   4.019  13.942  0.0204  0.4483 -0.0202
 1577TIP3   OH226145   3.385   3.626  14.237  0.2957  0.0309 -0.2591
 1577TIP3    H126146   3.363   3.628  14.330  0.1239  0.5746 -0.3076
 1577TIP3    H226147   3.302   3.642  14.192  0.7073  1.8113 -0.4539
 1578TIP3   OH226148   3.670   5.538  14.553  0.3347  0.5471 -0.4433
 1578TIP3    H126149   3.657   5.537  14.458 -0.0413  2.5710 -0.4684
 1578TIP3    H226150   3.583   5.528  14.590  0.6081 -1.3858 -0.2588
 1579TIP3   OH226151   2.493   3.132   1.967 -0.0851 -0.2460  0.4183
 1579TIP3    H126152   2.471   3.225   1.976  0.7800 -0.1086  1.2806
 1579TIP3    H226153   2.584   3.126   1.994  0.8185 -0.8976 -2.3664
 1580TIP3   OH226154   5.825   5.693  14.194  0.0915  0.3253 -0.4291
 1580TIP3    H126155   5.888   5.629  14.227  0.1013 -0.8221 -2.4485
 1580TIP3    H226156   5.743   5.671  14.239  0.3819 -0.3440 -0.2141
 1581TIP3   OH226157   4.575   5.135  13.346  0.6550 -0.2610  0.0462
 1581TIP3    H126158   4.509   5.069  13.371  0.0942 -0.5816 -2.1019
 1581TIP3    H226159   4.548   5.214  13.394 -0.8392 -0.6044 -0.1600
 1582TIP3   OH226160   4.911   3.050   4.761  0.5933  0.2625  0.5367
 1582TIP3    H126161   4.816   3.061   4.765  0.6141  0.2345  1.2409
 1582TIP3    H226162   4.945   3.111   4.826  1.0803  0.4820  0.0895
 1583TIP3   OH226163   6.032   2.807  12.530  0.0747  0.3273 -0.7760
 1583TIP3    H126164   5.964   2.849  12.478 -0.5489  0.9493  0.4774
 1583TIP3    H226165   5.989   2.787  12.614  0.3674 -2.7733 -1.2466
 1584TIP3   OH226166   4.642   5.640   1.243 -0.0606  0.6860 -0.8039
 1584TIP3    H126167   4.699   5.563   1.238  2.1453  2.1230  0.4627
 1584TIP3    H226168   4.697   5.708   1.280 -3.2251  1.6393  2.8103
 1585TIP3   OH226169   4.436   3.111  12.707  0.4301 -0.3759  0.4175
 1585TIP3    H126170   4.347   3.145  12.702  0.0641 -1.3742  0.0063
 1585TIP3    H226171   4.492   3.188  12.691 -0.3340  0.3175  0.9845
 1586TIP3   OH226172   4.896   0.807   5.800 -0.0692 -0.3238 -0.6592
 1586TIP3    H126173   4.881   0.721   5.840 -2.3091 -0.2849 -1.2999
 1586TIP3    H226174   4.866   0.797   5.710  3.0977  0.1429 -1.9124
 1587TIP3   OH226175   0.008   0.133   1.851 -0.3387  0.0331  0.0430
 1587TIP3    H126176  -0.012   0.072   1.922  1.7300  0.6290  1.2119
 1587TIP3    H226177   0.103   0.142   1.853 -0.2423  0.3597 -2.6051
 1588TIP3   OH226178   0.192   1.532   0.921 -0.0478  0.2415  0.5542
 1588TIP3    H126179   0.257   1.550   0.853 -0.6914 -0.7251 -0.3502
 1588TIP3    H226180   0.141   1.613   0.928 -0.3571  0.1612 -0.5629
 1589TIP3   OH226181   0.025   2.633  16.147  0.0683  0.1224 -0.6916
 1589TIP3    H126182  -0.012   2.697  16.208  0.0581 -0.9834  0.5031
 1589TIP3    H226183   0.115   2.620  16.178 -0.1817 -1.0320 -0.4009
 1590TIP3   OH226184   0.312   5.351  16.690  0.3111 -0.0145  0.5833
 1590TIP3    H126185   0.403   5.366  16.664  0.8815 -0.6366  2.1174
 1590TIP3    H226186   0.298   5.410  16.764 -0.2820 -0.4617  0.8374
 1591TIP3   OH226187   0.729   4.771  11.273 -0.2090  0.0036 -0.1277
 1591TIP3    H126188   0.735   4.760  11.178 -0.5172  0.1571 -0.1676
 1591TIP3    H226189   0.819   4.774  11.303 -0.0581  1.6086 -0.6119
 1592TIP3   OH226190   2.048   0.432   3.664  0.0828 -0.5451  0.0655
 1592TIP3    H126191   2.102   0.509   3.681 -0.2266  0.0572 -1.5367
 1592TIP3    H226192   2.107   0.370   3.621  0.3777 -1.3038  1.5106
 1593TIP3   OH226193   5.677   0.272  11.630  0.5742 -0.6394 -0.3135
 1593TIP3    H126194   5.618   0.210  11.588 -2.0508  1.1367  0.5113
 1593TIP3    H226195   5.655   0.267  11.723  2.0151 -0.1720  0.0841
 1594TIP3   OH226196   3.511   4.729  16.137  0.4314 -0.0259  0.4101
 1594TIP3    H126197   3.599   4.722  16.175  0.4089  0.2634  0.5128
 1594TIP3    H226198   3.459   4.664  16.184  0.2691  0.7048  1.2461
 1595TIP3   OH226199   3.031   6.440   2.744  0.2744  0.7077 -0.3117
 1595TIP3    H126200   3.118   6.419   2.779  0.3209  0.7604 -0.3942
 1595TIP3    H226201   2.994   6.501   2.808  0.0482  0.2004  0.0463
 1596TIP3   OH226202   0.440   2.780   3.324 -0.6052  0.0758  0.9642
 1596TIP3    H126203   0.407   2.867   3.346  1.0357  0.5642  1.6355
 1596TIP3    H226204   0.501   2.758   3.395  0.6508 -0.6681 -0.2809
 1597TIP3   OH226205   4.472   1.090   2.996 -0.3865 -0.1397 -0.0094
 1597TIP3    H126206   4.480   0.995   2.988 -0.4344 -0.0599 -1.1550
 1597TIP3    H226207   4.529   1.125   2.928  0.4488  0.6927  1.0827
 1598TIP3   OH226208   1.344   6.324   4.398  0.0906  0.0633 -0.4137
 1598TIP3    H126209   1.316   6.233   4.401 -0.7014  0.2861 -0.8537
 1598TIP3    H226210   1.400   6.334   4.475 -1.3443 -0.2935  0.7164
 1599TIP3   OH226211   4.451   2.788   2.030 -0.1653 -0.0690 -0.9569
 1599TIP3    H126212   4.396   2.833   1.966  1.4831  2.7609 -0.5826
 1599TIP3    H226213   4.529   2.762   1.981 -0.2167 -0.6430 -0.7364
 1600TIP3   OH226214   5.211   4.679   3.091  0.7479 -0.2526 -0.2833
 1600TIP3    H126215   5.206   4.766   3.132  0.9066 -0.0044 -0.7754
 1600TIP3    H226216   5.285   4.636   3.134  0.3511 -0.3367  0.3192
 1601TIP3   OH226217   3.024   4.487   3.160  0.1362 -0.5311  0.9047
 1601TIP3    H126218   3.007   4.397   3.132  0.3965 -0.5172  0.7033
 1601TIP3    H226219   3.083   4.479   3.235  0.2230 -0.5248  0.8372
 1602TIP3   OH226220   3.067   1.194   0.704  0.6006 -0.4158  0.3592
 1602TIP3    H126221   3.022   1.121   0.662  0.3627 -0.1553  0.1509
 1602TIP3    H226222   3.149   1.157   0.736  2.0411 -0.1327 -2.6229
 1603TIP3   OH226223   1.872   0.753   1.228  0.1992  0.4926  0.1528
 1603TIP3    H126224   1.803   0.718   1.171 -0.9764  1.6249  0.8310
 1603TIP3    H226225   1.899   0.678   1.281 -1.3360  0.2688  0.6709
 1604TIP3   OH226226   1.515   1.594   4.162 -0.5458  0.1678 -0.3548
 1604TIP3    H126227   1.439   1.537   4.147 -0.5487  0.3559 -1.0828
 1604TIP3    H226228   1.569   1.584   4.083  0.8773 -0.9918  0.7010
 1605TIP3   OH226229   6.309   4.743   2.795  0.0532 -0.6291  0.0786
 1605TIP3    H126230   6.384   4.789   2.833 -0.6868  1.8195 -1.1893
 1605TIP3    H226231   6.253   4.813   2.762 -1.2993 -2.4739 -1.7805
 1606TIP3   OH226232   5.047   5.231   3.080  0.2584  0.1394  0.1244
 1606TIP3    H126233   5.005   5.171   3.141  0.1550 -1.3161 -1.3374
 1606TIP3    H226234   5.140   5.207   3.082  0.8814  2.2962  2.1403
 1607TIP3   OH226235   0.507   0.110   6.587  0.0185 -0.3395 -0.1558
 1607TIP3    H126236   0.471   0.079   6.670  0.9018 -0.5085  0.1806
 1607TIP3    H226237   0.529   0.030   6.539  1.3408 -0.2582  0.2804
 1608TIP3   OH226238   6.454   1.753  13.061 -0.0958 -0.4511 -0.1972
 1608TIP3    H126239   6.397   1.718  13.129 -1.0676  2.1880  0.4249
 1608TIP3    H226240   6.501   1.676  13.029 -0.7940 -2.0413  2.2879
 1609TIP3   OH226241   1.674   3.370  13.119  0.2818  0.1970  0.0272
 1609TIP3    H126242   1.767   3.380  13.137  0.3823  1.2097 -0.8930
 1609TIP3    H226243   1.636   3.456  13.139 -0.6197 -0.4526  1.2201
 1610TIP3   OH226244   5.814   4.076   4.286 -0.4492 -1.0967  0.2839
 1610TIP3    H126245   5.802   3.995   4.236  1.2375 -1.5214  0.5120
 1610TIP3    H226246   5.758   4.139   4.241 -1.0374 -2.1296 -0.5021
 1611TIP3   OH226247   0.179   1.810  13.031  0.0534  0.3257 -0.0429
 1611TIP3    H126248   0.093   1.770  13.044 -0.2694  1.2386  0.7952
 1611TIP3    H226249   0.171   1.897  13.070  1.7646 -0.0789  1.3882
 1612TIP3   OH226250   6.098   4.888  12.748 -0.3697 -0.4006 -0.0952
 1612TIP3    H126251   6.164   4.819  12.753 -0.4381 -0.4240  0.6964
 1612TIP3    H226252   6.099   4.917  12.657 -1.3162 -2.4057 -0.7918
 1613TIP3   OH226253   3.114   4.353  16.937 -0.0348 -0.5611 -0.2275
 1613TIP3    H126254   3.166   4.370  17.016 -0.2555 -0.5240 -0.0893
 1613TIP3    H226255   3.043   4.296  16.967 -0.9274  0.5862 -0.1086
 1614TIP3   OH226256   5.141   1.838  16.225  0.2893 -0.3322  0.2730
 1614TIP3    H126257   5.207   1.906  16.212 -0.2735  0.1431 -0.1562
 1614TIP3    H226258   5.082   1.847  16.150 -0.3079 -0.6927  0.6885
 1615TIP3   OH226259   4.528   4.122   5.515 -0.5240  0.0527  0.2397
 1615TIP3    H126260   4.511   4.079   5.599 -1.3666 -0.2988 -0.1002
 1615TIP3    H226261   4.534   4.051   5.452  1.8288  0.1867  0.2374
 1616TIP3   OH226262   3.078   2.289   2.858  0.5726  0.7891  0.3242
 1616TIP3    H126263   3.086   2.274   2.952  0.2325  1.9652  0.5638
 1616TIP3    H226264   3.081   2.385   2.849  0.7873  0.6836 -0.8794
 1617TIP3   OH226265   3.076   2.746  11.854  0.0381  0.0006 -0.4708
 1617TIP3    H126266   3.094   2.665  11.901 -0.3864 -0.3486 -0.9136
 1617TIP3    H226267   3.157   2.766  11.808  0.4860  0.3865  0.4620
 1618TIP3   OH226268   3.395   2.016  12.821 -0.2007  0.9804  0.3532
 1618TIP3    H126269   3.334   1.953  12.860  1.6477 -0.5675  0.9414
 1618TIP3    H226270   3.467   2.021  12.885  0.7213  2.0094 -0.7302
 1619TIP3   OH226271   6.281   5.003   4.752 -0.6541  0.0401  0.1738
 1619TIP3    H126272   6.300   5.036   4.664 -1.2057 -0.5285 -0.1695
 1619TIP3    H226273   6.273   5.081   4.806  2.8689  0.3598  0.4496
 1620TIP3   OH226274   5.917   2.017   1.041  0.1956  0.0284 -0.4821
 1620TIP3    H126275   5.862   1.945   1.071 -0.6750  0.2021 -1.6217
 1620TIP3    H226276   5.986   1.975   0.989 -1.0314  0.0644 -2.2210
 1621TIP3   OH226277   1.290   5.457   0.194  0.3040 -0.9238 -0.1697
 1621TIP3    H126278   1.358   5.410   0.243  2.3195  1.3812 -0.5731
 1621TIP3    H226279   1.318   5.449   0.102  0.3348  0.4685 -0.2961
 1622TIP3   OH226280   1.743   5.986  14.343  0.3654 -0.0716  0.1471
 1622TIP3    H126281   1.778   5.936  14.269 -1.1852 -3.7985  1.6524
 1622TIP3    H226282   1.819   6.031  14.380  2.4829 -3.0492 -0.1626
 1623TIP3   OH226283   1.371   0.491  15.348 -0.8381 -0.4128  0.1865
 1623TIP3    H126284   1.341   0.582  15.338 -1.3489 -0.6913 -0.8785
 1623TIP3    H226285   1.290   0.439  15.346 -0.6481 -0.8305  1.8520
 1624TIP3   OH226286   2.571   4.398  17.333 -0.2925 -0.2737  0.0684
 1624TIP3    H126287   2.482   4.419  17.363  0.2813 -0.4131  2.0059
 1624TIP3    H226288   2.625   4.470  17.366 -0.1377  2.1442 -4.6212
 1625TIP3   OH226289   4.396   2.441  12.973  0.1208 -0.4202  0.1580
 1625TIP3    H126290   4.441   2.419  13.055  0.5540 -0.9619 -0.2165
 1625TIP3    H226291   4.440   2.387  12.907  1.1578  1.5072 -0.7920
 1626TIP3   OH226292   2.796   4.497   6.080 -0.8177 -0.2149 -0.0550
 1626TIP3    H126293   2.827   4.566   6.021 -1.9960  0.0138 -0.4283
 1626TIP3    H226294   2.770   4.543   6.159 -1.3719 -0.2480 -0.2124
 1627TIP3   OH226295   0.148   2.573   1.998  0.2451 -0.1302  0.6126
 1627TIP3    H126296   0.171   2.621   1.919  2.3062  0.4734  1.5035
 1627TIP3    H226297   0.162   2.481   1.976  0.9850  0.0475  0.3009
 1628TIP3   OH226298   5.726   6.645   5.705 -0.0120  0.1339  0.1998
 1628TIP3    H126299   5.752   6.699   5.779 -0.4148  1.2977 -0.4882
 1628TIP3    H226300   5.755   6.557   5.729 -2.0468  0.0018  2.7569
 1629TIP3   OH226301   2.183   4.398  15.734 -0.2171  0.1813 -0.0641
 1629TIP3    H126302   2.245   4.325  15.744  1.0649  1.1660 -0.5802
 1629TIP3    H226303   2.182   4.440  15.820 -0.5186 -0.1000  0.0711
 1630TIP3   OH226304   3.252   1.510   4.383 -0.1670 -0.0393 -0.1382
 1630TIP3    H126305   3.290   1.423   4.394 -1.1381 -0.3635  0.8650
 1630TIP3    H226306   3.287   1.561   4.456 -1.4521 -0.2817  0.6733
 1631TIP3   OH226307   6.324   2.764   4.135  0.2357  0.2434 -0.2610
 1631TIP3    H126308   6.299   2.837   4.078 -1.8324  1.8132  2.4061
 1631TIP3    H226309   6.415   2.781   4.157 -0.0877  1.8418 -0.0370
 1632TIP3   OH226310   5.538   0.959  12.384  0.0789  0.4188  0.2540
 1632TIP3    H126311   5.485   0.902  12.439  0.0344 -1.0554 -1.2200
 1632TIP3    H226312   5.503   0.946  12.296  1.7784  0.7110 -0.5005
 1633TIP3   OH226313   2.458   1.070  15.556  0.6281 -0.3100 -0.0136
 1633TIP3    H126314   2.528   1.135  15.553  0.5261 -0.1976  0.0343
 1633TIP3    H226315   2.473   1.023  15.637  1.2448 -0.9559 -0.4914
 1634TIP3   OH226316   0.847   1.804  12.970  0.7107 -0.0959  0.0743
 1634TIP3    H126317   0.844   1.796  12.875  1.4613 -2.0207  0.1597
 1634TIP3    H226318   0.939   1.819  12.991  0.3831  1.5107  0.4533
 1635TIP3   OH226319   0.044   4.087   1.962  0.0809  0.5210 -0.3021
 1635TIP3    H126320   0.084   4.122   1.882 -3.3691 -1.1684 -3.0195
 1635TIP3    H226321   0.023   4.164   2.014  1.0759  1.8079 -1.7093
 1636TIP3   OH226322   0.824   4.868   2.673  0.0931  0.6370 -0.1625
 1636TIP3    H126323   0.842   4.790   2.620 -0.0835  1.2272 -1.1170
 1636TIP3    H226324   0.888   4.864   2.744  0.8387  0.2181 -0.8424
 1637TIP3   OH226325   2.890   4.261   5.416  0.5847 -0.5482  0.0892
 1637TIP3    H126326   2.879   4.256   5.321  1.1319 -2.6915  0.0989
 1637TIP3    H226327   2.943   4.185   5.438 -0.0501 -0.4381  2.1990
 1638TIP3   OH226328   4.532   4.433  17.110  0.8050 -0.2067 -0.0819
 1638TIP3    H126329   4.580   4.502  17.064  2.5562 -0.5441  1.1528
 1638TIP3    H226330   4.503   4.374  17.040  2.2343 -0.0112 -0.8737
 1639TIP3   OH226331   1.781   1.280  16.507  0.4959 -0.3546 -0.2985
 1639TIP3    H126332   1.750   1.331  16.433  2.5214 -0.7526 -1.4806
 1639TIP3    H226333   1.818   1.345  16.567 -1.3014 -0.0148  0.4924
 1640TIP3   OH226334   6.067   4.477   2.550 -0.4524 -0.1935  0.4714
 1640TIP3    H126335   6.018   4.535   2.492  0.8029  0.2010 -0.2347
 1640TIP3    H226336   6.120   4.423   2.492  0.2000 -0.3736  1.2016
 1641TIP3   OH226337   1.500   2.106   1.468  0.4729 -0.4977  0.5503
 1641TIP3    H126338   1.575   2.050   1.486  0.3721 -1.0425 -0.6196
 1641TIP3    H226339   1.525   2.156   1.391  0.3188  0.6276  1.2162
 1642TIP3   OH226340   1.402   2.090  14.399 -0.4060  0.2231 -0.4316
 1642TIP3    H126341   1.309   2.076  14.418  0.0774 -1.5980  0.8056
 1642TIP3    H226342   1.446   2.081  14.483  0.7113  3.8646 -0.4412
 1643TIP3   OH226343   3.411   1.549  12.058  0.0355 -0.1886 -0.0654
 1643TIP3    H126344   3.324   1.534  12.020  0.7076  0.7946 -2.1719
 1643TIP3    H226345   3.472   1.512  11.994  1.2393  1.5131  0.0132
 1644TIP3   OH226346   2.835   2.821   4.465  0.3221  0.3030  0.4248
 1644TIP3    H126347   2.860   2.914   4.461 -3.5971  1.7225  2.9035
 1644TIP3    H226348   2.870   2.790   4.549  1.0817 -0.2766 -0.1023
 1645TIP3   OH226349   0.274   5.974  11.218  0.2421  0.5273  0.2000
 1645TIP3    H126350   0.287   6.032  11.143 -0.0221  0.3008 -0.0194
 1645TIP3    H226351   0.353   5.919  11.220 -0.5640 -0.7477 -1.0467
 1646TIP3   OH226352   4.654   0.354   2.509  0.0209 -0.0296  0.1618
 1646TIP3    H126353   4.617   0.328   2.424 -0.1132 -3.1631  1.0664
 1646TIP3    H226354   4.603   0.431   2.534 -1.9613 -0.7728 -1.3018
 1647TIP3   OH226355   5.724   0.691  17.102  0.4131 -0.2781  0.2062
 1647TIP3    H126356   5.724   0.596  17.088  0.0595 -0.2914  0.2807
 1647TIP3    H226357   5.805   0.721  17.063 -0.6078 -0.2899 -2.0672
 1648TIP3   OH226358   3.293   0.906   0.963  0.0798  0.0631  0.0994
 1648TIP3    H126359   3.331   0.863   0.886  0.5365  2.4024 -1.0627
 1648TIP3    H226360   3.205   0.930   0.937  0.3138  1.0769  0.2176
 1649TIP3   OH226361   4.890   0.065  10.532  0.4094  0.1754 -0.5747
 1649TIP3    H126362   4.866   0.114  10.453 -1.0850 -2.9168 -2.2351
 1649TIP3    H226363   4.968   0.016  10.507  0.2971 -0.3657  0.0955
 1650TIP3   OH226364   0.501   5.850   2.578 -0.4267 -0.1718  0.4170
 1650TIP3    H126365   0.466   5.932   2.542 -0.4379  0.0866  0.9997
 1650TIP3    H226366   0.452   5.781   2.534  0.9532  0.0393 -1.5869
 1651TIP3   OH226367   1.883   6.086  15.054 -0.4523  0.1413  0.1836
 1651TIP3    H126368   1.941   6.132  15.115  2.1584 -2.3176 -0.2531
 1651TIP3    H226369   1.873   5.999  15.092 -1.1557 -0.5272 -1.4584
 1652TIP3   OH226370   2.127   1.621   6.863  0.4073 -0.3809 -0.0863
 1652TIP3    H126371   2.082   1.572   6.794 -1.3317 -0.5293  1.0785
 1652TIP3    H226372   2.067   1.617   6.938 -0.1681  4.0753 -0.0796
 1653TIP3   OH226373   5.685   6.125   5.735 -0.3138  0.2651  0.4429
 1653TIP3    H126374   5.621   6.195   5.722 -2.2393 -1.6212 -0.8058
 1653TIP3    H226375   5.726   6.145   5.819 -2.3281  1.7210  1.1410
 1654TIP3   OH226376   1.778   1.382   5.606 -0.1770  0.0728 -0.1224
 1654TIP3    H126377   1.782   1.473   5.636 -1.0565 -0.7946  2.9863
 1654TIP3    H226378   1.867   1.363   5.576  0.8238  1.1558  1.9404
 1655TIP3   OH226379   1.760   1.440  14.531  0.7932  0.3764 -0.2325
 1655TIP3    H126380   1.690   1.464  14.471  1.4272  0.7996 -0.8156
 1655TIP3    H226381   1.718   1.382  14.596 -0.2013  1.0534 -0.2584
 1656TIP3   OH226382   4.796   5.825  11.036  0.4520  0.2834 -0.0628
 1656TIP3    H126383   4.845   5.848  10.957 -0.2690 -2.0383 -1.2852
 1656TIP3    H226384   4.705   5.847  11.016  0.5200  1.7172  1.0171
 1657TIP3   OH226385   0.195   2.574  15.459  0.0999  0.0577 -0.7560
 1657TIP3    H126386   0.268   2.632  15.482 -0.4103  0.5845 -0.4188
 1657TIP3    H226387   0.146   2.623  15.392 -0.1964 -0.0943 -0.6524
 1658TIP3   OH226388   6.652   6.247   0.700  0.3819  0.2209 -0.1421
 1658TIP3    H126389   6.599   6.288   0.631 -0.4864  0.5690  0.7141
 1658TIP3    H226390   6.682   6.320   0.754  1.6285  0.0122 -0.5090
 1659TIP3   OH226391   4.660   3.503   4.228  0.3919 -0.2063  0.0745
 1659TIP3    H126392   4.707   3.499   4.144 -0.5884  0.6412 -0.5298
 1659TIP3    H226393   4.577   3.545   4.207 -0.3613 -1.0458  1.2587
 1660TIP3   OH226394   5.327   2.125   1.618  0.3455  0.5249 -0.2308
 1660TIP3    H126395   5.349   2.193   1.682 -1.1823 -0.4222  1.3867
 1660TIP3    H226396   5.232   2.128   1.611  0.4495  0.3205 -2.1963
 1661TIP3   OH226397   0.920   6.482   3.905 -0.4442 -0.0293 -0.0827
 1661TIP3    H126398   1.012   6.457   3.914  0.1490  1.7356 -0.7914
 1661TIP3    H226399   0.899   6.526   3.987 -1.5424 -2.8079  1.2450
 1662TIP3   OH226400   0.966   6.061  14.456  0.2741  0.0222  0.1051
 1662TIP3    H126401   0.966   6.157  14.457 -0.3000  0.0602 -1.3760
 1662TIP3    H226402   0.890   6.036  14.508 -0.1284  0.4094 -0.2820
 1663TIP3   OH226403   1.151   0.373   1.983 -0.1059  0.0820 -0.4993
 1663TIP3    H126404   1.188   0.310   2.045 -1.3734 -0.9308 -0.7232
 1663TIP3    H226405   1.063   0.339   1.964 -1.0288  2.1663 -0.2735
 1664TIP3   OH226406   2.336   0.716  13.328  0.2038 -0.0190  0.0448
 1664TIP3    H126407   2.377   0.746  13.247 -1.3731 -0.1910 -0.8666
 1664TIP3    H226408   2.275   0.786  13.351 -2.2043 -1.5911 -1.1176
 1665TIP3   OH226409   6.552   6.461   5.623  0.0045  0.9372 -0.3062
 1665TIP3    H126410   6.456   6.455   5.627 -0.0056  1.5626  1.6306
 1665TIP3    H226411   6.575   6.521   5.694  1.8615  0.6241 -0.5905
 1666TIP3   OH226412   3.198   4.515  11.760 -0.4023  0.0312  0.4274
 1666TIP3    H126413   3.195   4.560  11.844 -2.8480 -1.0740  0.9955
 1666TIP3    H226414   3.130   4.557  11.708  0.9542  0.5760 -1.0014
 1667TIP3   OH226415   6.207   3.657   4.974 -0.8173  0.0001 -0.1926
 1667TIP3    H126416   6.114   3.647   4.996 -1.0366  1.4566 -0.2988
 1667TIP3    H226417   6.206   3.709   4.893  0.0843 -0.3670 -0.4463
 1668TIP3   OH226418   2.745   4.654  17.325  0.5286  0.4247 -0.0669
 1668TIP3    H126419   2.777   4.664  17.415  0.6927 -0.9655  0.0561
 1668TIP3    H226420   2.687   4.728  17.312 -0.2973  0.1137  1.5510
 1669TIP3   OH226421   4.089   0.912  10.971 -0.1542 -0.2944 -0.3732
 1669TIP3    H126422   4.001   0.947  10.985  0.2945  0.4685  0.7862
 1669TIP3    H226423   4.144   0.990  10.963  0.3542 -0.7598 -1.6402
 1670TIP3   OH226424   1.786   0.513  13.859 -0.2002  0.8293 -0.2517
 1670TIP3    H126425   1.854   0.458  13.819 -0.5955  0.1097  0.0523
 1670TIP3    H226426   1.739   0.550  13.784 -0.6472 -0.1496 -0.4632
 1671TIP3   OH226427   2.676   4.757  15.056 -0.9422 -0.1887  0.1531
 1671TIP3    H126428   2.590   4.747  15.014 -0.9862  0.0898  0.1711
 1671TIP3    H226429   2.661   4.730  15.146 -0.8592 -0.7432  0.0024
 1672TIP3   OH226430   0.912   2.857   4.777 -0.5375 -0.0347  0.4068
 1672TIP3    H126431   0.967   2.935   4.771 -0.9933  0.2339 -0.3454
 1672TIP3    H226432   0.850   2.865   4.705 -0.6156 -1.0782  0.3397
 1673TIP3   OH226433   6.439   0.045   2.099  0.2436 -0.7104  0.0250
 1673TIP3    H126434   6.468  -0.016   2.031  1.2244  0.8385 -1.0296
 1673TIP3    H226435   6.344   0.049   2.088  0.0170 -2.7227  0.7702
 1674TIP3   OH226436   3.507   0.449  13.783 -0.2365 -0.0327 -0.2901
 1674TIP3    H126437   3.545   0.387  13.845  0.4078  0.4306 -0.2099
 1674TIP3    H226438   3.414   0.452  13.806  0.1716  1.0466  1.4853
 1675TIP3   OH226439   3.452   3.807   5.478 -0.8865 -0.2382 -0.1098
 1675TIP3    H126440   3.426   3.792   5.569  1.1132 -0.0564  0.5323
 1675TIP3    H226441   3.423   3.896   5.460 -1.8908 -0.5041  0.1090
 1676TIP3   OH226442   6.041   0.786  14.738 -0.1157 -0.1100 -0.8596
 1676TIP3    H126443   6.109   0.845  14.708  1.0394 -2.0738 -2.3156
 1676TIP3    H226444   5.965   0.842  14.753  1.1444  1.8089 -1.3949
 1677TIP3   OH226445   1.744   2.492   5.043 -0.2277 -0.1131 -0.3023
 1677TIP3    H126446   1.692   2.501   4.963 -1.3086 -0.1499  0.3629
 1677TIP3    H226447   1.679   2.499   5.113  0.8407  1.0953  0.6140
 1678TIP3   OH226448   1.618   5.847   2.469  0.3274  0.2754 -0.0597
 1678TIP3    H126449   1.702   5.852   2.514 -0.1088  0.7872  0.7259
 1678TIP3    H226450   1.641   5.847   2.376  1.3232 -2.4362  0.1142
 1679TIP3   OH226451   4.190   1.206   3.744  0.7485 -0.3719  0.0126
 1679TIP3    H126452   4.136   1.271   3.698 -1.4078 -2.1944 -0.2196
 1679TIP3    H226453   4.237   1.160   3.674 -0.4870 -1.3830 -0.1844
 1680TIP3   OH226454   1.719   1.140  10.580 -0.1566  0.2550  0.5272
 1680TIP3    H126455   1.745   1.087  10.505 -1.2649 -1.1660  1.1055
 1680TIP3    H226456   1.648   1.195  10.548 -0.5419 -0.2570  0.5046
 1681TIP3   OH226457   4.466   6.321  13.063 -0.4452 -0.1558 -0.4685
 1681TIP3    H126458   4.536   6.340  13.001 -0.2974 -1.8178 -0.8595
 1681TIP3    H226459   4.512   6.294  13.143 -0.5765 -1.9279 -0.9406
 1682TIP3   OH226460   3.958   5.196   2.820  0.1282 -0.0089  0.7639
 1682TIP3    H126461   4.006   5.163   2.896  1.9458  0.3739 -0.1462
 1682TIP3    H226462   3.927   5.118   2.775  0.8274 -0.3181  0.8132
 1683TIP3   OH226463   5.226   4.537  11.569 -0.0629 -0.5936 -0.2846
 1683TIP3    H126464   5.203   4.530  11.662  1.3029 -1.1988  0.0404
 1683TIP3    H226465   5.209   4.629  11.547 -0.3295 -0.4244  0.5885
 1684TIP3   OH226466   2.658   1.129   2.371  0.1997  0.2714 -0.0584
 1684TIP3    H126467   2.686   1.195   2.307 -2.1017  2.0173  0.6313
 1684TIP3    H226468   2.737   1.076   2.385  1.4829  1.3612 -2.4289
 1685TIP3   OH226469   3.065   2.034  10.898  0.4436 -0.7028  0.1892
 1685TIP3    H126470   3.045   2.058  10.807  2.4778 -0.6387 -0.2994
 1685TIP3    H226471   3.099   1.944  10.891  0.4713 -0.7484  0.9007
 1686TIP3   OH226472   3.029   3.971  11.258  0.7965  0.1236  1.0487
 1686TIP3    H126473   2.967   4.044  11.251 -0.0340 -0.6263  0.1753
 1686TIP3    H226474   3.091   3.998  11.326  0.3671  1.5236  0.9178
 1687TIP3   OH226475   2.545   3.993   1.604  0.3521 -1.0562 -0.0299
 1687TIP3    H126476   2.489   4.068   1.586 -1.8040 -2.1768  1.6204
 1687TIP3    H226477   2.510   3.954   1.683  4.0276 -1.3897  1.6596
 1688TIP3   OH226478   5.171   2.501   1.437 -0.0037 -0.4708  0.1934
 1688TIP3    H126479   5.190   2.471   1.526 -0.8190 -0.5347  0.3552
 1688TIP3    H226480   5.104   2.569   1.449 -2.4853 -2.6552 -0.5550
 1689TIP3   OH226481   5.909   0.095  15.682  0.1680  0.0850 -0.4100
 1689TIP3    H126482   5.985   0.109  15.739 -0.1989 -0.6657  0.2771
 1689TIP3    H226483   5.914   0.002  15.657  0.9196  0.6258 -2.4934
 1690TIP3   OH226484   4.474   5.325  11.323 -0.1690 -0.8130  0.5349
 1690TIP3    H126485   4.529   5.385  11.272 -2.0451  0.4030 -0.1425
 1690TIP3    H226486   4.490   5.350  11.414 -0.3030  0.1632  0.3014
 1691TIP3   OH226487   0.304   2.338   6.406 -0.2336  0.1334 -0.0761
 1691TIP3    H126488   0.391   2.333   6.445 -1.1436 -0.3820  1.9859
 1691TIP3    H226489   0.283   2.247   6.382 -0.7583  0.0371  0.7299
 1692TIP3   OH226490   0.381   0.285  17.025  0.1275 -0.0581  0.1527
 1692TIP3    H126491   0.386   0.333  17.108  0.5356 -0.6712  0.5010
 1692TIP3    H226492   0.343   0.200  17.049  0.1635 -0.2053 -0.3025
 1693TIP3   OH226493   6.762   1.271  11.596  0.2230  0.3956  0.7407
 1693TIP3    H126494   6.698   1.341  11.583  1.3520  1.1958 -0.8718
 1693TIP3    H226495   6.830   1.311  11.650  0.0945  0.0255  1.1789
 1694TIP3   OH226496   5.027   5.771   3.182 -0.3791 -0.2625  0.1219
 1694TIP3    H126497   4.953   5.711   3.185 -2.6238  2.3723  1.2835
 1694TIP3    H226498   4.999   5.842   3.124  2.0689 -0.0844 -1.0131
 1695TIP3   OH226499   4.149   1.726  13.202 -0.1507  0.5564 -0.0093
 1695TIP3    H126500   4.165   1.661  13.271  0.5491  2.0838  1.3452
 1695TIP3    H226501   4.197   1.693  13.127 -0.4386 -0.8711  0.4040
 1696TIP3   OH226502   2.314   0.524   5.224 -0.1131  0.3422  0.2980
 1696TIP3    H126503   2.280   0.446   5.268  1.2519  0.9149  2.5099
 1696TIP3    H226504   2.346   0.580   5.294  0.6805  2.0899 -1.3450
 1697TIP3   OH226505   5.467   4.903  10.746  0.3895 -0.2192  0.5733
 1697TIP3    H126506   5.514   4.957  10.809  1.2147 -0.3050  0.0496
 1697TIP3    H226507   5.452   4.820  10.791  0.5076 -0.0994  0.8357
 1698TIP3   OH226508   4.408   3.450   1.186 -0.6346 -0.4922 -0.0218
 1698TIP3    H126509   4.446   3.504   1.117  0.5743 -0.8387  0.3530
 1698TIP3    H226510   4.322   3.488   1.201 -0.6689 -0.0192 -1.2688
 1699TIP3   OH226511   5.321   6.290   1.378  0.3958  0.7816  0.1161
 1699TIP3    H126512   5.342   6.200   1.355  0.6063  0.5966  0.9798
 1699TIP3    H226513   5.368   6.343   1.314  0.5469  0.2833 -0.1916
 1700TIP3   OH226514   4.403   3.482  15.645  0.2310  0.2318  0.9205
 1700TIP3    H126515   4.382   3.395  15.680 -1.3435 -0.0874 -0.6540
 1700TIP3    H226516   4.498   3.486  15.648  0.3001 -1.1626  1.8954
 1701TIP3   OH226517   3.122   2.846   0.149  0.5335 -0.5048  0.1214
 1701TIP3    H126518   3.143   2.829   0.058  2.0506  2.7340 -0.2989
 1701TIP3    H226519   3.199   2.893   0.183 -0.1856 -1.1581  2.9361
 1702TIP3   OH226520   0.142   3.327  14.482  0.0313 -0.1794 -0.4762
 1702TIP3    H126521   0.179   3.253  14.531  0.4066  0.6393  0.5019
 1702TIP3    H226522   0.218   3.371  14.444 -0.0971  0.3628 -0.1053
 1703TIP3   OH226523   3.833   6.034  17.213  0.2133 -0.2737  0.0273
 1703TIP3    H126524   3.888   5.984  17.152  0.4981  0.0400  0.0238
 1703TIP3    H226525   3.855   6.125  17.195  0.8458 -0.2038  1.1180
 1704TIP3   OH226526   2.702   4.600   2.133  0.1535  0.4212  0.1444
 1704TIP3    H126527   2.627   4.601   2.074  0.2041  1.3701  0.0786
 1704TIP3    H226528   2.730   4.691   2.137  0.7456  0.2146  0.8779
 1705TIP3   OH226529   4.605   4.401  14.584 -0.3853 -0.0279 -0.0270
 1705TIP3    H126530   4.644   4.379  14.668 -0.3791 -0.5179 -0.1557
 1705TIP3    H226531   4.526   4.449  14.606  0.5893  1.5162  0.2338
 1706TIP3   OH226532   5.822   2.709  12.273  0.1139  0.4081  0.9402
 1706TIP3    H126533   5.799   2.748  12.357  3.1447 -0.3978  2.2596
 1706TIP3    H226534   5.819   2.782  12.211  0.3965  1.5802  2.2668
 1707TIP3   OH226535   3.031   0.727  11.391  0.2197  0.1102  0.5896
 1707TIP3    H126536   2.974   0.803  11.379  0.5065  0.4693  1.3947
 1707TIP3    H226537   3.012   0.697  11.480 -0.4890 -1.2801  0.0030
 1708TIP3   OH226538   5.724   5.886   1.755  0.0062 -0.2811 -0.2502
 1708TIP3    H126539   5.711   5.900   1.849  0.4935 -1.3053 -0.0203
 1708TIP3    H226540   5.799   5.827   1.750 -1.6091 -2.3879 -1.1600
 1709TIP3   OH226541   4.898   0.270  14.665  0.3711 -0.3723  0.2584
 1709TIP3    H126542   4.852   0.217  14.730  0.2091  0.4050  0.7947
 1709TIP3    H226543   4.832   0.292  14.600  0.1219  0.2126  0.6964
 1710TIP3   OH226544   0.917   2.092  11.122 -0.3127  0.5420  0.1354
 1710TIP3    H126545   0.895   2.024  11.058  3.2822 -0.4985 -0.2304
 1710TIP3    H226546   0.904   2.174  11.075 -0.9982 -0.0695 -0.7714
 1711TIP3   OH226547   6.655   2.669   1.685  0.1876 -0.5876 -0.0021
 1711TIP3    H126548   6.606   2.710   1.615  1.3173  1.0620  0.1119
 1711TIP3    H226549   6.590   2.650   1.753 -0.4532  0.5741 -0.2757
 1712TIP3   OH226550   5.271   6.549  10.508  0.6533 -0.1951 -0.2049
 1712TIP3    H126551   5.367   6.550  10.513  0.5840 -0.0556  1.6360
 1712TIP3    H226552   5.250   6.461  10.477  1.3387 -0.6622  0.6352
 1713TIP3   OH226553   6.058   6.565   6.524  0.4937  0.1642 -0.4939
 1713TIP3    H126554   6.130   6.627   6.527 -1.3782  2.5459  2.3464
 1713TIP3    H226555   5.999   6.599   6.456  1.1264 -0.6760 -1.4826
 1714TIP3   OH226556   2.472   5.207   4.566  0.7850  0.4104 -0.2018
 1714TIP3    H126557   2.414   5.132   4.555 -1.5494  2.1326 -0.4132
 1714TIP3    H226558   2.434   5.256   4.639  1.3442  2.1705 -1.0360
 1715TIP3   OH226559   2.548   4.618  13.922 -0.1855  0.6063 -0.3705
 1715TIP3    H126560   2.484   4.547  13.914 -0.0821  0.5647 -0.8929
 1715TIP3    H226561   2.522   4.681  13.855  0.2227  0.6598 -0.4824
 1716TIP3   OH226562   5.204   5.659   1.208 -0.4752 -0.2787 -0.3797
 1716TIP3    H126563   5.257   5.582   1.187 -0.4061 -0.5482  0.7225
 1716TIP3    H226564   5.229   5.682   1.297 -0.8396  0.7477 -0.5319
 1717TIP3   OH226565   5.227   6.489  11.583 -0.1965  0.4961  0.1353
 1717TIP3    H126566   5.216   6.508  11.490 -0.7663 -0.1102  0.0692
 1717TIP3    H226567   5.321   6.478  11.594 -0.1664  0.0086 -0.4959
 1718TIP3   OH226568   3.638   5.277  11.621 -0.2682 -0.5361 -0.4219
 1718TIP3    H126569   3.585   5.342  11.668  1.0675  0.0165  0.4079
 1718TIP3    H226570   3.589   5.195  11.628 -0.7620 -0.1577  0.7848
 1719TIP3   OH226571   3.915   0.411  15.320 -0.0385  0.3541 -0.3880
 1719TIP3    H126572   3.823   0.437  15.321  0.0907  0.9124 -1.5278
 1719TIP3    H226573   3.935   0.390  15.412 -1.0444  1.0920  0.0190
 1720TIP3   OH226574   3.093   5.790   0.411  0.0236 -0.0631  0.4286
 1720TIP3    H126575   3.119   5.752   0.495 -0.8885 -1.0766  0.2733
 1720TIP3    H226576   3.003   5.819   0.424 -0.1585 -0.3207 -0.2232
 1721TIP3   OH226577   0.519   0.493  10.453 -0.1663 -0.1090 -0.0064
 1721TIP3    H126578   0.593   0.441  10.483 -0.5613 -1.5484 -1.3928
 1721TIP3    H226579   0.536   0.508  10.360  0.3138  2.9580  0.4756
 1722TIP3   OH226580   6.455   5.185   5.752  0.1532 -0.2551 -0.6042
 1722TIP3    H126581   6.455   5.161   5.659  1.3221  0.2930 -0.7545
 1722TIP3    H226582   6.398   5.262   5.757 -0.4609 -0.6883 -0.7416
 1723TIP3   OH226583   4.317   5.116  12.277  0.1296 -0.3820 -0.5160
 1723TIP3    H126584   4.402   5.137  12.314 -0.3491  1.8141 -0.5336
 1723TIP3    H226585   4.328   5.029  12.239  2.2225 -0.3319 -0.1254
 1724TIP3   OH226586   3.423   6.205   5.600 -0.3876 -0.5423  0.0525
 1724TIP3    H126587   3.395   6.119   5.570 -2.2395  0.7296 -2.2355
 1724TIP3    H226588   3.352   6.234   5.658  0.4474 -0.7040  1.1874
 1725TIP3   OH226589   5.352   1.408  14.640 -0.2666 -0.0925 -0.0895
 1725TIP3    H126590   5.369   1.384  14.549 -3.0055 -0.1743 -0.6557
 1725TIP3    H226591   5.391   1.494  14.651  1.2753 -0.6487 -0.8904
 1726TIP3   OH226592   2.748   4.800  16.558  0.5269  0.0826  0.5436
 1726TIP3    H126593   2.656   4.799  16.534  0.8145  0.7195 -0.6640
 1726TIP3    H226594   2.783   4.879  16.518  1.3773  0.4486  1.9250
 1727TIP3   OH226595   0.294   0.593   3.209  0.1718 -0.0643 -0.6372
 1727TIP3    H126596   0.341   0.647   3.273  2.4890 -1.3628 -1.1173
 1727TIP3    H226597   0.268   0.655   3.141  1.9982  0.6471 -0.7569
 1728TIP3   OH226598   2.860   4.208  15.190 -0.1291 -0.0219  0.3779
 1728TIP3    H126599   2.821   4.227  15.105  0.7831 -3.9933 -1.1850
 1728TIP3    H226600   2.947   4.246  15.185  0.8357 -2.2198 -1.6326
 1729TIP3   OH226601   2.143   0.972   5.264 -0.7250 -0.4527 -0.1942
 1729TIP3    H126602   2.177   0.908   5.326 -0.5641 -0.7460 -0.5816
 1729TIP3    H226603   2.200   0.964   5.187 -2.0934 -1.4676 -1.1499
 1730TIP3   OH226604   3.912   0.726   1.204  0.9252 -0.3158 -0.3170
 1730TIP3    H126605   3.965   0.742   1.283  2.1821 -1.4214 -0.8807
 1730TIP3    H226606   3.860   0.805   1.193  2.1942  0.6798  0.5031
 1731TIP3   OH226607   2.431   0.692   2.884 -0.1115 -0.4474 -0.3495
 1731TIP3    H126608   2.439   0.663   2.975  1.6515  1.4427  0.1847
 1731TIP3    H226609   2.365   0.761   2.886 -1.1067 -1.3496 -0.8136
 1732TIP3   OH226610   5.130   5.009  16.842  0.2316 -0.2037  0.5877
 1732TIP3    H126611   5.223   5.029  16.829  0.6240 -1.8874  0.6761
 1732TIP3    H226612   5.124   4.972  16.929 -0.3958 -0.8534  0.2819
 1733TIP3   OH226613   1.542   4.750  11.027 -0.2255 -0.1104 -0.5616
 1733TIP3    H126614   1.461   4.794  10.999  0.5211  1.4565 -0.4004
 1733TIP3    H226615   1.582   4.720  10.946  0.5528  1.9325 -1.0063
 1734TIP3   OH226616   3.150   1.432  15.700  0.2193 -0.0339 -0.2243
 1734TIP3    H126617   3.066   1.471  15.726  0.7386  0.0202  1.4702
 1734TIP3    H226618   3.193   1.501  15.650 -0.0446  0.5537  0.3420
 1735TIP3   OH226619   1.779   1.336  15.204  0.5237 -0.0858 -0.4702
 1735TIP3    H126620   1.728   1.256  15.217  1.4728 -0.3936  1.5760
 1735TIP3    H226621   1.867   1.306  15.183  0.9780  0.3989  0.6909
 1736TIP3   OH226622   0.349   3.083   1.957  0.2642 -0.4603 -0.4739
 1736TIP3    H126623   0.432   3.036   1.964 -0.4351 -1.8681 -1.1044
 1736TIP3    H226624   0.288   3.030   2.009 -0.7678 -0.8044 -1.9712
 1737TIP3   OH226625   3.790   2.484   0.186 -0.6290 -0.2400 -0.1007
 1737TIP3    H126626   3.821   2.395   0.203 -1.8903 -1.0477 -1.7263
 1737TIP3    H226627   3.846   2.515   0.115  1.0140  1.0375  1.6256
 1738TIP3   OH226628   2.597   1.582  13.097  0.5109 -0.3236  0.0520
 1738TIP3    H126629   2.679   1.604  13.055  0.3219 -1.1544 -0.7974
 1738TIP3    H226630   2.606   1.613  13.187  0.3515  2.8889 -0.9189
 1739TIP3   OH226631   6.586   4.803  11.720  0.2016  0.1210 -0.3350
 1739TIP3    H126632   6.571   4.740  11.649  1.5324  0.1862 -0.7053
 1739TIP3    H226633   6.595   4.750  11.799  1.3272 -0.1844 -0.6481
 1740TIP3   OH226634   3.971   3.477  15.886 -0.1981  0.0640  0.1257
 1740TIP3    H126635   4.059   3.488  15.921  0.1909 -0.1923 -0.7569
 1740TIP3    H226636   3.983   3.437  15.801 -1.2039 -0.4694  0.2153
 1741TIP3   OH226637   4.557   6.605  10.689  0.1021 -0.2445 -0.6228
 1741TIP3    H126638   4.472   6.633  10.656  0.8060  2.2469 -0.5316
 1741TIP3    H226639   4.550   6.613  10.784  1.1136  2.3797 -0.6959
 1742TIP3   OH226640   2.406   5.977  14.855  0.3362  0.0351 -0.3117
 1742TIP3    H126641   2.443   5.991  14.942 -1.0395 -1.5438  0.5917
 1742TIP3    H226642   2.334   5.915  14.869  0.7189 -1.0857 -2.7190
 1743TIP3   OH226643   3.891   4.698   6.685  0.2367 -0.3885  0.1178
 1743TIP3    H126644   3.917   4.655   6.604  0.8677 -0.5610  0.4054
 1743TIP3    H226645   3.842   4.775   6.657  0.4345 -0.4586 -0.4242
 1744TIP3   OH226646   5.247   0.273  17.196  0.6361 -0.4106  0.3412
 1744TIP3    H126647   5.187   0.273  17.271  2.1908 -0.1928  1.6395
 1744TIP3    H226648   5.224   0.353  17.148 -0.2201 -0.4215  0.7058
 1745TIP3   OH226649   1.472   0.529  16.573  0.4885  1.1303  0.5728
 1745TIP3    H126650   1.538   0.482  16.625 -1.2117  1.2192  2.9616
 1745TIP3    H226651   1.460   0.612  16.618  1.4355  2.8146 -2.0368
 1746TIP3   OH226652   3.816   3.035   0.889 -0.2746 -0.3706  0.1230
 1746TIP3    H126653   3.860   3.048   0.805 -1.0812 -1.0455 -0.4219
 1746TIP3    H226654   3.744   2.975   0.869 -1.0365  0.1916  1.1185
 1747TIP3   OH226655   0.978   3.633   0.406 -0.0816 -0.1064 -0.4251
 1747TIP3    H126656   0.921   3.644   0.330 -1.7006 -1.7185  0.5134
 1747TIP3    H226657   1.062   3.606   0.368 -0.7267 -0.4416 -1.6816
 1748TIP3   OH226658   2.670   4.262  15.869 -0.2535 -0.5920 -0.9056
 1748TIP3    H126659   2.759   4.295  15.854 -0.6582  1.0758  0.0366
 1748TIP3    H226660   2.641   4.231  15.784  0.8226 -0.1058 -1.4752
 1749TIP3   OH226661   2.586   2.250  14.030 -0.3664 -0.1184  0.8199
 1749TIP3    H126662   2.628   2.243  13.944  2.5129  1.1921  1.9847
 1749TIP3    H226663   2.619   2.174  14.078 -0.5643  0.0859  1.2811
 1750TIP3   OH226664   0.397   4.739  14.050  0.2501 -0.6399  0.0818
 1750TIP3    H126665   0.432   4.811  14.103  0.6517 -1.5119  1.0408
 1750TIP3    H226666   0.451   4.740  13.971 -1.1300  1.4308 -0.9329
 1751TIP3   OH226667   1.853   2.028  15.227 -0.2387  0.5973  0.1133
 1751TIP3    H126668   1.916   1.994  15.163 -0.8327 -1.9567  0.8142
 1751TIP3    H226669   1.900   2.099  15.271  2.7969 -2.0841  1.6007
 1752TIP3   OH226670   6.437   1.891   4.259 -0.7384 -0.1082 -0.5125
 1752TIP3    H126671   6.514   1.866   4.311 -0.2741 -2.5364 -2.2338
 1752TIP3    H226672   6.472   1.942   4.187 -1.1035  1.0840  0.1200
 1753TIP3   OH226673   6.318   3.329   5.540 -0.2678 -0.0861  0.0118
 1753TIP3    H126674   6.224   3.309   5.538  0.0141 -1.6914  0.8158
 1753TIP3    H226675   6.356   3.257   5.589  1.1917  1.4318  1.2132
 1754TIP3   OH226676   4.317   0.524  11.154  0.1109 -0.0007  0.8584
 1754TIP3    H126677   4.396   0.525  11.100  0.3526  0.0541  1.2045
 1754TIP3    H226678   4.253   0.475  11.103  0.3224  0.0833  0.5094
 1755TIP3   OH226679   1.152   3.516   4.612  0.1758 -0.0015  0.0293
 1755TIP3    H126680   1.127   3.496   4.522  0.8000  2.1708 -0.6950
 1755TIP3    H226681   1.204   3.441   4.640 -0.5088 -0.9745 -1.1868
 1756TIP3   OH226682   6.072   5.600   3.118 -0.2350  0.5038  0.2662
 1756TIP3    H126683   6.062   5.551   3.199 -0.9712  1.4019  0.7481
 1756TIP3    H226684   6.006   5.564   3.059 -0.0355  0.1848  0.2378
 1757TIP3   OH226685   5.780   6.342   1.491 -0.1118 -0.0093  0.1591
 1757TIP3    H126686   5.818   6.254   1.484 -2.3776 -0.9280 -3.6623
 1757TIP3    H226687   5.693   6.327   1.528 -0.6625  0.5312 -0.8903
 1758TIP3   OH226688   4.409   2.705  13.163  0.1760  0.5668 -0.5214
 1758TIP3    H126689   4.371   2.643  13.101  0.6438  0.6618 -0.9104
 1758TIP3    H226690   4.448   2.650  13.231  0.5156  0.4347 -0.8200
 1759TIP3   OH226691   1.197   1.781   4.019 -0.1935 -0.0574  0.6398
 1759TIP3    H126692   1.275   1.809   3.973 -0.6594 -0.0634 -0.1684
 1759TIP3    H226693   1.134   1.852   4.005 -0.9346 -0.8726 -0.2883
 1760TIP3   OH226694   1.776   3.343  16.802 -0.7623 -0.1595  0.5345
 1760TIP3    H126695   1.854   3.310  16.758 -1.3928  0.9276 -1.5026
 1760TIP3    H226696   1.806   3.364  16.891  0.4479 -2.8224  0.8521
 1761TIP3   OH226697   5.056   0.075  12.720  0.2153 -0.7535  1.0019
 1761TIP3    H126698   5.131   0.128  12.747  0.1622  0.6501 -1.2824
 1761TIP3    H226699   5.093   0.013  12.656 -0.4098 -0.5949  0.4743
 1762TIP3   OH226700   2.309   3.029  11.786  0.1234 -0.6901  0.6525
 1762TIP3    H126701   2.272   2.944  11.812 -0.4262 -0.9328 -0.8423
 1762TIP3    H226702   2.233   3.083  11.767  0.4783  0.0873  1.3926
 1763TIP3   OH226703   2.454   2.254   5.019 -0.5798 -0.1924 -0.5834
 1763TIP3    H126704   2.378   2.285   4.970  0.2801  1.6552 -0.8299
 1763TIP3    H226705   2.529   2.301   4.981  0.3163  0.1533  1.4559
 1764TIP3   OH226706   1.969   4.890   1.049  0.7956 -0.5484 -0.1807
 1764TIP3    H126707   1.900   4.879   1.115  1.4408 -1.0215  0.4284
 1764TIP3    H226708   1.935   4.844   0.972  0.3079 -0.5278  0.0153
 1765TIP3   OH226709   0.472   4.777   4.170  0.1366  0.2977 -0.6204
 1765TIP3    H126710   0.390   4.752   4.126  0.7417  0.2766 -1.7708
 1765TIP3    H226711   0.474   4.873   4.164  0.8879  0.2224 -1.9205
 1766TIP3   OH226712   6.022   4.012   3.205  0.3298 -0.1898  0.7081
 1766TIP3    H126713   6.046   4.069   3.132  2.5912 -2.0395 -0.1096
 1766TIP3    H226714   5.941   3.970   3.177 -1.4075  2.5008  1.3458
 1767TIP3   OH226715   0.375   1.117   6.054 -0.1714  0.6731 -0.0971
 1767TIP3    H126716   0.361   1.199   6.005 -0.0350  0.0726 -1.1880
 1767TIP3    H226717   0.390   1.052   5.986 -0.5289 -0.3153  0.7558
 1768TIP3   OH226718   6.483   4.870   1.004 -0.0922 -0.5089 -0.7596
 1768TIP3    H126719   6.468   4.777   0.983  0.5797 -0.1917 -2.9494
 1768TIP3    H226720   6.418   4.916   0.951 -0.3218  0.3011  0.1993
 1769TIP3   OH226721   4.618   1.982   2.735 -0.6034 -0.4715  0.0811
 1769TIP3    H126722   4.624   2.041   2.810  0.0010 -0.4576  0.0298
 1769TIP3    H226723   4.569   2.031   2.669  0.1172  0.0760 -0.0543
 1770TIP3   OH226724   1.843   1.039  11.351  0.2023 -0.1041 -0.1205
 1770TIP3    H126725   1.811   1.100  11.284 -1.5054  1.0017  1.5951
 1770TIP3    H226726   1.934   1.023  11.327 -0.3109  0.3326 -2.6157
 1771TIP3   OH226727   6.137   5.608   5.703 -0.0049  0.0022 -0.4353
 1771TIP3    H126728   6.119   5.698   5.733  0.8188 -0.2552  0.9240
 1771TIP3    H226729   6.179   5.566   5.778 -0.7038 -1.6454 -0.9241
 1772TIP3   OH226730   4.518   1.497   6.233 -0.7825 -0.1056  0.1528
 1772TIP3    H126731   4.504   1.412   6.274  0.4166 -0.3642  0.0702
 1772TIP3    H226732   4.457   1.498   6.159 -0.6817 -0.9884  0.0382
 1773TIP3   OH226733   2.198   4.017  12.338 -0.4284  0.2337  0.0258
 1773TIP3    H126734   2.240   4.036  12.422  0.0807  0.0121 -0.1795
 1773TIP3    H226735   2.244   4.071  12.274  0.7324 -1.2907 -0.4826
 1774TIP3   OH226736   5.582   0.406   3.421  0.0104 -0.7842 -0.0693
 1774TIP3    H126737   5.579   0.349   3.344 -1.6957 -0.3135 -0.4056
 1774TIP3    H226738   5.525   0.479   3.398 -0.1318 -0.3866  1.4506
 1775TIP3   OH226739   3.480   2.137   0.487 -0.0711  0.3110  0.5890
 1775TIP3    H126740   3.495   2.068   0.422  0.6189  0.5004  0.5379
 1775TIP3    H226741   3.441   2.209   0.437 -2.2481 -0.5700  0.9128
 1776TIP3   OH226742   4.798   0.928   4.909 -0.3076  0.0301 -0.6231
 1776TIP3    H126743   4.812   0.933   5.004  1.6862  1.7084 -0.9288
 1776TIP3    H226744   4.713   0.969   4.895  0.3011  1.7396  0.3163
 1777TIP3   OH226745   2.384   4.212  15.806 -0.6510 -0.1354 -0.5032
 1777TIP3    H126746   2.430   4.185  15.727  1.4784 -0.2852  0.7101
 1777TIP3    H226747   2.388   4.136  15.864  2.1435  1.3680  1.5309
 1778TIP3   OH226748   0.742   1.141   3.044 -0.8276  0.1254 -0.5399
 1778TIP3    H126749   0.811   1.191   3.090 -0.6008 -0.3641 -0.3428
 1778TIP3    H226750   0.764   1.050   3.061  0.4835 -0.1848 -3.3214
 1779TIP3   OH226751   4.894   4.151   3.516  0.6411 -0.2062  0.3645
 1779TIP3    H126752   4.913   4.149   3.610 -0.0184 -2.5877  0.5010
 1779TIP3    H226753   4.976   4.125   3.474  0.3593 -1.1862  0.4111
 1780TIP3   OH226754   0.780   2.511   4.612  0.4254  0.0099  0.0162
 1780TIP3    H126755   0.874   2.529   4.617  0.9086 -1.2094 -2.8642
 1780TIP3    H226756   0.749   2.564   4.538 -1.6672  1.8993  2.0620
 1781TIP3   OH226757   6.593   4.668  13.422 -0.0642  0.4314 -0.0344
 1781TIP3    H126758   6.659   4.734  13.443  1.5194 -1.2027  0.4124
 1781TIP3    H226759   6.630   4.621  13.346 -1.6195  0.6603 -0.9765
 1782TIP3   OH226760   1.395   4.923  12.034 -0.4076  0.1574 -0.4278
 1782TIP3    H126761   1.470   4.975  12.065  0.0582 -0.5480 -0.3423
 1782TIP3    H226762   1.415   4.904  11.943  0.2945 -1.3373  0.0034
 1783TIP3   OH226763   5.573   3.937  15.610  0.3505  0.1420  0.6547
 1783TIP3    H126764   5.661   3.932  15.572  0.0976 -0.8333  0.1750
 1783TIP3    H226765   5.533   4.013  15.566  0.9276  0.5669  0.8471
 1784TIP3   OH226766   0.107   2.657   3.906  0.0226  0.1335 -0.7869
 1784TIP3    H126767   0.182   2.607   3.875  0.1587 -0.2700  0.1553
 1784TIP3    H226768   0.110   2.739   3.856  0.4908 -0.3080 -1.4851
 1785TIP3   OH226769   4.396   5.560  16.936  0.1783 -0.3852  0.7491
 1785TIP3    H126770   4.405   5.549  16.841 -0.4383 -0.5975  0.7133
 1785TIP3    H226771   4.316   5.513  16.958  0.3948 -0.4571  1.4005
 1786TIP3   OH226772   4.757   4.872  11.906  0.3900 -0.1268 -0.9858
 1786TIP3    H126773   4.829   4.876  11.969 -0.7281  1.9993  0.2654
 1786TIP3    H226774   4.784   4.805  11.844  3.0582 -0.0003 -0.1061
 1787TIP3   OH226775   6.720   6.703   2.348  0.5260  0.7844  0.2069
 1787TIP3    H126776   6.802   6.676   2.389  0.1312 -0.2717  0.3202
 1787TIP3    H226777   6.742   6.783   2.300  1.9264 -0.1865 -0.8160
 1788TIP3   OH226778   5.909   0.589   1.637  0.4147  0.1602 -0.1088
 1788TIP3    H126779   5.957   0.651   1.583 -0.1203  0.5120 -0.1886
 1788TIP3    H226780   5.924   0.619   1.727  0.8293 -0.0860 -0.0905
 1789TIP3   OH226781   6.479   2.488   1.456 -0.0738  0.4320 -0.4596
 1789TIP3    H126782   6.570   2.513   1.469 -0.0374  0.3053 -0.4703
 1789TIP3    H226783   6.468   2.410   1.510  0.6536 -1.3818 -2.8047
 1790TIP3   OH226784   4.257   5.370   5.357  0.0708  0.0119  0.4667
 1790TIP3    H126785   4.179   5.354   5.302  0.0474 -3.7865  1.3393
 1790TIP3    H226786   4.330   5.342   5.302  0.6815  1.6775  0.3847
 1791TIP3   OH226787   1.573   4.539   4.875  0.5617  0.8159  0.0923
 1791TIP3    H126788   1.612   4.480   4.940  4.4221  1.4009 -1.3810
 1791TIP3    H226789   1.558   4.484   4.798  0.1133  0.9364  0.0939
 1792TIP3   OH226790   3.212   2.168  12.310 -0.2667  0.2514  0.8142
 1792TIP3    H126791   3.292   2.115  12.314 -0.4659 -0.2901 -1.2881
 1792TIP3    H226792   3.218   2.225  12.387  1.9579 -0.0290  0.9291
 1793TIP3   OH226793   6.102   1.052  15.319 -0.3427  0.3916  0.1936
 1793TIP3    H126794   6.141   1.054  15.232  0.3178  0.3421  0.4837
 1793TIP3    H226795   6.137   0.973  15.359 -2.3829 -0.8164 -0.2743
 1794TIP3   OH226796   0.013   3.344   0.497 -0.5054  0.5379  0.1919
 1794TIP3    H126797   0.047   3.434   0.497 -0.4559  0.5457 -1.4419
 1794TIP3    H226798  -0.081   3.355   0.479 -0.7317  0.3232  1.2229
 1795TIP3   OH226799   0.625   5.038   5.212 -0.3498  0.0063  0.3951
 1795TIP3    H126800   0.669   5.117   5.180  0.1519 -1.0856 -1.7989
 1795TIP3    H226801   0.696   4.981   5.241 -0.5459 -0.4860 -0.0825
 1796TIP3   OH226802   5.200   1.477   5.266  0.5045  0.1140  0.7924
 1796TIP3    H126803   5.222   1.545   5.202  0.3312 -0.2401  0.3446
 1796TIP3    H226804   5.283   1.434   5.285  0.1746 -1.7931 -1.5566
 1797TIP3   OH226805   4.285   0.596  14.451  0.4794  0.4336  0.6116
 1797TIP3    H126806   4.211   0.616  14.508  0.3450  0.1233  0.5484
 1797TIP3    H226807   4.346   0.669  14.464 -0.6670  1.7100 -0.7865
 1798TIP3   OH226808   1.002   0.392  14.348  0.6829 -0.1781 -0.0461
 1798TIP3    H126809   0.976   0.361  14.434 -3.0475 -1.2801 -1.3674
 1798TIP3    H226810   1.044   0.477  14.364 -2.0906  0.8399  2.7546
 1799TIP3   OH226811   6.095   4.796   1.034 -0.1217  0.3106  0.1347
 1799TIP3    H126812   6.163   4.796   0.968 -1.4223  1.2118 -1.2787
 1799TIP3    H226813   6.070   4.704   1.043  1.1138 -0.0021  0.5298
 1800TIP3   OH226814   1.910   6.511  11.066 -0.1859  0.2727 -0.5378
 1800TIP3    H126815   1.967   6.559  11.007  0.7229  1.0595  0.9124
 1800TIP3    H226816   1.852   6.577  11.103  1.5437  0.4927  2.0208
 1801TIP3   OH226817   4.419   2.254   0.535  0.2114  0.0165 -0.6656
 1801TIP3    H126818   4.449   2.253   0.444  0.7770  1.3504 -0.5145
 1801TIP3    H226819   4.335   2.299   0.531 -0.0524 -0.4579 -0.5913
 1802TIP3   OH226820   0.641   0.207  11.322  0.2706  0.6198 -0.9067
 1802TIP3    H126821   0.682   0.120  11.325  1.5201  1.1821 -1.0056
 1802TIP3    H226822   0.556   0.195  11.364 -0.0420 -0.8893 -1.8976
 1803TIP3   OH226823   4.006   4.199  13.071 -0.2298 -0.1232 -0.4320
 1803TIP3    H126824   4.092   4.197  13.029 -0.3159  0.0817 -0.6140
 1803TIP3    H226825   4.017   4.146  13.150 -0.2766 -1.1574 -1.1036
 1804TIP3   OH226826   2.289   1.181  16.414 -0.1360 -0.3371  0.5756
 1804TIP3    H126827   2.311   1.269  16.443  0.4322 -0.2070 -0.2234
 1804TIP3    H226828   2.372   1.141  16.390 -0.5061 -0.6711 -0.2070
 1805TIP3   OH226829   3.033   6.574  17.244  0.2864 -0.5786 -0.1751
 1805TIP3    H126830   3.015   6.504  17.308  0.0466  0.9959  1.5834
 1805TIP3    H226831   3.076   6.530  17.171  0.0630 -2.5713  0.8335
 1806TIP3   OH226832   5.396   2.788   3.222 -0.0464  0.3281  0.1870
 1806TIP3    H126833   5.475   2.771   3.171  0.8398  2.8347  0.5773
 1806TIP3    H226834   5.398   2.723   3.292  0.5003 -0.9852 -0.9963
 1807TIP3   OH226835   2.525   6.717  17.018  0.3821 -0.3607 -0.3996
 1807TIP3    H126836   2.604   6.688  17.063  0.3475  0.4416  0.1946
 1807TIP3    H226837   2.519   6.661  16.940  1.3954 -0.5817 -0.3217
 1808TIP3   OH226838   0.104   0.570   4.971  0.2377  0.2021 -0.2369
 1808TIP3    H126839   0.032   0.575   4.908  0.1985  0.8872 -0.1475
 1808TIP3    H226840   0.087   0.489   5.020 -1.4336  1.1843  0.9117
 1809TIP3   OH226841   0.836   6.635   6.590 -0.2539  0.1125  0.5283
 1809TIP3    H126842   0.753   6.633   6.543  0.0420 -0.1648 -0.0013
 1809TIP3    H226843   0.890   6.569   6.545  1.1167  2.0062 -0.7564
 1810TIP3   OH226844   6.328   4.722  12.743  0.0236  0.1510 -0.1279
 1810TIP3    H126845   6.338   4.664  12.668  1.8281 -1.8948  1.5360
 1810TIP3    H226846   6.394   4.790  12.731 -1.6724  1.6226 -1.7686
 1811TIP3   OH226847   2.192   6.275  15.045  0.1255  0.2089  0.5454
 1811TIP3    H126848   2.211   6.197  15.097 -0.5797 -0.7195 -0.5446
 1811TIP3    H226849   2.125   6.321  15.095  0.1798 -0.1526  0.9530
 1812TIP3   OH226850   4.395   0.163   3.796  0.0032 -0.6313  0.0003
 1812TIP3    H126851   4.346   0.193   3.872 -2.0752 -0.6137 -1.2686
 1812TIP3    H226852   4.394   0.068   3.803 -1.5129 -0.6977 -0.7363
 1813TIP3   OH226853   1.807   0.234   4.975 -0.3031 -0.3095  0.1983
 1813TIP3    H126854   1.874   0.180   5.017 -0.1693 -0.5798 -0.3461
 1813TIP3    H226855   1.856   0.282   4.907 -0.3095  0.9238  1.0399
 1814TIP3   OH226856   5.415   4.667  12.382 -0.5619  0.1496  0.1140
 1814TIP3    H126857   5.379   4.713  12.306 -1.6057 -0.3567  0.2902
 1814TIP3    H226858   5.413   4.575  12.357  0.8079  0.1130  0.0579
 1815TIP3   OH226859   4.913   5.958   6.542 -0.3940 -0.1127  0.6378
 1815TIP3    H126860   4.994   5.908   6.536 -0.6029 -0.3845 -0.0980
 1815TIP3    H226861   4.861   5.928   6.467  0.2748  2.6344 -1.0727
 1816TIP3   OH226862   0.674   0.491  16.783  0.1557  0.2756  0.0922
 1816TIP3    H126863   0.601   0.503  16.723 -0.8294  0.3966  1.2692
 1816TIP3    H226864   0.663   0.403  16.818  0.4420  0.3741  0.4377
 1817TIP3   OH226865   2.563   6.504   2.015  0.0845  0.5432  1.0282
 1817TIP3    H126866   2.619   6.444   1.965  0.3603  0.5458  1.3288
 1817TIP3    H226867   2.594   6.495   2.105 -2.2987 -1.6784  1.7430
 1818TIP3   OH226868   3.866   5.226  12.968  0.0970 -0.4283  0.8991
 1818TIP3    H126869   3.889   5.147  13.016  1.3721 -0.6450 -0.0183
 1818TIP3    H226870   3.915   5.220  12.886  0.4840  1.4465  0.9318
 1819TIP3   OH226871   4.050   6.525  11.839 -0.0502  0.1486 -0.0816
 1819TIP3    H126872   4.038   6.610  11.796  3.2367  1.5115  1.3297
 1819TIP3    H226873   4.125   6.539  11.897 -0.8824 -3.1098  1.9930
 1820TIP3   OH226874   1.205   0.154  16.245 -0.2607  0.0495 -0.1010
 1820TIP3    H126875   1.186   0.118  16.332 -0.0878  0.5046  0.1263
 1820TIP3    H226876   1.300   0.152  16.238 -0.2639  0.2072 -0.1954
 1821TIP3   OH226877   2.082   1.744   5.308  0.8129  0.2245 -0.2615
 1821TIP3    H126878   2.136   1.729   5.385  1.1256  0.7698 -0.3652
 1821TIP3    H226879   2.083   1.839   5.296  0.5660  0.1684 -0.7946
 1822TIP3   OH226880   5.464   1.188  12.212  0.2430 -0.1949 -0.4401
 1822TIP3    H126881   5.415   1.149  12.284  2.4585  0.1595  1.3698
 1822TIP3    H226882   5.447   1.282  12.220  0.3869 -0.1654 -0.4828
 1823TIP3   OH226883   2.097   5.655   0.830 -0.2841  0.0061  0.0635
 1823TIP3    H126884   2.050   5.678   0.910 -1.2543 -1.6935  0.0088
 1823TIP3    H226885   2.185   5.631   0.860 -0.3658  0.2391  0.4986
 1824TIP3   OH226886   5.030   6.619  14.384 -0.4390  0.1771  0.8589
 1824TIP3    H126887   4.962   6.644  14.322  1.0373  1.7821 -0.1828
 1824TIP3    H226888   5.026   6.686  14.452 -1.0950 -0.7805  1.8080
 1825TIP3   OH226889   1.842   3.262   2.755  0.4646  0.5662 -0.2628
 1825TIP3    H126890   1.798   3.235   2.674 -0.1618 -1.4732  0.6952
 1825TIP3    H226891   1.925   3.214   2.754 -0.0142 -0.3015  0.7946
 1826TIP3   OH226892   3.465   1.395   4.684  0.3699 -0.1546  0.4176
 1826TIP3    H126893   3.483   1.317   4.631  2.6184  0.8318 -0.3970
 1826TIP3    H226894   3.546   1.409   4.734 -0.7089  0.5513  2.0751
 1827TIP3   OH226895   5.523   2.960   5.730  0.6086  0.6409 -0.6633
 1827TIP3    H126896   5.585   3.033   5.720 -1.2153  2.4838  0.7638
 1827TIP3    H226897   5.544   2.922   5.815 -0.6175  1.7167  0.1431
 1828TIP3   OH226898   5.588   5.496   1.023  0.2808  0.3217  0.1843
 1828TIP3    H126899   5.677   5.530   1.016  0.9661 -1.5779 -1.5739
 1828TIP3    H226900   5.557   5.490   0.932 -1.9453  1.5797  0.7907
 1829TIP3   OH226901   2.494   2.839   4.243 -0.4971 -0.6142  0.0173
 1829TIP3    H126902   2.412   2.792   4.257  0.0583 -1.9314 -0.9093
 1829TIP3    H226903   2.562   2.772   4.252  0.5929  0.6413  1.8430
 1830TIP3   OH226904   6.604   6.668   4.967 -0.3510  0.3387 -0.1073
 1830TIP3    H126905   6.564   6.721   5.036 -0.4446  0.5344 -0.3095
 1830TIP3    H226906   6.667   6.613   5.012 -0.5031  0.3745  0.1524
 1831TIP3   OH226907   3.256   6.022  12.136  0.2352  0.4513  0.5041
 1831TIP3    H126908   3.288   6.106  12.103 -0.1275  0.2564 -0.3596
 1831TIP3    H226909   3.165   6.039  12.161 -0.1598  0.0877 -0.6185
 1832TIP3   OH226910   4.411   1.254   3.950  0.2443 -0.2647  0.0912
 1832TIP3    H126911   4.452   1.330   3.909 -0.1727  0.8128  1.5840
 1832TIP3    H226912   4.353   1.217   3.883  3.0953 -1.4792 -1.8834
 1833TIP3   OH226913   4.797   2.403  13.137  0.5508  0.2818 -0.1464
 1833TIP3    H126914   4.792   2.347  13.059  0.4919  0.0188  0.0429
 1833TIP3    H226915   4.833   2.486  13.105  0.7436  0.0991 -0.4113
 1834TIP3   OH226916   3.452   6.316   2.330 -0.0104  0.2440 -0.1548
 1834TIP3    H126917   3.360   6.340   2.324 -0.0640 -0.2810 -1.8776
 1834TIP3    H226918   3.474   6.329   2.423 -1.6026  1.0733  0.1436
 1835TIP3   OH226919   1.154   2.440   5.450 -0.0339  0.7338 -0.6252
 1835TIP3    H126920   1.104   2.410   5.374 -0.7059  0.2094  0.0068
 1835TIP3    H226921   1.196   2.360   5.484 -1.7440  0.4707  1.0054
 1836TIP3   OH226922   3.496   0.273   5.449 -0.1999  0.2324 -0.7078
 1836TIP3    H126923   3.538   0.231   5.524  0.4190 -0.0578 -1.1977
 1836TIP3    H226924   3.569   0.312   5.400 -0.6559  0.9544 -0.8358
 1837TIP3   OH226925   1.177   2.430  13.115  0.9170 -0.6202 -0.2947
 1837TIP3    H126926   1.092   2.471  13.100  1.4688  0.9529  0.6515
 1837TIP3    H226927   1.234   2.468  13.049  1.3675 -0.0580  0.4070
 1838TIP3   OH226928   3.844   5.952   0.264  0.0227  0.3147  0.0418
 1838TIP3    H126929   3.903   6.006   0.212  0.5890 -0.8299 -0.5387
 1838TIP3    H226930   3.821   6.007   0.339  0.8368  1.2268 -0.3579
 1839TIP3   OH226931   4.398   2.403  10.908 -0.3699 -0.3640  0.0742
 1839TIP3    H126932   4.474   2.368  10.955 -0.6455 -1.6240 -0.3781
 1839TIP3    H226933   4.330   2.337  10.920 -1.2438  0.5270  0.0615
 1840TIP3   OH226934   1.846   5.378   6.910 -0.3527 -0.4248 -0.7519
 1840TIP3    H126935   1.798   5.404   6.832  0.1097 -0.2766 -0.9952
 1840TIP3    H226936   1.927   5.340   6.876  0.9535  1.8140 -0.3475
 1841TIP3   OH226937   0.943   3.788   0.880 -0.0173  0.5060  0.4486
 1841TIP3    H126938   0.892   3.804   0.960 -2.4539 -0.4614 -0.8166
 1841TIP3    H226939   0.950   3.693   0.875 -1.4596  0.4389 -1.3491
 1842TIP3   OH226940   1.397   6.486  15.150  0.7609 -0.1297  0.2965
 1842TIP3    H126941   1.368   6.441  15.070  1.4103 -0.3843  0.1961
 1842TIP3    H226942   1.319   6.488  15.206  0.8672 -1.9453  0.5575
 1843TIP3   OH226943   2.275   2.697   2.661 -0.2604  0.2269  0.3727
 1843TIP3    H126944   2.250   2.634   2.730 -2.2045  2.2480  1.6471
 1843TIP3    H226945   2.306   2.774   2.709  2.8919  0.0642 -1.1603
 1844TIP3   OH226946   0.088   3.820  12.287  0.1428  0.1201  0.0576
 1844TIP3    H126947   0.082   3.877  12.363  1.0339 -0.7317  0.7984
 1844TIP3    H226948   0.146   3.867  12.227 -2.5213  1.9754 -1.2536
 1845TIP3   OH226949   5.084   6.131  14.229  0.2992  0.0679  0.3558
 1845TIP3    H126950   5.043   6.204  14.276 -0.6710 -0.7403  0.7877
 1845TIP3    H226951   5.105   6.167  14.143  0.3112  0.9990  0.7282
 1846TIP3   OH226952   6.614   2.727  13.033 -0.3394  0.1449 -0.5441
 1846TIP3    H126953   6.644   2.796  12.974  0.2384 -0.0694 -0.4996
 1846TIP3    H226954   6.618   2.647  12.982  1.7032 -0.3037  0.2426
 1847TIP3   OH226955   0.896   5.308  12.668  0.4177  0.0816 -0.0484
 1847TIP3    H126956   0.906   5.217  12.641  0.7670  0.1220 -0.0504
 1847TIP3    H226957   0.801   5.322  12.669  0.3935  0.0734 -1.2271
 1848TIP3   OH226958   0.338   6.075  16.696  0.5865 -0.0327 -0.1112
 1848TIP3    H126959   0.423   6.049  16.731  0.6719  0.8401  0.3527
 1848TIP3    H226960   0.310   6.000  16.643  1.1516 -0.7580  0.5884
 1849TIP3   OH226961   6.133   2.091   4.496  0.2223  0.0198 -0.6279
 1849TIP3    H126962   6.101   2.003   4.479  0.9704 -0.4542  0.2808
 1849TIP3    H226963   6.095   2.115   4.581  1.3297 -0.1048 -0.0751
 1850TIP3   OH226964   4.191   0.600  11.407 -0.3791  0.1616 -0.0931
 1850TIP3    H126965   4.166   0.681  11.451  0.6845 -0.3971  1.6362
 1850TIP3    H226966   4.262   0.625  11.349  1.3786  0.2187  1.9401
 1851TIP3   OH226967   4.620   3.037   1.557  0.1043 -0.2654  0.7419
 1851TIP3    H126968   4.657   3.107   1.611 -0.4240  1.7038 -1.2863
 1851TIP3    H226969   4.670   3.041   1.476 -1.6985 -0.4450 -0.4215
 1852TIP3   OH226970   5.525   5.204  10.378  0.0357 -0.2224 -0.0146
 1852TIP3    H126971   5.481   5.120  10.390 -0.4970 -0.2068 -1.6482
 1852TIP3    H226972   5.461   5.259  10.334  1.1519  0.3110 -1.0319
 1853TIP3   OH226973   2.987   5.919  12.908 -0.3227  0.9704  0.0859
 1853TIP3    H126974   3.042   5.873  12.972 -1.5019 -0.9729 -0.2024
 1853TIP3    H226975   2.933   5.977  12.962 -0.4985  0.2069  0.7624
 1854TIP3   OH226976   0.589   5.059  13.539  0.3748 -0.2592  0.0378
 1854TIP3    H126977   0.502   5.031  13.511  0.5900 -1.2235  0.2882
 1854TIP3    H226978   0.594   5.151  13.512 -0.2471 -0.5304 -1.0841
 1855TIP3   OH226979   2.936   3.636   4.251 -0.2576 -0.4643  0.1960
 1855TIP3    H126980   2.884   3.692   4.194 -0.5508 -1.9875 -1.1056
 1855TIP3    H226981   2.875   3.570   4.283  0.3546 -0.8456  0.6116
 1856TIP3   OH226982   0.211   5.279   4.554  0.3045 -0.2369  0.5636
 1856TIP3    H126983   0.205   5.326   4.637 -3.6067 -1.2751  1.0887
 1856TIP3    H226984   0.230   5.189   4.578  2.7335  0.0368 -0.0591
 1857TIP3   OH226985   0.660   4.069   3.023 -0.2020  0.5753 -0.3136
 1857TIP3    H126986   0.598   4.004   3.055  0.3097  0.1889 -0.0917
 1857TIP3    H226987   0.606   4.134   2.978 -0.9397  1.1731  1.3573
 1858TIP3   OH226988   5.128   2.880  12.490 -0.2376 -0.3697  0.3571
 1858TIP3    H126989   5.161   2.792  12.475  2.2021  0.4597  0.3915
 1858TIP3    H226990   5.167   2.932  12.419  0.3295  1.0904  1.6776
 1859TIP3   OH226991   4.210   3.672  15.658 -0.3056 -0.1182 -0.2249
 1859TIP3    H126992   4.289   3.621  15.674 -0.0731  0.2584 -0.1483
 1859TIP3    H226993   4.138   3.609  15.666  0.0476 -0.6756 -1.2716
 1860TIP3   OH226994   4.648   0.634  12.721  0.1395  0.1469 -0.3614
 1860TIP3    H126995   4.612   0.550  12.693  1.2457  0.4416 -2.9151
 1860TIP3    H226996   4.583   0.699  12.692  0.7132  0.3684 -1.1825
 1861TIP3   OH226997   2.074   4.052   4.191 -0.4128  0.5468  0.6026
 1861TIP3    H126998   2.052   4.087   4.277 -0.2278 -1.0752  1.3250
 1861TIP3    H226999   2.168   4.037   4.194 -0.7028 -1.4566  0.8795
 1862TIP3   OH227000   3.176   4.709   4.442 -0.0727 -0.1798 -0.3178
 1862TIP3    H127001   3.160   4.728   4.535  0.2296  0.0171 -0.3023
 1862TIP3    H227002   3.102   4.656   4.415 -0.7902  0.7902 -0.2834
 1863TIP3   OH227003   3.158   6.025  14.475 -0.2011 -0.0996 -0.8512
 1863TIP3    H127004   3.066   6.000  14.480 -0.4727  1.0691  1.6855
 1863TIP3    H227005   3.200   5.972  14.544 -0.0317  3.0323  1.6836
 1864TIP3   OH227006   6.183   3.664  12.621  0.2007 -0.2659 -0.5362
 1864TIP3    H127007   6.202   3.593  12.560 -1.8255 -1.6901  0.3792
 1864TIP3    H227008   6.162   3.620  12.704  2.3619  1.5776  1.1269
 1865TIP3   OH227009   1.419   3.278   4.294  0.5771  0.3276 -0.4312
 1865TIP3    H127010   1.512   3.263   4.277  0.1947 -1.2350 -1.4078
 1865TIP3    H227011   1.376   3.199   4.261 -0.8980 -0.0716  2.1601
 1866TIP3   OH227012   5.920   5.615  13.397  0.2782 -0.0714 -0.6389
 1866TIP3    H127013   5.907   5.656  13.311 -1.7546 -1.3307 -0.9982
 1866TIP3    H227014   5.964   5.532  13.377  1.9311  0.6418 -0.1742
 1867TIP3   OH227015   4.052   3.326   2.171 -0.2673  0.5148 -0.2820
 1867TIP3    H127016   3.991   3.376   2.117  0.2200 -0.5257 -1.8687
 1867TIP3    H227017   3.996   3.273   2.229 -0.9459 -0.8705 -2.1174
 1868TIP3   OH227018   4.721   3.908   4.918  0.3305  0.4328  0.0852
 1868TIP3    H127019   4.696   3.998   4.939  2.3080  0.8210  0.9730
 1868TIP3    H227020   4.724   3.863   5.002  2.3919  0.3833  0.0284
 1869TIP3   OH227021   4.021   5.992   2.654  0.0325  0.4783  0.9200
 1869TIP3    H127022   4.002   5.905   2.620  1.0723 -0.1181  1.7925
 1869TIP3    H227023   4.091   6.025   2.598  1.5726 -0.4047  2.2252
 1870TIP3   OH227024   0.633   0.179  15.266  0.0143  0.0573  0.5472
 1870TIP3    H127025   0.595   0.094  15.244  1.5167 -0.5346  0.0962
 1870TIP3    H227026   0.585   0.207  15.343 -1.4336 -0.5531 -0.0850
 1871TIP3   OH227027   2.432   0.197  12.561 -0.4209 -0.2613 -0.1474
 1871TIP3    H127028   2.402   0.285  12.585 -0.1890 -0.2362  0.0591
 1871TIP3    H227029   2.352   0.149  12.540 -0.5772 -0.0976  0.0726
 1872TIP3   OH227030   5.499   5.687   4.768  0.3600 -0.1708 -0.6557
 1872TIP3    H127031   5.524   5.653   4.682 -0.4725  0.2169 -1.0638
 1872TIP3    H227032   5.421   5.636   4.791 -0.8071  1.2999 -1.1997
 1873TIP3   OH227033   2.603   4.194  13.766  0.0595 -0.4077 -0.3072
 1873TIP3    H127034   2.695   4.221  13.763 -0.0571  0.4889  2.1104
 1873TIP3    H227035   2.606   4.101  13.789  0.4085  0.0654  1.7663
 1874TIP3   OH227036   4.733   0.870   4.231  0.0258  0.0586 -0.3119
 1874TIP3    H127037   4.646   0.851   4.197  0.6397 -1.4626 -1.1171
 1874TIP3    H227038   4.791   0.867   4.155  0.6387  2.3611 -0.0080
 1875TIP3   OH227039   3.495   4.231   2.600  0.1034  0.5916  0.1741
 1875TIP3    H127040   3.572   4.246   2.655  1.5366  1.0015 -1.8274
 1875TIP3    H227041   3.512   4.147   2.559 -0.8406  0.3941  0.1813
 1876TIP3   OH227042   2.980   1.089  14.386  0.2069 -0.5280 -0.0176
 1876TIP3    H127043   2.908   1.151  14.387  0.9290  0.3396  0.6070
 1876TIP3    H227044   3.029   1.110  14.306  0.1264 -0.6840 -0.1080
 1877TIP3   OH227045   0.349   0.832   4.872  0.0106 -0.4275  0.1532
 1877TIP3    H127046   0.398   0.757   4.838 -1.3052 -0.8312 -0.9525
 1877TIP3    H227047   0.416   0.890   4.908  1.0930 -1.9644  0.7219
 1878TIP3   OH227048   1.567   6.590  15.829 -0.2418 -0.7123 -0.2374
 1878TIP3    H127049   1.600   6.670  15.788  1.7863 -1.5666 -0.4156
 1878TIP3    H227050   1.505   6.620  15.895  0.4675  1.0134 -0.3092
 1879TIP3   OH227051   2.392   0.924  14.915  0.5031  0.0599  0.1021
 1879TIP3    H127052   2.309   0.971  14.902  1.2452  1.9037  1.5944
 1879TIP3    H227053   2.369   0.832  14.904 -1.3663  0.6355 -1.3218
 1880TIP3   OH227054   6.390   4.299  10.562 -0.0593  0.0827 -0.1184
 1880TIP3    H127055   6.367   4.228  10.622  1.6523 -0.9587 -0.6379
 1880TIP3    H227056   6.424   4.369  10.618 -1.4466  0.4051  0.3649
 1881TIP3   OH227057   4.826   4.561  15.295  0.2451 -0.3373 -0.1214
 1881TIP3    H127058   4.770   4.618  15.347  0.8275 -0.2772  0.4642
 1881TIP3    H227059   4.843   4.610  15.215  2.8579  1.5459  1.4107
 1882TIP3   OH227060   6.376   2.537  10.663  0.3247 -0.2510  0.5711
 1882TIP3    H127061   6.422   2.619  10.683  2.4013 -0.8477 -1.2466
 1882TIP3    H227062   6.340   2.551  10.575  0.1549 -1.0385  0.5088
 1883TIP3   OH227063   5.745   5.172  14.384  0.0822 -0.1623  0.4635
 1883TIP3    H127064   5.701   5.170  14.469  1.3888  2.2775  1.2831
 1883TIP3    H227065   5.835   5.147  14.403  0.7161  1.6829  0.0899
 1884TIP3   OH227066   1.014   5.996  15.243 -0.2468  0.8356  0.0769
 1884TIP3    H127067   1.051   5.941  15.175  0.0630  0.3896  0.5943
 1884TIP3    H227068   1.084   6.006  15.307 -0.8194  0.4516  0.7913
 1885TIP3   OH227069   2.667   2.764  15.393 -0.2037 -0.0979  0.4463
 1885TIP3    H127070   2.721   2.691  15.365 -0.6543  0.4093 -2.0224
 1885TIP3    H227071   2.578   2.728  15.397 -0.1604 -0.1336  1.1407
 1886TIP3   OH227072   0.133   5.968   3.915 -0.4365  0.8426 -0.2337
 1886TIP3    H127073   0.049   6.013   3.927 -1.2029 -0.9189  1.4173
 1886TIP3    H227074   0.187   6.000   3.988 -0.6986 -0.2099  0.4402
 1887TIP3   OH227075   2.586   3.416  14.579 -0.1597 -0.2907  0.3537
 1887TIP3    H127076   2.585   3.453  14.491  1.9474 -2.5059 -0.7141
 1887TIP3    H227077   2.658   3.460  14.624 -0.4298 -0.0445  0.5468
 1888TIP3   OH227078   5.930   5.399  10.609  0.3236  0.2536 -0.1371
 1888TIP3    H127079   5.886   5.391  10.524 -0.6363 -0.0644  0.3728
 1888TIP3    H227080   5.906   5.486  10.641  1.3079  0.6811 -0.5167
 1889TIP3   OH227081   6.232   0.482  16.091  0.5715 -0.1879  0.4517
 1889TIP3    H127082   6.248   0.538  16.016  0.7895 -0.0964  0.5659
 1889TIP3    H227083   6.317   0.440  16.109  0.3533 -0.7367  0.2169
 1890TIP3   OH227084   5.761   3.093  11.084  0.2060 -0.0505 -0.6984
 1890TIP3    H127085   5.717   3.076  11.002 -0.2327 -0.8748 -0.3025
 1890TIP3    H227086   5.694   3.081  11.151  0.5790  0.5085 -0.2037
 1891TIP3   OH227087   4.103   0.655   3.626  0.0486  0.2195 -0.7902
 1891TIP3    H127088   4.052   0.667   3.707  1.1818  0.7868 -0.1341
 1891TIP3    H227089   4.148   0.572   3.638 -0.1225  0.0940 -1.0257
 1892TIP3   OH227090   3.744   5.897   0.646 -0.0749 -0.6511  0.2647
 1892TIP3    H127091   3.779   5.973   0.601 -1.6962  1.2095  1.9411
 1892TIP3    H227092   3.745   5.828   0.580  0.9209  0.9584 -1.5077
 1893TIP3   OH227093   2.176   5.689  13.065  0.9774  0.5268  0.1268
 1893TIP3    H127094   2.106   5.675  13.002  1.3946 -1.7270  0.1045
 1893TIP3    H227095   2.256   5.676  13.015  1.5460  3.7122 -0.0048
 1894TIP3   OH227096   6.543   6.492  13.669  0.6778 -0.0421  0.0186
 1894TIP3    H127097   6.470   6.436  13.642 -0.2007  1.6968 -1.3839
 1894TIP3    H227098   6.502   6.574  13.694  1.9919  0.2129  1.4753
 1895TIP3   OH227099   5.387   4.853  13.872 -0.2355 -0.5059  0.8250
 1895TIP3    H127100   5.335   4.834  13.794  2.4486 -0.5314 -1.1010
 1895TIP3    H227101   5.353   4.794  13.939 -2.2543 -0.9078 -0.4807
 1896TIP3   OH227102   0.132   1.036  15.853 -0.1724  0.5622 -0.2546
 1896TIP3    H127103   0.141   0.947  15.887  0.2859  0.8002  0.2691
 1896TIP3    H227104   0.161   1.030  15.762 -0.6125  0.0811 -0.3703
 1897TIP3   OH227105   4.952   4.024  14.883 -0.2899 -0.1458  0.1610
 1897TIP3    H127106   4.917   4.055  14.800  1.3451  1.3010 -0.0522
 1897TIP3    H227107   4.934   4.094  14.945  0.2714 -0.3188  0.5325
 1898TIP3   OH227108   2.408   5.184   6.516 -0.3819 -0.1601 -0.0852
 1898TIP3    H127109   2.457   5.265   6.526 -0.2026 -0.2641 -0.1080
 1898TIP3    H227110   2.371   5.167   6.603  1.5376 -1.2961  0.5640
 1899TIP3   OH227111   6.546   5.343   4.002 -0.1065 -0.7973 -0.5421
 1899TIP3    H127112   6.578   5.262   4.043  2.6628  0.8755  0.9528
 1899TIP3    H227113   6.621   5.402   4.006 -1.0612  0.9377 -4.2989
 1900TIP3   OH227114   0.418   2.720  13.233 -0.1141 -0.3652 -0.7537
 1900TIP3    H127115   0.338   2.709  13.181 -0.1881 -2.2490 -0.2959
 1900TIP3    H227116   0.408   2.658  13.305  1.8068 -0.7004 -0.7385
 1901TIP3   OH227117   4.909   1.393  14.081  0.1701 -0.1314  0.1040
 1901TIP3    H127118   4.890   1.474  14.035  0.1475 -1.0023 -1.5005
 1901TIP3    H227119   4.907   1.417  14.174 -0.8358  1.4790 -0.2857
 1902TIP3   OH227120   2.049   3.309  12.182  0.2380  0.1052 -0.4244
 1902TIP3    H127121   1.994   3.235  12.207 -1.7758  1.4970 -0.4940
 1902TIP3    H227122   2.098   3.279  12.106  0.2529 -1.4788  0.1816
 1903TIP3   OH227123   2.574   5.637   1.832  0.2419  0.1206  0.0286
 1903TIP3    H127124   2.493   5.586   1.828 -0.2455  0.6307  2.1302
 1903TIP3    H227125   2.642   5.576   1.804 -0.7074 -0.6620 -0.6745
 1904TIP3   OH227126   6.674   4.482   1.962 -0.2541  0.3368  0.6975
 1904TIP3    H127127   6.599   4.536   1.984 -3.2899 -3.5262  1.0050
 1904TIP3    H227128   6.655   4.447   1.875 -0.2673 -2.6737  1.7690
 1905TIP3   OH227129   3.211   2.749   3.261 -0.3224 -0.6627 -0.4375
 1905TIP3    H127130   3.177   2.793   3.183  0.6603 -0.0328 -0.5363
 1905TIP3    H227131   3.305   2.743   3.245  0.0387  0.3242  1.0857
 1906TIP3   OH227132   5.443   1.987  13.775 -0.3816 -0.1783 -0.6439
 1906TIP3    H127133   5.385   2.023  13.708 -0.2204  1.8254  0.2028
 1906TIP3    H227134   5.527   2.031  13.761 -0.3458  0.2879  0.8089
 1907TIP3   OH227135   4.544   3.834   4.732 -0.2189 -0.1925 -0.0388
 1907TIP3    H127136   4.624   3.856   4.780  1.6817  0.2347 -3.1520
 1907TIP3    H227137   4.508   3.918   4.705 -0.1616 -0.4687 -1.0087
 1908TIP3   OH227138   4.802   6.482   0.260  0.2854  0.2411  0.7498
 1908TIP3    H127139   4.854   6.562   0.256 -0.4303  0.7408  1.2301
 1908TIP3    H227140   4.743   6.488   0.185 -0.1812  0.4554  1.1331
 1909TIP3   OH227141   3.616   2.804  13.092 -0.2014  0.3113 -0.5181
 1909TIP3    H127142   3.694   2.815  13.038 -0.8495  1.6972 -1.2061
 1909TIP3    H227143   3.574   2.724  13.058  1.0541 -0.6383  0.0776
 1910TIP3   OH227144   2.593   0.006  12.689  0.1266  1.0795 -0.5958
 1910TIP3    H127145   2.545   0.079  12.650 -1.2370 -0.0707 -1.1984
 1910TIP3    H227146   2.538  -0.070  12.670  0.8490  0.0805  1.1630
 1911TIP3   OH227147   3.746   3.341  15.352 -0.2146  0.1446  0.4535
 1911TIP3    H127148   3.748   3.278  15.424 -0.6641 -1.5057 -0.8933
 1911TIP3    H227149   3.697   3.416  15.386 -1.1642 -0.9469  1.5823
 1912TIP3   OH227150   2.444   6.739   5.866 -0.2497  0.8298 -0.1212
 1912TIP3    H127151   2.391   6.683   5.810 -1.2470  1.3055  0.3341
 1912TIP3    H227152   2.452   6.822   5.818  1.6404  0.1991 -1.0252
 1913TIP3   OH227153   3.065   1.010  14.809 -0.0103  0.5127 -0.5383
 1913TIP3    H127154   3.016   1.039  14.886  0.6910  0.3691 -0.0336
 1913TIP3    H227155   3.150   0.983  14.843  0.0873 -0.1451 -1.2818
 1914TIP3   OH227156   1.100   2.046   4.845 -0.2225  0.2084  0.0295
 1914TIP3    H127157   1.165   1.981   4.820 -0.2214  1.1096 -2.5390
 1914TIP3    H227158   1.021   2.021   4.797 -0.6552  1.2442  0.1808
 1915TIP3   OH227159   0.096   0.723  15.882 -0.7976  0.1056  0.4744
 1915TIP3    H127160   0.061   0.718  15.971  0.5392  0.2461  1.0336
 1915TIP3    H227161   0.052   0.653  15.835 -0.8848 -0.5468  1.4855
 1916TIP3   OH227162   0.689   2.442  12.676  0.0006  0.6424  0.0528
 1916TIP3    H127163   0.643   2.420  12.757 -1.2012 -1.3798 -1.0958
 1916TIP3    H227164   0.632   2.507  12.634 -1.7738 -1.5177 -1.1447
 1917TIP3   OH227165   4.843   4.596  14.733 -0.1608  0.1188 -0.0773
 1917TIP3    H127166   4.874   4.563  14.649 -0.9529 -1.9470  0.3776
 1917TIP3    H227167   4.892   4.545  14.798 -0.0105  1.2435  0.7177
 1918TIP3   OH227168   0.064   1.096  16.557 -0.2219 -1.0182  0.1030
 1918TIP3    H127169  -0.022   1.054  16.557 -0.8988  0.3202  0.7437
 1918TIP3    H227170   0.054   1.171  16.616  2.0668 -2.1588  2.0971
 1919TIP3   OH227171   0.398   5.311   0.315 -0.0894 -0.3574  0.0294
 1919TIP3    H127172   0.324   5.250   0.310 -1.3521  0.8438  2.4670
 1919TIP3    H227173   0.386   5.370   0.240 -1.9187  0.0756  0.6184
 1920TIP3   OH227174   6.393   3.750   2.355  0.1614  0.0682 -0.1408
 1920TIP3    H127175   6.433   3.663   2.358  1.5697  0.7082  0.6342
 1920TIP3    H227176   6.434   3.798   2.427 -1.2103  1.1295 -0.0294
 1921TIP3   OH227177   1.994   0.854  12.436 -0.0476  0.1607 -0.1911
 1921TIP3    H127178   2.011   0.863  12.530  1.4537 -2.6766 -0.0640
 1921TIP3    H227179   2.072   0.888  12.394  0.7930 -1.6518 -0.1891
 1922TIP3   OH227180   3.547   1.481  11.814  0.1838 -0.3195 -0.2968
 1922TIP3    H127181   3.615   1.507  11.752 -0.3970 -2.5730 -2.0011
 1922TIP3    H227182   3.470   1.531  11.788  0.4393  0.1966 -0.0913
 1923TIP3   OH227183   5.666   5.332   1.635 -0.3373 -0.1554 -0.3305
 1923TIP3    H127184   5.653   5.257   1.693  0.2767  0.2641  0.3611
 1923TIP3    H227185   5.624   5.306   1.553 -0.8017 -0.9445  0.1453
 1924TIP3   OH227186   4.464   3.712   4.327 -0.6167  0.0503  0.0219
 1924TIP3    H127187   4.514   3.673   4.399  0.9102 -1.2389 -1.6397
 1924TIP3    H227188   4.459   3.805   4.348  1.7293  0.0746  0.7265
 1925TIP3   OH227189   2.691   4.952   2.439 -0.1995  0.5747 -0.7159
 1925TIP3    H127190   2.672   4.885   2.505 -2.6834 -0.7376 -2.6055
 1925TIP3    H227191   2.701   5.033   2.490  0.9588 -0.8472  1.4689
 1926TIP3   OH227192   0.977   5.880   2.308 -0.2748  0.1434 -0.2842
 1926TIP3    H127193   0.892   5.837   2.315 -0.3267  0.2658 -0.1297
 1926TIP3    H227194   1.034   5.831   2.368  0.1157 -0.7514 -1.3449
 1927TIP3   OH227195   3.484   3.727  13.123  0.2116  0.3714 -0.5658
 1927TIP3    H127196   3.430   3.693  13.051  0.3379  0.7909 -0.8616
 1927TIP3    H227197   3.485   3.822  13.109  0.4382  0.4298 -0.1491
 1928TIP3   OH227198   3.914   2.392   1.032 -0.2547 -0.0378 -0.2175
 1928TIP3    H127199   3.875   2.462   1.084  0.8590  0.0639  0.5225
 1928TIP3    H227200   3.953   2.436   0.957  1.7564  0.4036  0.9924
 1929TIP3   OH227201   6.421   2.478  11.413  0.1033 -0.2150  0.0702
 1929TIP3    H127202   6.464   2.443  11.335  0.1403 -1.2201  0.5255
 1929TIP3    H227203   6.341   2.426  11.421 -0.4510  0.6231  0.0873
 1930TIP3   OH227204   3.774   4.660   5.418 -0.2806  0.1956  0.2472
 1930TIP3    H127205   3.727   4.732   5.460 -1.3959  0.3928 -1.2392
 1930TIP3    H227206   3.735   4.581   5.455  0.2238  0.3446  1.1192
 1931TIP3   OH227207   1.960   1.417   3.509  0.7312 -0.3054 -0.0077
 1931TIP3    H127208   2.045   1.380   3.532  1.3333  2.0207  1.8622
 1931TIP3    H227209   1.900   1.384   3.576  0.5083 -0.6451 -0.3718
 1932TIP3   OH227210   3.831   1.779   2.677  0.3273  0.1821 -0.1574
 1932TIP3    H127211   3.901   1.830   2.716  1.5040 -0.6180 -1.1459
 1932TIP3    H227212   3.809   1.713   2.743  1.4033 -0.3539 -0.3090
 1933TIP3   OH227213   1.768   6.055   0.044 -0.6919  0.2875 -0.3139
 1933TIP3    H127214   1.847   6.015   0.008  0.3803  2.4123 -0.4103
 1933TIP3    H227215   1.698   6.025  -0.015  0.0561 -1.3152 -0.4394
 1934TIP3   OH227216   3.788   6.155  16.203 -0.4090  0.4133 -0.4506
 1934TIP3    H127217   3.801   6.060  16.194  0.0053  0.4956 -0.7092
 1934TIP3    H227218   3.758   6.183  16.116 -0.0074  0.6067 -0.5269
 1935TIP3   OH227219   0.720   1.607   0.614 -0.4541 -0.3041  0.3382
 1935TIP3    H127220   0.697   1.580   0.703 -0.1988 -1.1874  0.1431
 1935TIP3    H227221   0.718   1.526   0.563  2.6955 -0.4229  0.2004
 1936TIP3   OH227222   5.232   0.612   0.818 -0.1394  0.1491 -0.3185
 1936TIP3    H127223   5.207   0.547   0.752 -0.8263 -1.1877  1.1888
 1936TIP3    H227224   5.328   0.611   0.817 -0.0787  1.4524 -2.4656
 1937TIP3   OH227225   5.868   4.795   5.773  0.2442 -0.2291 -0.3786
 1937TIP3    H127226   5.840   4.800   5.864 -0.5138 -0.5271 -0.5871
 1937TIP3    H227227   5.856   4.703   5.748 -0.7817  0.0958 -1.1475
 1938TIP3   OH227228   4.963   5.629   1.450  0.0972  0.9491 -0.4795
 1938TIP3    H127229   5.002   5.565   1.510 -1.3292  1.3377  0.9587
 1938TIP3    H227230   4.947   5.579   1.370 -1.1357 -0.6111  0.6542
 1939TIP3   OH227231   6.265   0.920   0.380  0.3194 -0.1788  0.1460
 1939TIP3    H127232   6.310   0.840   0.407 -2.1255 -1.9449 -0.7554
 1939TIP3    H227233   6.262   0.973   0.460  1.4797 -1.2020  0.9073
 1940TIP3   OH227234   1.860   1.088   4.386 -0.5711 -0.3235  0.0444
 1940TIP3    H127235   1.905   1.127   4.461  1.6038 -0.6521 -1.0074
 1940TIP3    H227236   1.887   0.996   4.387  0.5747 -0.0600 -1.8293
 1941TIP3   OH227237   1.099   3.358   0.435 -0.8460  0.1867 -0.6222
 1941TIP3    H127238   1.054   3.374   0.518 -1.8769  2.5109 -1.5594
 1941TIP3    H227239   1.044   3.295   0.389  0.3885 -2.1474  0.8696
 1942TIP3   OH227240   2.081   1.796   3.798  0.0366  0.2828 -0.5651
 1942TIP3    H127241   2.025   1.805   3.721  1.6425  3.0947 -1.5616
 1942TIP3    H227242   2.031   1.836   3.869 -0.2963  0.3434 -0.8331
 1943TIP3   OH227243   6.658   3.486  12.971  0.1274  0.5280  0.5999
 1943TIP3    H127244   6.606   3.516  12.896 -2.4535 -0.9526  1.6582
 1943TIP3    H227245   6.721   3.425  12.933 -0.4633  0.5528 -0.4634
 1944TIP3   OH227246   3.154   1.005  13.400 -0.1369 -0.0037  0.0585
 1944TIP3    H127247   3.160   1.033  13.492 -0.4293 -1.6122  0.6012
 1944TIP3    H227248   3.226   0.942  13.390  1.2969  1.7804 -1.4817
 1945TIP3   OH227249   4.751   6.699  14.360  0.7786  0.0579  0.0272
 1945TIP3    H127250   4.757   6.706  14.455  0.8215  1.4638 -0.0479
 1945TIP3    H227251   4.767   6.788  14.329 -0.3094 -0.1554 -1.2400
 1946TIP3   OH227252   5.182   6.625  12.605  0.3205 -0.5456  0.9694
 1946TIP3    H127253   5.100   6.584  12.635  0.6850 -0.5443  2.0355
 1946TIP3    H227254   5.248   6.556  12.615  0.9004  0.1916  2.5747
 1947TIP3   OH227255   2.991   4.610  10.779 -0.2242 -0.7308 -0.2852
 1947TIP3    H127256   2.964   4.569  10.861 -1.4770 -0.6179 -0.6247
 1947TIP3    H227257   3.044   4.543  10.735  2.6038  0.0465  1.6635
 1948TIP3   OH227258   5.102   5.602  10.914 -0.1239  0.0023  0.1183
 1948TIP3    H127259   5.134   5.557  10.836  0.4199  0.5937 -0.0061
 1948TIP3    H227260   5.062   5.533  10.967  1.0715 -0.6987  0.1330
 1949TIP3   OH227261   0.160   2.175   3.338 -0.4579 -0.0287  0.5912
 1949TIP3    H127262   0.238   2.225   3.315  0.6082 -1.3914  1.1599
 1949TIP3    H227263   0.127   2.219   3.416 -1.0668  1.3691 -0.4091
 1950TIP3   OH227264   0.384   6.573   2.386 -0.1306  0.9930 -0.2574
 1950TIP3    H127265   0.453   6.527   2.434  0.2140  1.7847  0.0157
 1950TIP3    H227266   0.387   6.535   2.298  0.1359  0.4886 -0.0353
 1951TIP3   OH227267   5.216   0.919  12.057 -0.0229 -0.6080  0.0528
 1951TIP3    H127268   5.253   0.977  11.991  0.7251 -0.0582  0.9307
 1951TIP3    H227269   5.160   0.859  12.008 -1.5501  1.4084 -0.7895
 1952TIP3   OH227270   5.181   6.516   5.005 -0.2668  0.0896 -0.0412
 1952TIP3    H127271   5.127   6.592   5.024 -0.5948 -0.8163  3.0957
 1952TIP3    H227272   5.231   6.501   5.085  1.7975 -1.4151 -1.5098
 1953TIP3   OH227273   3.082   3.281   5.654  0.4876  0.2583 -0.6750
 1953TIP3    H127274   3.034   3.253   5.732 -0.3565 -0.1069 -1.3130
 1953TIP3    H227275   3.135   3.355   5.684  0.3839 -0.0498  0.3036
 1954TIP3   OH227276   1.392   5.478  11.559  0.0435  0.5379  0.7601
 1954TIP3    H127277   1.311   5.430  11.577  0.2659 -0.3956 -0.5314
 1954TIP3    H227278   1.446   5.464  11.636 -0.9466  1.0430  1.5717
 1955TIP3   OH227279   3.540   0.942  17.063  0.7119 -0.1559 -0.2038
 1955TIP3    H127280   3.494   0.872  17.109  1.4024 -0.3393  0.2243
 1955TIP3    H227281   3.528   1.019  17.119 -0.0860  0.0813 -0.6983
 1956TIP3   OH227282   3.088   5.188   5.546  0.0742  0.1541 -0.0321
 1956TIP3    H127283   3.038   5.139   5.611 -3.1264  1.2340 -1.4772
 1956TIP3    H227284   3.054   5.158   5.462 -0.4103  3.1085 -1.0091
 1957TIP3   OH227285   5.395   3.891  15.253  0.0759  0.2641  0.0995
 1957TIP3    H127286   5.426   3.912  15.341  0.6952 -2.0842  0.5115
 1957TIP3    H227287   5.468   3.914  15.196  0.7806 -0.8096  0.5413
 1958TIP3   OH227288   5.714   5.762   3.432 -0.7930 -0.1701 -0.0759
 1958TIP3    H127289   5.749   5.799   3.351 -0.7547 -0.6501 -0.2809
 1958TIP3    H227290   5.622   5.745   3.413 -0.7350 -0.4759 -0.0885
 1959TIP3   OH227291   2.306   5.258   1.043  0.3255 -0.1419 -0.7260
 1959TIP3    H127292   2.282   5.342   1.004  0.5250  0.0036 -0.5387
 1959TIP3    H227293   2.311   5.276   1.137 -0.7143 -0.6220 -0.5634
 1960TIP3   OH227294   5.135   5.928  12.028 -0.2102  0.6506  0.1963
 1960TIP3    H127295   5.227   5.950  12.013 -0.0946  1.0110  1.3078
 1960TIP3    H227296   5.093   6.013  12.041 -1.1027  0.6438 -2.1960
 1961TIP3   OH227297   0.270   6.241  13.079  0.6174  0.3391  0.2144
 1961TIP3    H127298   0.268   6.329  13.041  1.7114  0.8872  1.3534
 1961TIP3    H227299   0.311   6.253  13.164  2.7157 -1.5893 -0.4458
 1962TIP3   OH227300   3.143   5.953   3.914 -0.3008 -0.9708  0.3781
 1962TIP3    H127301   3.163   5.947   3.820 -0.9576  0.4997  0.1098
 1962TIP3    H227302   3.058   5.911   3.923  0.4643 -2.5431  0.6204
 1963TIP3   OH227303   2.193   0.545   4.932  0.2209 -0.1236 -0.1885
 1963TIP3    H127304   2.207   0.556   5.026 -0.3555 -0.8444 -0.0048
 1963TIP3    H227305   2.272   0.578   4.892  0.8638 -0.6527  0.6072
 1964TIP3   OH227306   6.627   6.160   1.594 -0.0480  0.1104  0.2022
 1964TIP3    H127307   6.575   6.081   1.607  0.3857 -0.3730 -0.8553
 1964TIP3    H227308   6.563   6.229   1.576 -0.3694 -0.3275 -0.3808
 1965TIP3   OH227309   1.471   4.615   4.122  0.0849 -0.0221 -0.4599
 1965TIP3    H127310   1.474   4.520   4.110  4.6279 -0.1580  0.0546
 1965TIP3    H227311   1.482   4.650   4.034  0.8914 -0.0942 -0.3979
 1966TIP3   OH227312   0.855   3.752   2.225 -0.0688 -0.2735  0.7188
 1966TIP3    H127313   0.775   3.801   2.246 -0.2393 -0.6522  0.9523
 1966TIP3    H227314   0.824   3.674   2.181  0.2639  0.2725 -0.5057
 1967TIP3   OH227315   2.542   0.401   1.732 -0.3707 -0.0457  0.1889
 1967TIP3    H127316   2.489   0.382   1.654 -0.2494 -0.9930  0.3196
 1967TIP3    H227317   2.489   0.370   1.805 -0.2204  0.2764  0.4360
 1968TIP3   OH227318   5.363   4.781   0.949 -0.4970  0.0004 -1.1025
 1968TIP3    H127319   5.410   4.730   0.882  0.5441 -0.0175 -0.3786
 1968TIP3    H227320   5.407   4.866   0.948  0.3311 -0.3881  0.3888
 1969TIP3   OH227321   0.851   2.000   3.296 -0.0087 -0.4570 -0.1406
 1969TIP3    H127322   0.855   1.913   3.337  0.6834 -0.9540 -1.2259
 1969TIP3    H227323   0.934   2.041   3.318  1.2412 -1.4733 -2.5614
 1970TIP3   OH227324   5.668   5.975   1.375  0.1598 -0.2549 -0.0047
 1970TIP3    H127325   5.577   5.944   1.375  0.3698 -0.9042  0.3761
 1970TIP3    H227326   5.673   6.035   1.301 -1.3740  2.2020  1.7337
 1971TIP3   OH227327   6.316   2.955  16.882  0.4096 -0.4366 -0.1475
 1971TIP3    H127328   6.302   2.866  16.915  0.7836 -0.0633  1.0707
 1971TIP3    H227329   6.326   3.008  16.961  2.0745  0.3916 -0.8811
 1972TIP3   OH227330   4.566   4.922   2.499 -0.2909  0.0774 -0.3974
 1972TIP3    H127331   4.493   4.945   2.557  0.4659 -1.2634  1.1793
 1972TIP3    H227332   4.575   4.996   2.439 -0.0504  2.3298  2.2645
 1973TIP3   OH227333   6.664   4.845   1.348  0.5744  0.1209 -0.1722
 1973TIP3    H127334   6.725   4.777   1.377 -0.5185 -0.6362  0.4469
 1973TIP3    H227335   6.688   4.922   1.398  1.9091  0.2577 -0.9663
 1974TIP3   OH227336   4.066   0.754  13.569 -0.0806 -0.1429  0.6536
 1974TIP3    H127337   4.110   0.682  13.524  1.0610  0.1294  1.2875
 1974TIP3    H227338   4.002   0.786  13.505  0.0985 -1.0591 -0.0094
 1975TIP3   OH227339   0.054   1.602  15.527  0.4500 -0.2510  0.0562
 1975TIP3    H127340   0.114   1.674  15.546  0.7969 -0.3558 -0.6013
 1975TIP3    H227341  -0.016   1.611  15.591  1.0063  0.0716  0.6248
 1976TIP3   OH227342   5.776   6.762   6.673  0.0762 -0.3061  0.0263
 1976TIP3    H127343   5.777   6.793   6.582 -0.1898 -0.2324  0.0455
 1976TIP3    H227344   5.813   6.834   6.724 -1.4889  0.4205  0.1936
 1977TIP3   OH227345   6.202   6.403  16.094 -0.1389  0.1292  0.0593
 1977TIP3    H127346   6.110   6.391  16.120  0.6431 -1.5522  2.4250
 1977TIP3    H227347   6.242   6.317  16.108  2.2463  1.3141  1.1017
 1978TIP3   OH227348   3.052   1.719  13.820 -0.2889 -0.7033  0.3763
 1978TIP3    H127349   3.097   1.637  13.840 -1.1450 -0.9471  1.3644
 1978TIP3    H227350   2.998   1.737  13.897 -1.7752 -0.3515 -0.7108
 1979TIP3   OH227351   4.920   4.761   0.478  0.3481  0.2508  0.2465
 1979TIP3    H127352   4.972   4.779   0.400 -0.3465 -2.2655 -0.9183
 1979TIP3    H227353   4.910   4.665   0.479 -3.6400  0.4840  0.7289
 1980TIP3   OH227354   1.006   5.828   4.478 -0.3350  0.2833 -0.4348
 1980TIP3    H127355   1.039   5.791   4.397 -1.3367 -1.7714  0.0379
 1980TIP3    H227356   0.931   5.881   4.452 -0.3238  0.0768 -0.8845
 1981TIP3   OH227357   3.141   5.977  13.435 -0.6262 -0.0249  0.1239
 1981TIP3    H127358   3.225   6.006  13.400 -0.0350 -1.8742 -0.1178
 1981TIP3    H227359   3.098   5.935  13.360  0.0462 -2.7689  1.1522
 1982TIP3   OH227360   1.702   4.316  14.780  0.2387  0.6080  0.0486
 1982TIP3    H127361   1.633   4.328  14.715 -1.6236 -1.0720  1.5915
 1982TIP3    H227362   1.695   4.393  14.836  0.7240  1.2300 -0.7244
 1983TIP3   OH227363   3.983   1.209  16.165 -0.0963 -0.1012 -0.1281
 1983TIP3    H127364   3.912   1.145  16.155 -0.8763  0.4738  1.3309
 1983TIP3    H227365   3.938   1.291  16.185  0.9758  0.2247  1.0829
 1984TIP3   OH227366   0.142   3.669   1.645  0.0255 -0.3723  0.1681
 1984TIP3    H127367   0.079   3.689   1.714  1.2960 -2.4334  2.0501
 1984TIP3    H227368   0.096   3.607   1.589  0.0178 -1.1590  1.0162
 1985TIP3   OH227369   0.808   6.389   5.231 -0.0675  0.0774  0.5756
 1985TIP3    H127370   0.798   6.336   5.310 -0.7460  0.6349  0.8727
 1985TIP3    H227371   0.866   6.461   5.257  0.9142 -0.5291  0.1525
 1986TIP3   OH227372   2.505   4.964  15.976 -0.0967  0.1111  0.0693
 1986TIP3    H127373   2.574   4.990  15.915 -0.9452  1.8575 -0.2206
 1986TIP3    H227374   2.435   5.028  15.961 -0.8433 -0.1920  1.9870
 1987TIP3   OH227375   3.602   5.478   5.998 -0.4350  0.1129  0.2883
 1987TIP3    H127376   3.553   5.483   6.080 -0.6228 -2.1470  0.3695
 1987TIP3    H227377   3.691   5.505   6.021 -0.1884 -1.6424  1.5551
 1988TIP3   OH227378   1.184   0.532  10.933  0.1004  0.3885 -0.4709
 1988TIP3    H127379   1.240   0.465  10.973 -0.5599 -0.8260 -1.4888
 1988TIP3    H227380   1.243   0.605  10.915  1.7660 -1.4068 -2.8787
 1989TIP3   OH227381   3.907   5.382   1.396 -0.1569 -0.5713  0.2274
 1989TIP3    H127382   3.918   5.318   1.466 -2.6524  0.5418  1.7897
 1989TIP3    H227383   3.950   5.461   1.428  0.5353 -0.6372 -0.4887
 1990TIP3   OH227384   1.007   0.422  11.946  0.2726 -0.1694  0.3923
 1990TIP3    H127385   1.077   0.398  11.885  0.8525  0.3937  0.8176
 1990TIP3    H227386   1.018   0.360  12.019 -0.1012 -0.5182  0.1515
 1991TIP3   OH227387   6.505   4.457  12.821 -0.2627 -0.2154  0.4828
 1991TIP3    H127388   6.450   4.479  12.746 -1.3368  0.0825  1.3349
 1991TIP3    H227389   6.516   4.362  12.816 -0.2297 -0.1837 -0.1128
 1992TIP3   OH227390   2.086   2.037  14.175  0.0313 -0.5840  0.2158
 1992TIP3    H127391   2.008   2.026  14.120 -0.2603  1.7976  0.0401
 1992TIP3    H227392   2.158   2.041  14.112 -0.0286 -0.1702  0.1705
 1993TIP3   OH227393   6.284   4.395  14.168  0.0852 -0.5296 -0.2424
 1993TIP3    H127394   6.351   4.361  14.227  0.1024 -2.3630 -1.2375
 1993TIP3    H227395   6.316   4.373  14.080 -0.5504  0.9845 -0.8899
 1994TIP3   OH227396   4.106   2.915  12.953 -0.5752  0.0804 -0.8428
 1994TIP3    H127397   4.202   2.912  12.951 -0.5614 -0.1079 -0.2095
 1994TIP3    H227398   4.083   2.981  12.888 -0.0387 -0.1940 -1.3301
 1995TIP3   OH227399   0.236   0.517   1.527  0.3365  0.2655 -0.2170
 1995TIP3    H127400   0.291   0.453   1.572 -0.5915 -0.2401  0.2136
 1995TIP3    H227401   0.293   0.553   1.458  0.8892 -0.9705 -0.4302
 1996TIP3   OH227402   0.847   1.169   5.326  0.5670 -0.2058 -0.1481
 1996TIP3    H127403   0.925   1.113   5.322  0.2407 -0.9888  2.3926
 1996TIP3    H227404   0.774   1.107   5.337 -0.3133  0.5678 -1.3835
 1997TIP3   OH227405   5.407   6.212  15.561  0.4970  0.3870 -0.7894
 1997TIP3    H127406   5.413   6.301  15.596 -0.5171  0.4722 -0.7960
 1997TIP3    H227407   5.323   6.179  15.594  0.5414 -0.3170 -1.3580
 1998TIP3   OH227408   0.968   4.099   6.446  0.2688  0.0836 -0.0436
 1998TIP3    H127409   0.903   4.121   6.379 -0.7527  0.4677  1.0388
 1998TIP3    H227410   0.983   4.182   6.492  0.5754 -0.2814  0.5195
 1999TIP3   OH227411   2.409   2.189  12.354  0.6786  0.0755  0.2958
 1999TIP3    H127412   2.486   2.246  12.354  1.5899 -1.0080  3.1159
 1999TIP3    H227413   2.440   2.107  12.316 -0.2392  0.8274 -2.3155
 2000TIP3   OH227414   4.892   0.547  13.026 -0.0257 -0.1766 -0.3028
 2000TIP3    H127415   4.866   0.481  13.091  0.2070 -0.5419 -0.5782
 2000TIP3    H227416   4.946   0.499  12.964  1.6526  0.6339  0.4638
 2001TIP3   OH227417   5.501   0.000   3.033  0.2582 -0.4323  0.0807
 2001TIP3    H127418   5.587  -0.010   2.991 -0.2152 -0.8551 -0.8095
 2001TIP3    H227419   5.485  -0.084   3.075  1.1904  0.3127  2.0589
 2002TIP3   OH227420   5.683   3.041   6.219  0.8799  0.0020 -0.4062
 2002TIP3    H127421   5.682   3.006   6.308 -0.0500 -1.1859 -0.8519
 2002TIP3    H227422   5.769   3.083   6.211 -0.0046  2.5335  1.9106
 2003TIP3   OH227423   1.313   6.168   0.816  0.5386 -0.1148  0.1957
 2003TIP3    H127424   1.236   6.222   0.835  0.7508  0.2888 -0.0695
 2003TIP3    H227425   1.301   6.090   0.869  1.0780  0.9399  1.9241
 2004TIP3   OH227426   4.042   3.862  12.045  0.2097  0.4848 -0.5296
 2004TIP3    H127427   3.996   3.845  12.127  0.5921  0.6382 -0.2816
 2004TIP3    H227428   4.074   3.776  12.018  0.6073  0.5298 -0.2016
 2005TIP3   OH227429   3.599   5.300   6.543 -0.3019 -0.2561  0.6458
 2005TIP3    H127430   3.575   5.322   6.453 -0.2809 -1.3093  0.3631
 2005TIP3    H227431   3.521   5.321   6.595 -0.0515  1.0691  0.5113
 2006TIP3   OH227432   5.966   5.372   5.520 -0.1508 -0.0837 -0.2289
 2006TIP3    H127433   5.969   5.284   5.484  2.7042  0.3806 -1.3602
 2006TIP3    H227434   5.964   5.430   5.443 -0.2775  0.8598  0.4616
 2007TIP3   OH227435   3.272   5.783   3.183  0.3692 -1.0275 -0.1665
 2007TIP3    H127436   3.340   5.719   3.167  0.5690 -0.3646 -2.3647
 2007TIP3    H227437   3.190   5.736   3.167  0.4823 -0.9435 -1.0257
 2008TIP3   OH227438   0.437   4.887   2.009  0.3310 -0.9147  0.3975
 2008TIP3    H127439   0.531   4.866   2.012  0.3961 -0.8106 -0.7404
 2008TIP3    H227440   0.405   4.863   2.096  0.9201 -3.2509  0.0241
 2009TIP3   OH227441   3.833   0.357   6.042  0.2444 -0.6325 -0.3211
 2009TIP3    H127442   3.921   0.381   6.011  0.0728 -0.7932 -0.9526
 2009TIP3    H227443   3.849   0.301   6.118  0.6943 -0.6800 -0.4462
 2010TIP3   OH227444   2.387   6.285  14.720 -0.6457 -0.3663  0.0194
 2010TIP3    H127445   2.407   6.205  14.769 -1.4608 -0.6980 -0.1708
 2010TIP3    H227446   2.360   6.348  14.787  1.6897  0.3489  0.3780
 2011TIP3   OH227447   1.204   4.380  11.535  0.4690 -0.5146  0.3084
 2011TIP3    H127448   1.258   4.306  11.561  0.2089 -1.7680 -2.3634
 2011TIP3    H227449   1.134   4.342  11.481 -1.7556  1.3112  1.6898
 2012TIP3   OH227450   2.600   5.464  14.199  0.4442  0.3262 -0.1163
 2012TIP3    H127451   2.510   5.498  14.198 -0.1404 -1.0211  1.6271
 2012TIP3    H227452   2.632   5.484  14.287  2.2744  1.6898 -1.0246
 2013TIP3   OH227453   3.888   6.401   4.435  0.2154  0.4896 -0.4356
 2013TIP3    H127454   3.875   6.356   4.352 -1.2888  0.3783 -0.1654
 2013TIP3    H227455   3.802   6.400   4.477  1.2417 -0.8053  1.8200
 2014TIP3   OH227456   6.691   5.298   5.809 -0.3260 -0.3844 -0.2428
 2014TIP3    H127457   6.745   5.223   5.785 -0.3594 -0.6012  0.3424
 2014TIP3    H227458   6.601   5.270   5.789 -0.2179  0.0097 -1.2988
 2015TIP3   OH227459   2.475   5.667   0.235  0.2421 -0.3302  0.4126
 2015TIP3    H127460   2.547   5.653   0.173  0.0361  0.6921 -0.0908
 2015TIP3    H227461   2.468   5.585   0.283  0.8498 -0.9186 -0.4671
 2016TIP3   OH227462   4.291   6.212  14.535  0.4714 -0.0377 -0.3580
 2016TIP3    H127463   4.258   6.284  14.481  1.2466  0.7474  0.1869
 2016TIP3    H227464   4.226   6.204  14.605 -0.0526 -0.4392 -0.8816
 2017TIP3   OH227465   1.119   5.630  14.196  0.4195  0.0616 -0.4116
 2017TIP3    H127466   1.123   5.707  14.138 -1.9613  1.8841  1.6388
 2017TIP3    H227467   1.036   5.588  14.173  1.4629 -1.6738 -1.1527
 2018TIP3   OH227468   4.492   0.970   5.775  0.4748 -0.3270 -0.6922
 2018TIP3    H127469   4.575   1.017   5.786 -0.3185  0.6943  1.4697
 2018TIP3    H227470   4.433   1.032   5.733  0.6402 -0.9203 -1.8576
 2019TIP3   OH227471   4.717   1.345   4.863  0.1900  0.3617  0.0625
 2019TIP3    H127472   4.806   1.323   4.835  0.1407 -0.3404  0.4455
 2019TIP3    H227473   4.663   1.274   4.828 -0.2462  0.8594 -0.2892
 2020TIP3   OH227474   4.255   5.279   1.372 -0.1338 -0.1041  0.1060
 2020TIP3    H127475   4.325   5.304   1.433 -0.6350 -1.1844  1.1734
 2020TIP3    H227476   4.196   5.355   1.372 -0.0142  0.0005  0.8078
 2021TIP3   OH227477   1.849   5.507  15.869  0.7862  0.2135 -0.0337
 2021TIP3    H127478   1.900   5.443  15.819 -1.2591 -2.3750  0.9213
 2021TIP3    H227479   1.781   5.536  15.808  1.3413  1.0454 -0.2723
 2022TIP3   OH227480   3.475   2.604  15.826 -0.2855  0.4367 -0.1819
 2022TIP3    H127481   3.500   2.513  15.841  1.3292  0.7107 -0.9380
 2022TIP3    H227482   3.441   2.605  15.736 -0.9000  0.4679  0.0505
 2023TIP3   OH227483   4.966   5.190   5.359  0.3601  0.1965 -0.6521
 2023TIP3    H127484   4.950   5.284   5.347  0.2369  0.0916 -1.3459
 2023TIP3    H227485   5.058   5.179   5.334  0.1828  0.0238 -1.2474
 2024TIP3   OH227486   1.725   3.772  12.648 -0.0334  0.4222  0.0025
 2024TIP3    H127487   1.737   3.678  12.636  0.3324  0.6961 -2.1038
 2024TIP3    H227488   1.809   3.802  12.684  0.8859  0.3181 -1.9445
 2025TIP3   OH227489   3.616   0.001   2.268 -0.2468  0.0245 -0.8324
 2025TIP3    H127490   3.604  -0.080   2.218  0.0074  0.3293 -1.3969
 2025TIP3    H227491   3.688   0.046   2.224  0.9532 -0.3522  0.6595
 2026TIP3   OH227492   1.816   0.201   2.383 -0.5485 -0.2748  0.0704
 2026TIP3    H127493   1.871   0.148   2.440  1.3401  0.0345 -1.3965
 2026TIP3    H227494   1.877   0.251   2.329 -2.2748  1.5186 -0.3314
 2027TIP3   OH227495   6.093   6.770   5.439  0.0976 -0.2856 -0.1513
 2027TIP3    H127496   6.053   6.694   5.482 -1.0645 -0.3286 -1.2434
 2027TIP3    H227497   6.021   6.809   5.389  0.6007  1.7319  0.6378
 2028TIP3   OH227498   4.159   5.037   3.750  0.8569  0.4144 -0.0977
 2028TIP3    H127499   4.113   5.002   3.673  1.0803  0.6562 -0.3416
 2028TIP3    H227500   4.106   5.008   3.824  0.1316  0.9561 -0.3933
 2029TIP3   OH227501   5.645   5.175   4.252 -0.1229 -0.2017  0.2884
 2029TIP3    H127502   5.645   5.116   4.327  2.7055  0.0444  0.5731
 2029TIP3    H227503   5.616   5.121   4.179 -0.6344 -1.0584  1.0945
 2030TIP3   OH227504   2.524   2.185   5.298 -0.1836 -0.3959 -0.8009
 2030TIP3    H127505   2.619   2.197   5.298 -0.2514  0.1880 -1.1988
 2030TIP3    H227506   2.498   2.205   5.209 -0.8777  1.1347 -0.2937
 2031TIP3   OH227507   2.598   4.196   5.474  0.7731  0.0454 -1.1951
 2031TIP3    H127508   2.604   4.113   5.426  2.4581  0.4768 -1.8091
 2031TIP3    H227509   2.686   4.234   5.466  0.2890  1.4541 -0.1286
 2032TIP3   OH227510   0.318   4.505  15.632  0.0011  0.4072  0.8840
 2032TIP3    H127511   0.319   4.461  15.717 -0.4773 -2.9180 -0.6401
 2032TIP3    H227512   0.257   4.578  15.642 -0.1584  0.0087  3.3138
 2033TIP3   OH227513   4.055   5.717  11.626  0.4100  1.2289  0.0474
 2033TIP3    H127514   4.053   5.679  11.714  0.2099  1.6470  0.2217
 2033TIP3    H227515   4.030   5.644  11.569 -1.8092  1.5284  0.5400
 2034TIP3   OH227516   5.403   1.757  13.911 -0.2193 -0.1938 -0.0556
 2034TIP3    H127517   5.422   1.831  13.853  0.2258 -0.5712 -0.3935
 2034TIP3    H227518   5.425   1.789  13.998  0.6391 -0.1539 -0.2811
 2035TIP3   OH227519   0.506   6.165  14.635 -0.9490 -0.1900 -0.3769
 2035TIP3    H127520   0.504   6.248  14.589  0.4863  1.2842  2.0239
 2035TIP3    H227521   0.523   6.100  14.567  0.5524  1.7889 -1.9930
 2036TIP3   OH227522   0.486   2.366   1.561 -0.0887  0.2074 -0.2711
 2036TIP3    H127523   0.560   2.319   1.522  0.5490  1.0272 -0.0728
 2036TIP3    H227524   0.521   2.403   1.642 -0.7646  0.4580 -0.0864
 2037TIP3   OH227525   6.420   3.741  14.515 -0.0835 -0.4153  0.1591
 2037TIP3    H127526   6.411   3.658  14.561  0.0016 -0.7051 -0.3343
 2037TIP3    H227527   6.449   3.717  14.427  0.6242  0.1739  0.2121
 2038TIP3   OH227528   1.520   0.825  12.531 -0.1487 -0.3314 -0.5255
 2038TIP3    H127529   1.575   0.752  12.504  0.4391 -0.9073  1.9842
 2038TIP3    H227530   1.571   0.903  12.506  1.4480 -0.8503  0.9282
 2039TIP3   OH227531   3.208   4.368  15.240 -0.4126 -0.0783  0.5905
 2039TIP3    H127532   3.221   4.429  15.168  0.4695 -1.4093 -0.4345
 2039TIP3    H227533   3.194   4.423  15.317  0.0654  1.3879 -0.3391
 2040TIP3   OH227534   4.984   2.197  16.050 -0.0318 -0.0733  0.1983
 2040TIP3    H127535   4.906   2.168  16.003  1.4574 -1.2573 -1.6942
 2040TIP3    H227536   5.034   2.247  15.986 -0.6559  3.5371  2.2744
 2041TIP3   OH227537   6.571   4.154   5.031 -0.1460 -0.7390 -0.5306
 2041TIP3    H127538   6.521   4.133   5.110 -0.7987 -0.9087 -0.9806
 2041TIP3    H227539   6.582   4.249   5.035  0.0996 -0.7833 -0.0779
 2042TIP3   OH227540   0.197   3.897   0.792  0.2477  0.2158  0.3349
 2042TIP3    H127541   0.198   3.838   0.717  0.1333 -0.5919  0.9536
 2042TIP3    H227542   0.288   3.902   0.821  0.0496 -0.8980  1.2151
 2043TIP3   OH227543   3.536   5.793   2.272  0.3815 -0.3582 -0.3751
 2043TIP3    H127544   3.622   5.774   2.234  0.1134 -0.9493 -0.6948
 2043TIP3    H227545   3.521   5.886   2.253  2.4484  0.7465  2.6391
 2044TIP3   OH227546   0.348   6.467   0.518 -0.1975  0.7026  0.0077
 2044TIP3    H127547   0.315   6.490   0.431 -2.3378 -0.3694  0.4759
 2044TIP3    H227548   0.360   6.372   0.514 -1.4343  0.4784  1.2244
 2045TIP3   OH227549   4.058   2.629  13.192  0.2139 -0.4937 -0.4735
 2045TIP3    H127550   4.056   2.592  13.104  1.3598 -1.2586 -0.1903
 2045TIP3    H227551   4.113   2.570  13.242 -2.7113 -1.7476  1.5551
 2046TIP3   OH227552   0.144   1.815   4.475  0.2908  0.0045  0.0009
 2046TIP3    H127553   0.206   1.874   4.432  0.3120 -1.1013 -1.5596
 2046TIP3    H227554   0.184   1.797   4.561  1.2613  0.6638 -0.2956
 2047TIP3   OH227555   3.688   1.783   4.870 -0.0748 -0.4370  0.2030
 2047TIP3    H127556   3.609   1.802   4.920  0.7053 -2.2657  2.3371
 2047TIP3    H227557   3.661   1.721   4.803 -0.2544 -2.3570  1.9616
 2048TIP3   OH227558   6.225   0.135  16.074 -0.3491  0.1414 -0.5224
 2048TIP3    H127559   6.254   0.060  16.126 -0.3160  0.3676 -0.2149
 2048TIP3    H227560   6.288   0.204  16.095  0.7419 -0.2793 -2.2048
 2049TIP3   OH227561   4.895   2.717  12.499 -0.2672 -0.0859 -0.3151
 2049TIP3    H127562   4.913   2.690  12.408  0.7340 -1.3474  0.2301
 2049TIP3    H227563   4.962   2.782  12.518 -1.0551  0.8907 -0.7575
 2050TIP3   OH227564   2.850   0.835  13.401 -0.3556 -0.2459  0.0430
 2050TIP3    H127565   2.919   0.811  13.338  1.2513 -0.6989  1.8880
 2050TIP3    H227566   2.772   0.793  13.367 -0.0109  0.9825 -2.6127
 2051TIP3   OH227567   1.396   5.857   2.599 -0.1225 -0.3885 -0.2328
 2051TIP3    H127568   1.433   5.932   2.644  0.2164 -0.7184  0.0438
 2051TIP3    H227569   1.463   5.831   2.536 -0.6347  0.1341 -1.0095
 2052TIP3   OH227570   2.286   4.909  14.598  0.1571  0.1275  0.1342
 2052TIP3    H127571   2.380   4.895  14.608  0.0011 -0.8045  0.4549
 2052TIP3    H227572   2.252   4.824  14.570 -0.2547  1.0874 -2.6048
 2053TIP3   OH227573   3.601   4.000  16.442  0.0103 -0.0417  0.9602
 2053TIP3    H127574   3.630   4.054  16.368 -0.3553 -1.8051 -0.5428
 2053TIP3    H227575   3.569   4.063  16.506  0.9931  1.5985 -0.0832
 2054TIP3   OH227576   3.929   3.130  12.027 -0.3428 -0.1458  0.0247
 2054TIP3    H127577   3.944   3.050  11.977 -2.8829 -0.0661 -0.9706
 2054TIP3    H227578   3.984   3.120  12.105  1.7550 -1.4101 -1.5154
 2055TIP3   OH227579   0.714   0.940   5.424 -0.1129  0.3298  0.3021
 2055TIP3    H127580   0.631   0.931   5.472  0.2689 -0.3799  0.8500
 2055TIP3    H227581   0.779   0.954   5.492  0.3158  0.1862 -0.0777
 2056TIP3   OH227582   0.789   6.489   1.444 -0.2472  0.5060 -0.2381
 2056TIP3    H127583   0.881   6.508   1.467  0.0373 -1.1573  0.1033
 2056TIP3    H227584   0.739   6.552   1.496  0.5881 -0.6024  2.0930
 2057TIP3   OH227585   1.842   5.435  13.183  0.3026 -0.0952 -0.4067
 2057TIP3    H127586   1.926   5.434  13.137 -0.1938 -0.1886 -1.3405
 2057TIP3    H227587   1.851   5.370  13.252  1.7131  1.3464  0.8387
 2058TIP3   OH227588   1.049   1.071   1.006 -0.6169 -0.8168 -0.2817
 2058TIP3    H127589   1.048   1.051   0.913 -0.0560  0.3547 -0.5575
 2058TIP3    H227590   1.137   1.107   1.022 -2.4253  4.5230 -0.5773
 2059TIP3   OH227591   6.455   2.186  17.230 -0.1385 -0.4217  0.3504
 2059TIP3    H127592   6.428   2.262  17.283  0.6840  0.7007 -0.7853
 2059TIP3    H227593   6.372   2.149  17.198 -0.5113  0.9427 -0.3361
 2060TIP3   OH227594   4.137   5.584  15.526  0.5768 -0.5359 -0.3369
 2060TIP3    H127595   4.065   5.536  15.568 -0.1750 -0.6189 -1.6543
 2060TIP3    H227596   4.208   5.521  15.521  0.3657 -0.8038 -0.0058
 2061TIP3   OH227597   0.619   4.141  13.930 -0.0832  0.2363  0.1398
 2061TIP3    H127598   0.680   4.098  13.870  0.8395  2.3309 -0.5087
 2061TIP3    H227599   0.532   4.111  13.902  0.4423 -0.1913 -1.0804
 2062TIP3   OH227600   2.949   6.031   1.791 -0.0967  0.5130  0.2267
 2062TIP3    H127601   2.965   6.125   1.791 -0.0151  0.5139 -0.8892
 2062TIP3    H227602   2.873   6.020   1.848 -0.0780  1.2497  0.4029
 2063TIP3   OH227603   0.862   1.376   2.035 -0.4759  0.6709  0.8609
 2063TIP3    H127604   0.883   1.468   2.046  1.2030  0.5442 -0.8536
 2063TIP3    H227605   0.892   1.334   2.116  0.4220  1.3728  0.9036
 2064TIP3   OH227606   6.079   5.164   4.536  0.2657 -0.1596 -0.1277
 2064TIP3    H127607   6.126   5.108   4.474  0.7890  0.0320  0.0941
 2064TIP3    H227608   6.001   5.113   4.559  0.0396 -0.2045 -0.9814
 2065TIP3   OH227609   2.536   0.481  11.605  0.1661  0.2585 -0.3284
 2065TIP3    H127610   2.454   0.531  11.611  0.7002  1.3098 -1.3991
 2065TIP3    H227611   2.508   0.394  11.578 -0.6077  0.6638 -0.8888
 2066TIP3   OH227612   2.447   0.350  16.649 -0.6957 -0.5541  0.3921
 2066TIP3    H127613   2.373   0.290  16.634  0.8045 -2.5130  0.4301
 2066TIP3    H227614   2.524   0.301  16.620  0.7225  1.0288  1.3037
 2067TIP3   OH227615   2.984   6.157   3.344 -0.3304  0.2992  0.1274
 2067TIP3    H127616   3.072   6.121   3.361 -0.6277 -0.3356  0.3572
 2067TIP3    H227617   2.992   6.250   3.364  0.0165  0.0491  1.2289
 2068TIP3   OH227618   4.545   0.323  15.063 -0.3463  0.2332 -0.0620
 2068TIP3    H127619   4.509   0.256  15.005 -0.4188 -0.6630  0.9964
 2068TIP3    H227620   4.615   0.364  15.011 -0.7856 -0.1512 -0.9819
 2069TIP3   OH227621   3.966   1.251   1.314 -0.1163  0.1208  0.2511
 2069TIP3    H127622   4.039   1.229   1.373 -0.0653  0.6328  0.3857
 2069TIP3    H227623   4.006   1.255   1.227  0.0839  0.7118  0.3664
 2070TIP3   OH227624   5.235   1.406  11.099  0.3744  0.3634  0.0228
 2070TIP3    H127625   5.156   1.368  11.137  0.1684  0.0312 -0.7115
 2070TIP3    H227626   5.302   1.337  11.108 -0.0398 -0.2777 -1.4489
 2071TIP3   OH227627   1.261   5.835  14.781 -0.6347 -0.1402  0.4071
 2071TIP3    H127628   1.309   5.762  14.742 -0.7109  0.6225 -1.1964
 2071TIP3    H227629   1.169   5.817  14.762 -0.6231  0.5696 -0.4274
 2072TIP3   OH227630   4.410   2.931   1.044  0.9577 -0.2336 -0.1531
 2072TIP3    H127631   4.326   2.902   1.010  0.3369  0.8068  0.4326
 2072TIP3    H227632   4.430   3.011   0.996  1.2335 -0.0594  0.2382
 2073TIP3   OH227633   3.551   4.570  12.946  0.4630 -0.2050  0.1805
 2073TIP3    H127634   3.609   4.617  13.005 -0.2119  0.0468  0.6624
 2073TIP3    H227635   3.464   4.607  12.963  0.4016  0.6238 -1.7267
 2074TIP3   OH227636   3.003   3.215   2.420 -0.3766  0.0652 -0.1214
 2074TIP3    H127637   2.983   3.121   2.421 -2.3563  0.3780  2.8684
 2074TIP3    H227638   2.973   3.247   2.505 -1.4639  3.7556 -1.6663
 2075TIP3   OH227639   6.427   1.208  14.295  0.5197 -0.1924  0.7045
 2075TIP3    H127640   6.466   1.142  14.238 -0.5222 -0.6879  0.5474
 2075TIP3    H227641   6.346   1.234  14.251  0.1694  0.0993  1.5030
 2076TIP3   OH227642   2.670   5.271  15.142 -0.5053 -0.1494  0.6585
 2076TIP3    H127643   2.616   5.340  15.182 -2.6147 -1.1223 -0.3709
 2076TIP3    H227644   2.715   5.230  15.216 -0.3568  1.3356  1.4422
 2077TIP3   OH227645   2.550   1.960  13.141  0.2267  0.1318 -0.1025
 2077TIP3    H127646   2.474   1.915  13.104 -0.0436  1.5975 -1.4370
 2077TIP3    H227647   2.566   1.915  13.224 -2.4892  0.1714  0.5409
 2078TIP3   OH227648   3.312   2.762  15.594 -0.4400  0.4874 -0.0219
 2078TIP3    H127649   3.372   2.816  15.542  0.5663 -0.5741  0.0088
 2078TIP3    H227650   3.329   2.672  15.566 -2.7208  0.2115 -0.7015
 2079TIP3   OH227651   6.601   0.611   1.953  0.3358  0.1269 -0.1668
 2079TIP3    H127652   6.618   0.556   2.030  1.1825  0.1741 -0.3021
 2079TIP3    H227653   6.682   0.661   1.942 -0.2806  1.1260 -0.2756
 2080TIP3   OH227654   2.544   0.157  14.528  0.1436 -0.6033 -0.0236
 2080TIP3    H127655   2.529   0.233  14.470  0.5171  0.1740  0.8720
 2080TIP3    H227656   2.494   0.086  14.487  0.9733 -0.2799 -1.6910
 2081TIP3   OH227657   1.243   0.421   4.951  0.1983  0.5909  0.3560
 2081TIP3    H127658   1.328   0.462   4.935  0.2592 -0.0962 -1.2683
 2081TIP3    H227659   1.255   0.329   4.928 -1.4532  0.8489 -2.0357
 2082TIP3   OH227660   4.153   6.010   5.091 -0.1212 -0.0655  0.7921
 2082TIP3    H127661   4.129   6.102   5.101 -2.8046 -0.6657  0.6935
 2082TIP3    H227662   4.223   6.010   5.026 -0.2822  1.8836  0.5666
 2083TIP3   OH227663   6.166   1.607  10.519  0.0081 -0.2819 -0.4284
 2083TIP3    H127664   6.229   1.616  10.447  1.0914 -3.1441  0.0474
 2083TIP3    H227665   6.193   1.673  10.582  1.5616 -0.3758 -0.9472
 2084TIP3   OH227666   5.721   4.804   3.368  0.0485  0.0714 -0.5288
 2084TIP3    H127667   5.718   4.715   3.401 -0.7550  0.9837  2.1212
 2084TIP3    H227668   5.762   4.797   3.281 -2.4415 -3.1587 -1.6392
 2085TIP3   OH227669   1.392   6.683   4.755  0.3357  0.2690 -0.3443
 2085TIP3    H127670   1.364   6.595   4.732  2.1078  0.2824 -3.0176
 2085TIP3    H227671   1.479   6.671   4.794  0.5699  0.8182 -0.6877
 2086TIP3   OH227672   6.108   0.806  12.541 -0.0449  0.2049 -0.1312
 2086TIP3    H127673   6.153   0.722  12.533 -2.2172 -0.9505 -1.1659
 2086TIP3    H227674   6.177   0.869  12.562  1.8266 -1.6266 -0.5098
 2087TIP3   OH227675   6.155   1.054   3.414  0.2039  0.1991  0.2835
 2087TIP3    H127676   6.209   1.124   3.377 -0.8281  0.6696 -0.3839
 2087TIP3    H227677   6.197   1.032   3.497  2.5347 -0.7796 -1.0253
 2088TIP3   OH227678   5.542   2.998  14.561  0.1993  0.2922 -0.4372
 2088TIP3    H127679   5.498   3.083  14.556 -2.0566 -0.8042 -0.7455
 2088TIP3    H227680   5.579   2.986  14.473  0.5262  0.9435 -0.3946
 2089TIP3   OH227681   2.653   1.287  11.686 -0.5544 -0.2386  0.3241
 2089TIP3    H127682   2.678   1.379  11.679  1.7086 -0.7625  0.7342
 2089TIP3    H227683   2.681   1.249  11.603  0.2983 -0.9279  0.9188
 2090TIP3   OH227684   3.722   4.199   5.877  0.3887  0.3720  0.1856
 2090TIP3    H127685   3.714   4.213   5.783  2.0118  1.1618  0.1502
 2090TIP3    H227686   3.802   4.148   5.887 -0.2519 -0.4965  1.0876
 2091TIP3   OH227687   1.544   5.213   4.819  0.1458 -0.0570 -0.4240
 2091TIP3    H127688   1.607   5.283   4.803  0.4907 -0.0940  0.6962
 2091TIP3    H227689   1.573   5.141   4.763  0.3703  0.3494 -0.8344
 2092TIP3   OH227690   5.487   0.627   6.840  0.2495  0.0911  0.2084
 2092TIP3    H127691   5.398   0.649   6.866 -0.5375  1.7065 -3.2119
 2092TIP3    H227692   5.485   0.532   6.828 -1.4101  0.2159 -0.9009
 2093TIP3   OH227693   4.648   5.436  13.744  0.3955  0.2693 -0.6808
 2093TIP3    H127694   4.639   5.398  13.657  0.8242 -0.2385 -0.5105
 2093TIP3    H227695   4.644   5.530  13.730  0.3217  0.1854 -1.2324
 2094TIP3   OH227696   1.392   1.359   5.032 -0.0813  0.5763  0.1532
 2094TIP3    H127697   1.446   1.428   5.071 -0.0790  0.4089  0.4543
 2094TIP3    H227698   1.361   1.396   4.950 -1.5380  1.6132  1.1383
 2095TIP3   OH227699   4.572   1.300  16.440  0.6666 -0.4552  0.3657
 2095TIP3    H127700   4.504   1.316  16.376  0.4836 -0.9941  0.4155
 2095TIP3    H227701   4.648   1.273  16.389  0.9542  0.4775  0.2877
 2096TIP3   OH227702   2.200   1.372  14.282 -0.2665 -0.5748 -0.4701
 2096TIP3    H127703   2.265   1.368  14.353  0.2546 -1.0527 -0.9656
 2096TIP3    H227704   2.116   1.356  14.326 -0.1397  0.6269  0.2694
 2097TIP3   OH227705   0.620   4.640  12.095 -0.2585  0.0340 -0.1366
 2097TIP3    H127706   0.703   4.676  12.064  0.6357 -1.2864  0.6320
 2097TIP3    H227707   0.583   4.707  12.151  0.6909  0.3081  0.1641
 2098TIP3   OH227708   5.659   2.966   1.827  0.3354  0.6598  0.5390
 2098TIP3    H127709   5.734   3.024   1.819 -0.0269  1.5352  2.6791
 2098TIP3    H227710   5.583   3.025   1.831 -0.1546 -0.0061  1.4757
 2099TIP3   OH227711   4.192   1.212   1.446  0.1795  0.0363 -0.1102
 2099TIP3    H127712   4.188   1.162   1.527 -1.4740 -0.9605 -0.7392
 2099TIP3    H227713   4.279   1.193   1.410 -0.3418 -2.3881 -0.2713
 2100TIP3   OH227714   4.538   2.792  16.470  0.1020  0.1311 -0.2296
 2100TIP3    H127715   4.555   2.742  16.390  2.4426  1.9354 -0.9512
 2100TIP3    H227716   4.563   2.882  16.449 -1.6596  1.2046  1.7754
 2101TIP3   OH227717   3.226   4.088  13.427  0.1285 -0.6724  0.0028
 2101TIP3    H127718   3.189   4.050  13.507  0.4852 -2.6826 -0.7275
 2101TIP3    H227719   3.263   4.013  13.380  0.6459  0.5789 -1.6711
 2102TIP3   OH227720   0.623   5.859   1.132  0.2557  0.5979  0.4170
 2102TIP3    H127721   0.711   5.894   1.147 -0.0931  1.1117  1.3152
 2102TIP3    H227722   0.622   5.837   1.038  1.2733  0.7591  0.3599
 2103TIP3   OH227723   3.906   0.620   2.056  0.0090  0.1898  0.0282
 2103TIP3    H127724   3.862   0.704   2.043  0.0296  0.0364 -1.1958
 2103TIP3    H227725   3.861   0.581   2.131 -0.5990  0.9083  0.0494
 2104TIP3   OH227726   5.069   4.757  13.339  0.4100 -0.1193 -0.0620
 2104TIP3    H127727   5.125   4.717  13.272  0.2912  1.6028 -1.2650
 2104TIP3    H227728   4.989   4.780  13.293 -0.5466 -0.7838  1.1984
 2105TIP3   OH227729   4.169   3.894  17.097 -0.2704  0.2820  0.3493
 2105TIP3    H127730   4.264   3.887  17.090 -0.3294 -0.2226  0.0007
 2105TIP3    H227731   4.145   3.826  17.160 -0.3642  0.6479  0.7088
 2106TIP3   OH227732   3.814   0.938  16.344 -0.5092  0.0326 -0.3880
 2106TIP3    H127733   3.772   1.023  16.336 -0.9893 -0.1722 -0.0722
 2106TIP3    H227734   3.774   0.898  16.421  0.8364  0.1544  0.4072
 2107TIP3   OH227735   1.957   2.259   4.139 -0.1507  0.2306  0.2710
 2107TIP3    H127736   1.996   2.346   4.130  0.4682 -0.0221  0.4680
 2107TIP3    H227737   1.917   2.242   4.054  0.1938  0.4827  0.0577
 2108TIP3   OH227738   5.464   5.685  15.542 -0.5020 -0.4639  0.2179
 2108TIP3    H127739   5.469   5.599  15.499 -1.2627 -0.2148 -0.3744
 2108TIP3    H227740   5.451   5.747  15.471 -1.6220 -0.0332  0.7767
 2109TIP3   OH227741   5.282   6.119   3.231 -0.5335  0.1289 -0.1135
 2109TIP3    H127742   5.254   6.130   3.321 -1.8550  1.6490 -0.6570
 2109TIP3    H227743   5.204   6.140   3.179  0.7950  1.6310 -1.6326
 2110TIP3   OH227744   6.065   2.820  16.277 -0.1729 -0.1575 -0.1224
 2110TIP3    H127745   6.033   2.735  16.248  0.2240 -1.5099  3.0390
 2110TIP3    H227746   6.160   2.815  16.266 -0.1234 -0.2421  0.3238
 2111TIP3   OH227747   3.278   5.022  12.013 -0.1955  0.2554 -0.3415
 2111TIP3    H127748   3.227   4.957  11.963 -1.5105  1.1155 -0.1863
 2111TIP3    H227749   3.356   4.975  12.041 -0.5674 -0.9309 -1.2016
 2112TIP3   OH227750   5.880   3.827  13.121  0.2317 -0.1992  0.4904
 2112TIP3    H127751   5.845   3.870  13.044  0.4344 -1.4201 -0.3089
 2112TIP3    H227752   5.950   3.884  13.151  1.2810 -0.5170 -1.2385
 2113TIP3   OH227753   1.786   2.483  16.573  0.2023  0.1892 -0.2414
 2113TIP3    H127754   1.786   2.392  16.602  2.3109 -0.0230 -0.7325
 2113TIP3    H227755   1.808   2.533  16.652 -0.5606  0.2684 -0.0645
 2114TIP3   OH227756   1.691   3.447   0.466 -0.1269 -0.0428  0.4536
 2114TIP3    H127757   1.655   3.489   0.544 -0.3637  0.8155 -0.0911
 2114TIP3    H227758   1.622   3.388   0.436 -0.7703  0.9373 -0.0822
 2115TIP3   OH227759   2.609   3.341   1.035 -0.3719  0.2747  0.0150
 2115TIP3    H127760   2.527   3.353   0.987 -0.3483 -1.5378 -0.5497
 2115TIP3    H227761   2.581   3.304   1.119 -0.1750  0.3843  0.1297
 2116TIP3   OH227762   2.503   5.683   2.223 -0.2214  0.4187  0.3591
 2116TIP3    H127763   2.435   5.662   2.287 -0.7566 -0.8863 -0.5912
 2116TIP3    H227764   2.562   5.608   2.225  0.4597  0.9486  0.2298
 2117TIP3   OH227765   3.381   1.178  12.721  0.6919 -0.1590 -0.0069
 2117TIP3    H127766   3.469   1.213  12.712 -0.1438  1.7884 -1.0592
 2117TIP3    H227767   3.389   1.110  12.789  3.0057 -0.1948 -0.2493
 2118TIP3   OH227768   4.831   0.543   5.895 -0.1284 -0.0282  0.7097
 2118TIP3    H127769   4.897   0.485   5.857  0.6586  0.1420  1.7493
 2118TIP3    H227770   4.752   0.488   5.902 -0.5781  0.1690 -1.8539
 2119TIP3   OH227771   1.358   3.422  15.233  0.1376  0.1141 -0.2585
 2119TIP3    H127772   1.413   3.493  15.267 -2.0827  1.1141  1.5588
 2119TIP3    H227773   1.276   3.465  15.209 -1.5886 -1.8792  1.6651
 2120TIP3   OH227774   3.625   5.478   0.304 -0.2167 -0.1985 -0.4406
 2120TIP3    H127775   3.644   5.536   0.377 -1.2561 -0.0439 -0.2776
 2120TIP3    H227776   3.709   5.437   0.283  0.0505 -0.4153  0.9878
 2121TIP3   OH227777   4.988   2.022   1.530  0.2447  0.7392 -0.7121
 2121TIP3    H127778   4.970   2.054   1.618 -1.7985 -0.5188 -0.6182
 2121TIP3    H227779   5.055   1.955   1.542 -0.7060 -0.1008  0.0394
 2122TIP3   OH227780   2.943   4.165  14.176  0.0053  0.1829  0.0904
 2122TIP3    H127781   2.877   4.173  14.245  0.3544 -1.0466  0.5897
 2122TIP3    H227782   2.987   4.250  14.175 -0.3722  0.4007  1.0011
 2123TIP3   OH227783   6.220   4.983  10.985  0.0963  0.5598 -0.2217
 2123TIP3    H127784   6.313   4.998  11.004 -0.0878 -0.1554  1.3244
 2123TIP3    H227785   6.216   4.981  10.889  2.0018 -1.2463 -0.3393
 2124TIP3   OH227786   4.205   5.424   4.313 -0.2818  0.0513  0.1543
 2124TIP3    H127787   4.159   5.487   4.258  1.3626  1.4825  0.3294
 2124TIP3    H227788   4.297   5.436   4.292  0.1811 -1.4960  1.0613
 2125TIP3   OH227789   1.664   5.745   6.911  0.5007 -0.4366  0.0384
 2125TIP3    H127790   1.711   5.822   6.945  0.9347 -0.3257 -0.7809
 2125TIP3    H227791   1.687   5.675   6.971 -0.0682  0.1120  0.9236
 2126TIP3   OH227792   6.151   2.711  15.907 -0.1045 -0.3076  0.1627
 2126TIP3    H127793   6.088   2.771  15.867 -0.6112 -1.5792 -0.9869
 2126TIP3    H227794   6.234   2.733  15.865 -0.5414 -1.3025 -1.3101
 2127TIP3   OH227795   1.742   5.654   3.369  0.0118 -0.2200 -0.5797
 2127TIP3    H127796   1.836   5.669   3.361 -0.0240  0.0658 -0.4719
 2127TIP3    H227797   1.735   5.566   3.407  0.2593  0.2302  0.5591
 2128TIP3   OH227798   2.295   0.678  14.897  0.4369  0.1328 -0.7888
 2128TIP3    H127799   2.238   0.644  14.829  0.3503 -1.2140 -0.0826
 2128TIP3    H227800   2.344   0.601  14.928  0.5600  0.7230  0.5744
 2129TIP3   OH227801   3.990   0.159   4.755 -0.7119  0.4188  0.4495
 2129TIP3    H127802   3.983   0.132   4.847  1.2034  0.5799  0.6740
 2129TIP3    H227803   3.926   0.230   4.746 -1.3628 -0.0107  1.4765
 2130TIP3   OH227804   5.283   3.311   4.477 -0.0774 -0.6368 -0.5617
 2130TIP3    H127805   5.343   3.384   4.463 -1.5409  0.1653 -3.3246
 2130TIP3    H227806   5.338   3.233   4.469  1.2966  0.0771  1.2644
 2131TIP3   OH227807   3.266   5.085  16.036 -0.2940 -0.1249 -0.0257
 2131TIP3    H127808   3.341   5.070  16.094  0.9399  0.4537 -1.4127
 2131TIP3    H227809   3.259   5.006  15.984  0.4368  0.4649 -1.0484
 2132TIP3   OH227810   4.244   5.138   5.876  0.3395  0.1539  0.3207
 2132TIP3    H127811   4.299   5.167   5.949  1.2574  0.2235 -0.3746
 2132TIP3    H227812   4.163   5.187   5.887  0.0662 -0.5905  1.8570
 2133TIP3   OH227813   0.448   4.820  12.597 -0.2945 -0.4728  0.2252
 2133TIP3    H127814   0.365   4.781  12.625 -1.1401  1.1357  0.1190
 2133TIP3    H227815   0.514   4.782  12.655 -1.5983  0.7105  2.6588
 2134TIP3   OH227816   3.226   3.774   6.060  0.3990  0.3775 -0.0622
 2134TIP3    H127817   3.271   3.775   6.144 -0.4265  2.3348  0.4259
 2134TIP3    H227818   3.204   3.866   6.044 -0.9682 -0.1666 -1.5962
 2135TIP3   OH227819   5.735   3.940  10.954 -0.9381 -0.3111  0.7922
 2135TIP3    H127820   5.775   3.862  10.992  1.0533 -1.1515 -2.5121
 2135TIP3    H227821   5.711   3.913  10.865  0.1827  2.8637 -0.6323
 2136TIP3   OH227822   5.345   2.243  14.311  0.6566 -0.0898  0.2221
 2136TIP3    H127823   5.310   2.164  14.353  2.5306 -0.9499  0.2818
 2136TIP3    H227824   5.273   2.274  14.255 -0.7666 -0.7542  1.6036
 2137TIP3   OH227825   0.797   4.466  12.822  0.0852 -0.3811 -0.5538
 2137TIP3    H127826   0.814   4.373  12.835  0.0614 -0.3031  0.0646
 2137TIP3    H227827   0.813   4.506  12.908 -0.9841  0.0252 -0.5214
 2138TIP3   OH227828   2.280   3.286   5.150 -0.0856  0.1680 -0.3213
 2138TIP3    H127829   2.319   3.214   5.199 -2.2704 -0.2545  0.9450
 2138TIP3    H227830   2.248   3.347   5.217 -0.8492  0.8725 -1.2952
 2139TIP3   OH227831   0.040   5.913  14.666  0.1797 -0.4530  0.2774
 2139TIP3    H127832   0.087   5.883  14.588  2.3965 -0.0246  1.3863
 2139TIP3    H227833   0.060   5.849  14.733  0.5339  0.5958  1.2034
 2140TIP3   OH227834   0.442   4.181   3.893 -0.0079 -0.1637  0.5191
 2140TIP3    H127835   0.436   4.262   3.943 -2.7637  0.5441 -0.7660
 2140TIP3    H227836   0.353   4.146   3.893  0.5808 -1.8232 -1.1370
 2141TIP3   OH227837   5.782   2.276  14.163  0.1491 -0.1831 -0.3616
 2141TIP3    H127838   5.790   2.331  14.085  2.1134 -0.5182 -0.4309
 2141TIP3    H227839   5.869   2.276  14.202 -0.3339 -1.5390  0.8061
 2142TIP3   OH227840   5.477   2.352  16.515  0.0627  0.1397  0.2488
 2142TIP3    H127841   5.515   2.414  16.578 -0.4033  2.4411 -1.5735
 2142TIP3    H227842   5.401   2.316  16.559  0.3703  0.8532  1.4030
 2143TIP3   OH227843   2.517   2.805   3.077  0.3549 -0.1615 -0.3381
 2143TIP3    H127844   2.468   2.841   3.003  0.8541  0.0732 -0.5629
 2143TIP3    H227845   2.592   2.864   3.087  0.0758  0.0576  0.6237
 2144TIP3   OH227846   0.059   3.869   2.785 -0.0263  0.4586 -0.3030
 2144TIP3    H127847   0.022   3.799   2.839 -1.8480  0.7871 -1.0710
 2144TIP3    H227848   0.079   3.827   2.701  2.2051  0.0998  0.3267
 2145TIP3   OH227849   5.062   3.262  14.543  0.1290 -0.9141 -0.5154
 2145TIP3    H127850   5.044   3.356  14.551  0.1845 -0.8350 -1.2018
 2145TIP3    H227851   5.013   3.236  14.464 -0.7004 -1.6733  0.2352
 2146TIP3   OH227852   2.980   1.836   0.737  0.1120  0.1950 -0.2921
 2146TIP3    H127853   3.029   1.808   0.814 -1.0425  0.9778  0.7793
 2146TIP3    H227854   2.912   1.769   0.726 -0.1788  0.4655 -0.1677
 2147TIP3   OH227855   5.438   2.773   1.658  0.2305  0.1367 -0.3335
 2147TIP3    H127856   5.380   2.843   1.689  0.1054 -0.4001  0.6689
 2147TIP3    H227857   5.517   2.819   1.629  0.0086  0.7227 -0.0289
 2148TIP3   OH227858   0.988   4.907   5.009 -0.0067  0.6588  0.1142
 2148TIP3    H127859   1.016   4.888   4.920  2.0817 -1.3364  1.0976
 2148TIP3    H227860   1.003   5.001   5.019  2.5805  0.4184 -0.7633
 2149TIP3   OH227861   6.056   4.904   3.418  0.3682 -0.3363 -0.0231
 2149TIP3    H127862   6.042   4.977   3.357 -0.1792 -1.0043 -0.7096
 2149TIP3    H227863   6.129   4.933   3.472 -0.2304  0.9908  0.1242
 2150TIP3   OH227864   5.110   4.806  11.606 -0.9815  0.3427 -0.1919
 2150TIP3    H127865   5.056   4.765  11.673 -1.5649  0.4655 -0.5841
 2150TIP3    H227866   5.048   4.838  11.541 -0.4170  0.0120 -0.9113
 2151TIP3   OH227867   2.476   4.043  15.030  0.0365  0.7406 -0.3020
 2151TIP3    H127868   2.461   4.089  14.947  2.5599  0.8253 -0.7856
 2151TIP3    H227869   2.497   4.113  15.092 -0.9768  0.5949  0.2364
 2152TIP3   OH227870   3.825   5.324   5.336 -0.0434  0.3072 -0.4737
 2152TIP3    H127871   3.919   5.326   5.318  0.0733 -2.1934 -0.4066
 2152TIP3    H227872   3.814   5.379   5.414  1.1727  1.4562 -1.0688
 2153TIP3   OH227873   0.211   0.209   3.536  0.1602 -1.0053 -0.4117
 2153TIP3    H127874   0.152   0.187   3.608  1.6784 -1.9096  0.6222
 2153TIP3    H227875   0.247   0.295   3.559 -1.2581 -0.0809 -1.4346
 2154TIP3   OH227876   4.344   4.650  15.252  0.1974 -0.1704  0.2403
 2154TIP3    H127877   4.392   4.713  15.306 -1.0488 -0.4829  1.7932
 2154TIP3    H227878   4.377   4.665  15.163 -0.0725  2.6969  0.5194
 2155TIP3   OH227879   6.040   0.880  15.657 -0.0372 -0.1287  0.3737
 2155TIP3    H127880   6.056   0.920  15.742  1.1075 -1.2371  0.7212
 2155TIP3    H227881   6.121   0.832  15.637 -1.1368 -1.8579 -0.2149
 2156TIP3   OH227882   3.609   5.538   6.860 -0.2727  0.2388 -0.1334
 2156TIP3    H127883   3.634   5.608   6.800  0.7547 -0.1094 -0.1380
 2156TIP3    H227884   3.514   5.540   6.861 -0.3037  3.0054  1.4549
 2157TIP3   OH227885   6.600   1.826   0.108 -0.2691  0.2558  0.3323
 2157TIP3    H127886   6.650   1.859   0.182  1.6178 -0.2061 -0.6741
 2157TIP3    H227887   6.628   1.880   0.034 -0.1969 -0.9343 -0.5363
 2158TIP3   OH227888   2.251   3.270  12.793 -0.0260 -0.0848  0.2723
 2158TIP3    H127889   2.295   3.195  12.833 -0.9722  0.4906  2.5415
 2158TIP3    H227890   2.292   3.346  12.833 -0.0192  0.6105 -0.9907
 2159TIP3   OH227891   5.753   1.717   1.694  0.0935  0.5035  0.0045
 2159TIP3    H127892   5.660   1.699   1.709 -0.0699  0.5631 -0.8698
 2159TIP3    H227893   5.757   1.812   1.683  0.3984  0.6076  0.8916
 2160TIP3   OH227894   5.065   2.238   4.664  0.4240  0.2492 -0.2509
 2160TIP3    H127895   5.146   2.233   4.717 -0.1529 -3.7590  0.5356
 2160TIP3    H227896   4.995   2.245   4.729 -0.0131  2.3898 -0.8865
 2161TIP3   OH227897   4.377   0.335  14.461 -0.2667  0.2741 -0.0687
 2161TIP3    H127898   4.340   0.317  14.548 -0.1693  2.1013  0.3804
 2161TIP3    H227899   4.328   0.410  14.429 -0.0649 -0.1701 -1.4802
 2162TIP3   OH227900   0.174   1.266   5.720  0.2757 -0.0889 -0.0225
 2162TIP3    H127901   0.115   1.312   5.780  0.6792  0.4262 -0.0082
 2162TIP3    H227902   0.256   1.316   5.725  0.2681  0.0577 -1.1173
 2163TIP3   OH227903   3.881   5.003  13.368 -0.1460 -0.0706 -0.7822
 2163TIP3    H127904   3.825   4.959  13.304 -1.4469  0.6277 -0.1719
 2163TIP3    H227905   3.970   4.983  13.340 -0.6727  0.0510 -2.6869
 2164TIP3   OH227906   0.577   3.801  14.933 -0.5977  0.6472  0.3525
 2164TIP3    H127907   0.593   3.825  15.024  0.0530  1.1889  0.0990
 2164TIP3    H227908   0.527   3.874  14.897 -1.9641 -0.1194  0.5878
 2165TIP3   OH227909   6.527   1.220  11.753 -0.4381 -0.0724 -0.2336
 2165TIP3    H127910   6.615   1.257  11.751 -0.5652  0.3069  0.6972
 2165TIP3    H227911   6.487   1.256  11.832 -1.5900  0.1070 -0.8722
 2166TIP3   OH227912   5.243   6.126   0.094 -0.3430 -0.1751 -0.2088
 2166TIP3    H127913   5.231   6.121   0.188 -0.0618  0.5661 -0.1221
 2166TIP3    H227914   5.326   6.173   0.083  1.0254 -2.5496 -0.7995
 2167TIP3   OH227915   5.807   0.504   2.844  0.0913 -0.5311  0.3431
 2167TIP3    H127916   5.785   0.532   2.755  0.2623 -1.5676 -0.0429
 2167TIP3    H227917   5.892   0.543   2.861  0.8517 -1.6837 -0.6164
 2168TIP3   OH227918   0.059   0.721  15.082  0.3876 -0.0619  0.1068
 2168TIP3    H127919   0.106   0.792  15.126  1.1711 -0.3096 -0.3108
 2168TIP3    H227920   0.094   0.720  14.993  0.0023 -0.6322 -0.0496
 2169TIP3   OH227921   6.751   5.722   3.893 -0.1491 -0.2546 -0.1758
 2169TIP3    H127922   6.799   5.802   3.916  0.0584 -0.2202 -0.7198
 2169TIP3    H227923   6.808   5.676   3.832 -0.5425 -0.5133 -0.3525
 2170TIP3   OH227924   6.345   2.453   3.088  0.3246  0.6417  0.0677
 2170TIP3    H127925   6.370   2.413   3.171  2.2004  2.0802  0.2633
 2170TIP3    H227926   6.426   2.490   3.054 -1.2826  4.7567  0.1748
 2171TIP3   OH227927   6.306   1.263   4.122 -0.1316 -0.2495  0.1943
 2171TIP3    H127928   6.352   1.251   4.039 -0.8659 -1.3341 -0.0765
 2171TIP3    H227929   6.350   1.202   4.182 -1.2309 -1.3743 -0.0944
 2172TIP3   OH227930   6.129   4.739   0.300 -0.3527 -0.0696  0.4087
 2172TIP3    H127931   6.105   4.648   0.317  1.2586 -0.3937  1.1236
 2172TIP3    H227932   6.148   4.741   0.206 -0.1248 -0.5301  0.4433
 2173TIP3   OH227933   3.734   6.478  16.795  0.5205 -0.2721  0.0411
 2173TIP3    H127934   3.678   6.554  16.810 -0.7400 -1.0572 -0.5187
 2173TIP3    H227935   3.821   6.507  16.821 -0.3662  0.5148  2.5099
 2174TIP3   OH227936   3.834   5.916  15.546  0.0316  0.4105 -0.6265
 2174TIP3    H127937   3.924   5.888  15.534 -0.6516 -1.4215 -1.9356
 2174TIP3    H227938   3.819   5.979  15.476 -0.1910 -0.6099 -1.5187
 2175TIP3   OH227939   2.197   1.101   2.987 -0.5544  0.7498 -0.3312
 2175TIP3    H127940   2.158   1.177   3.030 -0.4782  0.7021 -0.1748
 2175TIP3    H227941   2.216   1.130   2.898 -0.6884  0.8589 -0.3245
 2176TIP3   OH227942   1.540   5.607  17.215  0.4631 -0.0419 -0.3167
 2176TIP3    H127943   1.470   5.557  17.175  1.4369 -0.0316 -2.1236
 2176TIP3    H227944   1.598   5.542  17.255 -0.6393 -0.0372  1.4108
 2177TIP3   OH227945   2.684   3.411  11.254 -0.4292 -0.3426 -0.0910
 2177TIP3    H127946   2.664   3.323  11.223  1.5647 -0.6809 -0.5449
 2177TIP3    H227947   2.746   3.397  11.325  0.8586  0.7131 -0.9674
 2178TIP3   OH227948   3.834   0.436  14.027  0.1051 -0.3320 -0.5860
 2178TIP3    H127949   3.759   0.380  14.006 -1.7116  1.0531  1.6641
 2178TIP3    H227950   3.868   0.402  14.110  0.4977  0.4215 -0.4234
 2179TIP3   OH227951   1.794   6.283   4.075  0.2781  0.0471 -0.0657
 2179TIP3    H127952   1.824   6.195   4.095  1.9379  0.8433  1.2418
 2179TIP3    H227953   1.708   6.289   4.117  0.7313 -0.5427  1.0018
 2180TIP3   OH227954   0.817   6.215   0.433 -0.1057 -0.0024  0.1766
 2180TIP3    H127955   0.773   6.164   0.501 -1.9194 -0.3287 -1.1630
 2180TIP3    H227956   0.905   6.231   0.468 -0.5254 -1.3166  1.9881
 2181TIP3   OH227957   2.850   1.355   1.938  0.3880  0.1530  0.1628
 2181TIP3    H127958   2.937   1.365   1.899  0.1909  2.0126  0.1309
 2181TIP3    H227959   2.805   1.437   1.917 -2.0031 -1.4378 -1.3310
 2182TIP3   OH227960   1.565   5.240  13.640  0.0407  0.3518 -0.1003
 2182TIP3    H127961   1.618   5.310  13.603  1.6161 -0.5652  0.3155
 2182TIP3    H227962   1.605   5.160  13.608 -1.5466 -0.3957 -0.3265
 2183TIP3   OH227963   6.256   4.168  16.577 -0.4534 -0.3614  0.1624
 2183TIP3    H127964   6.293   4.255  16.592 -0.4578  0.0277 -1.7740
 2183TIP3    H227965   6.231   4.137  16.664  1.0700  0.8704  1.0993
 2184TIP3   OH227966   3.202   4.592  13.710  0.7578 -0.7161  0.3858
 2184TIP3    H127967   3.236   4.628  13.628  0.6262 -1.3108  0.0699
 2184TIP3    H227968   3.274   4.605  13.773  0.6472  0.2558  0.3240
 2185TIP3   OH227969   1.848   5.845  15.175  0.6922 -0.1146 -0.2545
 2185TIP3    H127970   1.939   5.820  15.159  0.0451 -2.9298 -0.0968
 2185TIP3    H227971   1.796   5.779  15.130 -1.2491  0.2123  1.3332
 2186TIP3   OH227972   2.398   6.054  11.652  0.5437 -0.2793  0.4599
 2186TIP3    H127973   2.478   6.037  11.702 -0.1729 -0.2159  1.6862
 2186TIP3    H227974   2.329   6.053  11.718 -0.6187 -1.4498 -0.7270
 2187TIP3   OH227975   5.181   2.240  13.807 -0.3226 -0.2629 -0.0335
 2187TIP3    H127976   5.225   2.282  13.881  0.3501  1.4925 -1.3454
 2187TIP3    H227977   5.113   2.186  13.847 -0.4339  1.1573  1.8522
 2188TIP3   OH227978   1.043   0.777   5.483 -0.7433  0.3982  0.2225
 2188TIP3    H127979   1.003   0.780   5.396  0.7912 -0.1501 -0.5482
 2188TIP3    H227980   1.010   0.696   5.522  0.5923 -0.7769 -0.9542
 2189TIP3   OH227981   0.092   2.089  15.517 -0.2189 -0.1094 -0.2700
 2189TIP3    H127982   0.176   2.043  15.520  0.0729  0.4373  2.3105
 2189TIP3    H227983   0.116   2.182  15.518 -0.7996  0.0589  1.4505
 2190TIP3   OH227984   5.378   5.925   5.593  0.2984  0.0975 -0.1746
 2190TIP3    H127985   5.468   5.930   5.561  0.0865  1.8080 -0.6066
 2190TIP3    H227986   5.384   5.947   5.686  0.4196 -0.7504  0.0289
 2191TIP3   OH227987   3.166   6.187  15.299 -0.2370 -0.0339 -0.2847
 2191TIP3    H127988   3.242   6.173  15.356 -0.3208  3.4120  0.8954
 2191TIP3    H227989   3.203   6.220  15.217 -0.3787 -0.3733 -0.4880
 2192TIP3   OH227990   3.685   0.031  16.933  0.6833  1.2572 -0.2383
 2192TIP3    H127991   3.637  -0.020  16.868  0.2004  1.7455 -0.2704
 2192TIP3    H227992   3.777   0.009  16.918  0.6004  1.5814 -1.2758
 2193TIP3   OH227993   4.060   5.544  13.526  0.8180  0.4473 -0.3092
 2193TIP3    H127994   4.124   5.474  13.538  3.3934  2.8118  0.8445
 2193TIP3    H227995   4.034   5.568  13.615 -2.9192 -1.3197 -0.7300
 2194TIP3   OH227996   0.833   4.629  14.789  0.3106  0.1318  0.5598
 2194TIP3    H127997   0.777   4.673  14.725  0.5862  1.0845  0.9540
 2194TIP3    H227998   0.922   4.638  14.754  0.3934  0.0798  0.7539
 2195TIP3   OH227999   1.963   4.624  16.438  0.4722 -0.0063 -0.7016
 2195TIP3    H128000   1.875   4.589  16.428  0.3932  0.6095 -2.5946
 2195TIP3    H228001   1.957   4.685  16.512 -0.8485  0.4709 -1.1764
 2196TIP3   OH228002   3.695   2.540  13.750  0.0912 -0.2829 -1.1710
 2196TIP3    H128003   3.776   2.524  13.800  1.0894  1.6080 -2.0648
 2196TIP3    H228004   3.625   2.521  13.811  1.2508 -0.1936  0.2427
 2197TIP3   OH228005   1.668   0.001   2.202  0.4403 -0.0323  0.5550
 2197TIP3    H128006   1.645   0.047   2.121 -0.0164 -1.9187 -0.4358
 2197TIP3    H228007   1.757   0.031   2.222  0.2396  1.0973 -0.1721
 2198TIP3   OH228008   5.257   1.274   1.383  0.1959 -0.1528 -0.0128
 2198TIP3    H128009   5.201   1.243   1.312  2.0139  0.0596 -1.6243
 2198TIP3    H228010   5.343   1.236   1.364  0.7005 -0.2667  2.2273
 2199TIP3   OH228011   2.301   1.854   6.862 -0.4487 -0.2087  0.5002
 2199TIP3    H128012   2.240   1.788   6.831 -1.1746  0.8204 -0.3508
 2199TIP3    H228013   2.335   1.820   6.945 -2.2363 -0.7789  1.0324
 2200TIP3   OH228014   1.724   1.122   3.135  0.1851 -0.1515 -0.2382
 2200TIP3    H128015   1.673   1.173   3.072 -1.0451 -1.0130  0.0184
 2200TIP3    H228016   1.749   1.185   3.202  0.9823  0.6472 -1.2411
 2201TIP3   OH228017   6.152   3.897   3.831 -0.0889  0.4105 -1.4795
 2201TIP3    H128018   6.190   3.902   3.918  1.4192 -0.7559 -2.0050
 2201TIP3    H228019   6.109   3.981   3.817 -1.4636  0.1691  0.8387
 2202TIP3   OH228020   2.840   4.303  13.791 -0.3286 -0.0019  0.6257
 2202TIP3    H128021   2.855   4.267  13.878  0.0361 -1.7632 -0.1234
 2202TIP3    H228022   2.925   4.300  13.747 -0.5571  0.6195  0.1084
 2203TIP3   OH228023   2.502   1.464  16.598 -0.2981 -0.2289  0.3850
 2203TIP3    H128024   2.419   1.446  16.642  0.1160 -0.3105  1.1591
 2203TIP3    H228025   2.541   1.377  16.586  0.0023 -0.1417  0.6993
 2204TIP3   OH228026   6.543   5.180  12.308  0.8202 -0.1493  0.1605
 2204TIP3    H128027   6.503   5.145  12.228  0.7886 -1.7716  0.8490
 2204TIP3    H228028   6.536   5.275  12.299 -1.0571 -0.3381 -0.8236
 2205TIP3   OH228029   1.217   6.611  15.320  0.6386  0.2672  0.2228
 2205TIP3    H128030   1.132   6.652  15.309  1.4144  1.5354 -1.6745
 2205TIP3    H228031   1.224   6.593  15.414 -1.2894  1.0121  0.5511
 2206TIP3   OH228032   4.266   5.752  16.565  0.0801  0.8789 -0.1811
 2206TIP3    H128033   4.347   5.704  16.580  0.2276  0.7996 -1.1229
 2206TIP3    H228034   4.217   5.696  16.505 -0.8341  0.7585  0.6558
 2207TIP3   OH228035   5.575   1.470   5.796 -0.2684  0.1244 -0.5188
 2207TIP3    H128036   5.655   1.493   5.843 -0.1369  0.8462 -1.0782
 2207TIP3    H228037   5.606   1.424   5.717 -0.3044  1.6522 -1.4594
 2208TIP3   OH228038   3.317   3.913   0.532  0.2065  0.0239  0.8715
 2208TIP3    H128039   3.345   4.004   0.527  1.6137 -0.3969  0.5310
 2208TIP3    H228040   3.399   3.863   0.532 -0.5051 -1.2119  1.8412
 2209TIP3   OH228041   0.712   4.281  11.370 -0.5086  0.4991 -0.1738
 2209TIP3    H128042   0.736   4.294  11.462 -0.2443  0.6965 -0.2701
 2209TIP3    H228043   0.659   4.202  11.370  0.3747 -0.1085  0.0061
 2210TIP3   OH228044   2.507   0.116   3.456 -0.7195  0.0442 -0.2528
 2210TIP3    H128045   2.507   0.023   3.434 -1.9898  0.2017 -1.0384
 2210TIP3    H228046   2.435   0.125   3.519  0.8562  0.1385  1.6269
 2211TIP3   OH228047   4.208   3.358   0.244  0.0326 -0.5916  0.2625
 2211TIP3    H128048   4.155   3.436   0.261 -1.2773 -1.3305 -0.3431
 2211TIP3    H228049   4.252   3.378   0.161  0.4358 -0.1319  0.5782
 2212TIP3   OH228050   0.514   1.057  12.531  0.3764 -0.2592  0.1863
 2212TIP3    H128051   0.602   1.020  12.540  0.3989  0.0325  1.3267
 2212TIP3    H228052   0.511   1.128  12.595 -0.7259 -0.3227  0.2255
 2213TIP3   OH228053   0.796   1.843  15.137  0.4110 -0.7584  0.3667
 2213TIP3    H128054   0.813   1.853  15.043  1.6127  0.1003  0.6599
 2213TIP3    H228055   0.819   1.928  15.174  3.5491 -2.1876  1.9522
 2214TIP3   OH228056   4.179   1.298  12.339 -0.2588  0.0612  0.4205
 2214TIP3    H128057   4.135   1.369  12.387 -0.2906 -0.2797  0.9003
 2214TIP3    H228058   4.210   1.339  12.258  0.7376  0.9020  1.2070
 2215TIP3   OH228059   3.233   5.454   2.887 -0.1436 -0.1868 -0.2763
 2215TIP3    H128060   3.243   5.522   2.821 -1.5225 -0.6452 -0.9907
 2215TIP3    H228061   3.210   5.502   2.967 -0.4896  0.2318 -0.6198
 2216TIP3   OH228062   3.539   1.857  16.511  0.0774  0.1300  0.0559
 2216TIP3    H128063   3.608   1.813  16.561  0.8144 -0.9419 -1.8003
 2216TIP3    H228064   3.584   1.927  16.465  0.2069 -1.1863 -1.9471
 2217TIP3   OH228065   0.785   1.411  11.928 -0.1245 -0.5738 -0.0976
 2217TIP3    H128066   0.804   1.407  12.022  1.5639  0.1844 -0.3732
 2217TIP3    H228067   0.698   1.452  11.923  0.6984  1.4310  1.0685
 2218TIP3   OH228068   4.088   2.975  11.606  0.7381 -0.5399 -0.6414
 2218TIP3    H128069   4.089   3.063  11.569 -1.0792  0.0698  0.6533
 2218TIP3    H228070   4.172   2.966  11.650 -0.3080  1.8871  2.1135
 2219TIP3   OH228071   0.856   4.557   6.530 -0.8361  0.6722 -0.9316
 2219TIP3    H128072   0.828   4.573   6.620 -0.5347  1.3437 -0.9482
 2219TIP3    H228073   0.849   4.643   6.487  0.5992  0.7451 -1.0933
 2220TIP3   OH228074   0.221   4.064  15.423 -0.3458 -0.0018 -0.0139
 2220TIP3    H128075   0.244   4.155  15.401 -0.0680 -0.4593 -1.7445
 2220TIP3    H228076   0.159   4.073  15.495  1.1859  1.4657  1.2125
 2221TIP3   OH228077   1.007   3.802   5.709 -0.4624  0.0067  0.2801
 2221TIP3    H128078   1.052   3.720   5.728 -2.6826 -1.0936  1.2133
 2221TIP3    H228079   1.011   3.851   5.790  2.0733  1.5313 -0.6725
 2222TIP3   OH228080   6.349   4.475  12.581  0.3041 -0.5460  0.1378
 2222TIP3    H128081   6.377   4.495  12.491 -0.7443 -1.6832 -0.4710
 2222TIP3    H228082   6.274   4.417  12.570  0.4599 -1.0968  1.7645
 2223TIP3   OH228083   3.684   0.783   1.967  0.5362  1.0307 -0.2491
 2223TIP3    H128084   3.624   0.710   1.982  0.5696  0.9048 -0.7040
 2223TIP3    H228085   3.634   0.844   1.913 -0.1888  2.2756  1.7123
 2224TIP3   OH228086   0.348   1.871   4.943  0.0267  0.4983 -0.0594
 2224TIP3    H128087   0.340   1.924   5.022 -1.2867  0.4551 -0.1308
 2224TIP3    H228088   0.376   1.785   4.974 -1.2118  0.2573  0.4798
 2225TIP3   OH228089   4.816   1.538  11.733 -0.1746  0.0100 -0.4006
 2225TIP3    H128090   4.896   1.489  11.716  1.1845  1.0621  2.2945
 2225TIP3    H228091   4.747   1.472  11.734  1.1081 -1.3757 -0.0247
 2226TIP3   OH228092   1.191   1.232  16.064  0.0445  0.2153  0.1953
 2226TIP3    H128093   1.284   1.253  16.072  0.1937 -0.8572  1.6898
 2226TIP3    H228094   1.165   1.202  16.151 -1.5278 -0.2293 -0.3856
 2227TIP3   OH228095   6.627   6.416   0.147  0.1346 -0.2119  0.7367
 2227TIP3    H128096   6.532   6.415   0.133  0.1711  0.6116  0.4053
 2227TIP3    H228097   6.649   6.324   0.165 -0.8007 -0.3339  1.3632
 2228TIP3   OH228098   5.555   3.038   3.642 -0.6367  0.1348  0.7788
 2228TIP3    H128099   5.520   2.949   3.640 -1.1069  0.2944 -1.9239
 2228TIP3    H228100   5.626   3.037   3.577 -2.1513  2.2432 -1.0506
 2229TIP3   OH228101   1.612   1.363  11.178  0.3156  0.2684  0.7568
 2229TIP3    H128102   1.592   1.385  11.269  0.8411 -1.1853  1.2518
 2229TIP3    H228103   1.703   1.333  11.180 -0.0836 -1.0945  0.0155
 2230TIP3   OH228104   6.300   3.157   3.746 -0.3842  0.2250  0.3342
 2230TIP3    H128105   6.271   3.110   3.668  0.9383 -0.6002  0.3270
 2230TIP3    H228106   6.235   3.227   3.756 -2.6646 -1.8055  0.5989
 2231TIP3   OH228107   1.355   0.394  11.577  0.3968 -0.2172  0.4936
 2231TIP3    H128108   1.435   0.445  11.579  0.3313  0.1066 -2.0400
 2231TIP3    H228109   1.299   0.439  11.515 -0.4845 -2.2097 -0.2495
 2232TIP3   OH228110   6.251   5.055  14.623  0.4078  0.0410 -0.9579
 2232TIP3    H128111   6.168   5.056  14.576  0.7484  1.8824 -1.6069
 2232TIP3    H228112   6.228   5.032  14.713 -0.5540 -1.1720 -1.4894
 2233TIP3   OH228113   5.621   6.338   4.676 -0.0555 -0.4824  0.1416
 2233TIP3    H128114   5.538   6.354   4.631 -0.4951 -0.2188  1.0213
 2233TIP3    H228115   5.686   6.329   4.605 -0.8113 -0.5976 -0.5469
 2234TIP3   OH228116   3.157   5.366  12.836  0.1064  0.1827 -0.0932
 2234TIP3    H128117   3.229   5.335  12.890 -1.3711  0.6641  2.2706
 2234TIP3    H228118   3.114   5.286  12.805  0.2638 -0.1025  0.4151
 2235TIP3   OH228119   1.124   0.819  15.673 -0.2803  0.0590  0.1595
 2235TIP3    H128120   1.219   0.835  15.674 -0.2757  0.0195  0.6032
 2235TIP3    H228121   1.113   0.745  15.614 -0.0817  0.3366 -0.2393
 2236TIP3   OH228122   0.107   6.441   6.021  0.8447 -0.1244  0.2242
 2236TIP3    H128123   0.196   6.476   6.024  2.1224 -3.1947  1.5141
 2236TIP3    H228124   0.106   6.385   5.943  0.7133 -1.6044  1.2566
 2237TIP3   OH228125   6.558   0.163  11.314  0.7571 -0.3569  0.1339
 2237TIP3    H128126   6.510   0.239  11.283  0.6094  0.5777  2.4824
 2237TIP3    H228127   6.520   0.143  11.400  1.8690 -2.0791  0.2794
 2238TIP3   OH228128   6.529   0.360  11.941 -0.2721 -0.1517  0.3277
 2238TIP3    H128129   6.479   0.342  11.861  1.6065  1.0245 -1.1948
 2238TIP3    H228130   6.612   0.313  11.928 -0.4905 -1.1850  2.3027
 2239TIP3   OH228131   2.749   5.969  14.864 -0.2311  0.3899  0.0892
 2239TIP3    H128132   2.812   6.031  14.900  0.1153 -0.6435  1.3334
 2239TIP3    H228133   2.686   5.956  14.934  0.5396 -1.7800  0.4585
 2240TIP3   OH228134   4.574   6.229   0.310  0.0368  0.1110  0.0314
 2240TIP3    H128135   4.534   6.144   0.293  0.2995 -0.1893  0.8889
 2240TIP3    H228136   4.517   6.292   0.265 -0.4360 -0.4648 -0.1837
 2241TIP3   OH228137   1.823   2.669  17.099 -0.6492 -0.1289  0.2532
 2241TIP3    H128138   1.784   2.584  17.079 -1.9795  0.7963 -1.3678
 2241TIP3    H228139   1.771   2.702  17.172  0.3485 -0.9855  1.3861
 2242TIP3   OH228140   4.159   1.978  14.917  0.1672  0.0021 -0.1015
 2242TIP3    H128141   4.225   1.910  14.929  0.5034  0.1231 -1.1667
 2242TIP3    H228142   4.077   1.931  14.905 -0.2663 -0.1373  2.7141
 2243TIP3   OH228143   2.264   2.575  17.219  0.2086  0.1879 -1.0395
 2243TIP3    H128144   2.190   2.616  17.264 -0.0589 -0.5254 -0.8191
 2243TIP3    H228145   2.321   2.648  17.195  0.7158  0.5515  1.0947
 2244TIP3   OH228146   4.050   5.324  12.153  0.3112  0.0626  0.5167
 2244TIP3    H128147   4.037   5.277  12.235  3.7258 -0.6253  0.7998
 2244TIP3    H228148   4.065   5.256  12.088 -0.0165  0.6623 -0.2107
 2245TIP3   OH228149   6.572   0.836   5.680  0.5027  0.3594 -0.0965
 2245TIP3    H128150   6.513   0.804   5.748 -0.0397  0.7003 -0.3967
 2245TIP3    H228151   6.515   0.859   5.607  1.0661  0.0975 -0.6361
 2246TIP3   OH228152   3.388   2.495   5.888  0.0641 -0.6744  0.0988
 2246TIP3    H128153   3.316   2.555   5.869  0.1253 -0.3194  0.9676
 2246TIP3    H228154   3.411   2.458   5.802  1.5191  2.1890 -0.8765
 2247TIP3   OH228155   3.641   2.815   4.024  0.0552  1.1602 -0.0515
 2247TIP3    H128156   3.618   2.856   4.107  1.1606  1.2765  0.2186
 2247TIP3    H228157   3.611   2.725   4.033  1.0745  0.8874  0.9066
 2248TIP3   OH228158   2.434   3.616  13.333  0.8591 -0.0570 -0.1706
 2248TIP3    H128159   2.398   3.605  13.420  1.6389  0.2759  0.2074
 2248TIP3    H228160   2.451   3.526  13.302 -1.7368 -0.3447 -1.0291
 2249TIP3   OH228161   1.967   3.894   1.040 -0.4738 -0.3747 -0.1120
 2249TIP3    H128162   1.887   3.936   1.070 -0.4743 -0.6467  0.2682
 2249TIP3    H228163   2.035   3.922   1.102 -0.3683 -0.5126 -0.1641
 2250TIP3   OH228164   1.097   0.617   3.013  0.1264  0.4645 -0.5414
 2250TIP3    H128165   1.161   0.605   3.084 -1.1155  3.1907  1.2260
 2250TIP3    H228166   1.099   0.535   2.964  2.1982 -0.9635  1.7241
 2251TIP3   OH228167   0.445   0.154  14.282  0.2375 -0.6121 -0.0927
 2251TIP3    H128168   0.431   0.062  14.303  0.3089 -0.5336  0.3064
 2251TIP3    H228169   0.411   0.164  14.193 -1.1634 -0.6943  0.4026
 2252TIP3   OH228170   4.193   0.379  15.845 -0.0529  0.4190 -0.2539
 2252TIP3    H128171   4.258   0.398  15.913 -0.3438  1.9456 -0.3621
 2252TIP3    H228172   4.156   0.294  15.870  1.4066 -0.0894  0.2440
 2253TIP3   OH228173   4.941   5.563  13.496 -0.1296 -0.0034  0.2500
 2253TIP3    H128174   4.875   5.625  13.464  0.4195 -0.1354 -1.2104
 2253TIP3    H228175   4.994   5.613  13.557 -1.0441  0.3401  0.7820
 2254TIP3   OH228176   1.305   0.017   1.587 -0.3972  0.1577 -0.3798
 2254TIP3    H128177   1.269  -0.019   1.668 -2.2534 -1.0803 -1.6688
 2254TIP3    H228178   1.232   0.067   1.548  0.7801  1.6268 -0.8067
 2255TIP3   OH228179   5.278   5.305  12.692 -0.1324  0.1073 -0.1571
 2255TIP3    H128180   5.231   5.295  12.775 -1.0525  2.4459 -0.3017
 2255TIP3    H228181   5.298   5.216  12.665 -2.2196 -0.8773  1.2259
 2256TIP3   OH228182   4.165   2.297   4.760  0.1937  0.6759 -0.1681
 2256TIP3    H128183   4.126   2.209   4.758  1.2278  0.1982  0.0448
 2256TIP3    H228184   4.102   2.350   4.810 -0.1129 -0.1048  0.2934
 2257TIP3   OH228185   0.407   2.277   4.574 -0.1072  0.1347  0.1319
 2257TIP3    H128186   0.367   2.207   4.522  1.2886 -0.7192  0.1608
 2257TIP3    H228187   0.399   2.248   4.665  0.0462  0.2368  0.1796
 2258TIP3   OH228188   3.143   1.657   4.810  0.1260 -0.3179 -0.0946
 2258TIP3    H128189   3.058   1.646   4.768  1.7377 -3.0444 -3.1100
 2258TIP3    H228190   3.144   1.593   4.882 -0.7733  0.6546  0.8100
 2259TIP3   OH228191   4.256   5.136   4.415 -0.5461 -0.6151 -0.0524
 2259TIP3    H128192   4.333   5.108   4.464 -0.7111 -0.7980  0.1052
 2259TIP3    H228193   4.259   5.231   4.417  0.1702 -0.6090 -0.8200
 2260TIP3   OH228194   5.183   4.415   2.509 -0.1380  0.2698  0.5662
 2260TIP3    H128195   5.137   4.353   2.452  1.4820  1.3097 -2.0598
 2260TIP3    H228196   5.259   4.367   2.540 -1.5851 -0.6629  2.9342
 2261TIP3   OH228197   0.750   3.405   0.817  0.3059  0.4038  0.1090
 2261TIP3    H128198   0.727   3.313   0.806  0.4806  0.6113 -2.6422
 2261TIP3    H228199   0.703   3.433   0.896 -2.3053 -1.2302 -0.7632
 2262TIP3   OH228200   5.609   1.390  11.861 -0.9738  0.3406  0.4110
 2262TIP3    H128201   5.535   1.448  11.876 -1.0380  0.7118 -1.1896
 2262TIP3    H228202   5.573   1.316  11.812 -0.5179 -0.1083  0.7359
 2263TIP3   OH228203   3.748   1.631  13.700  0.2094 -0.3753  0.7228
 2263TIP3    H128204   3.761   1.536  13.694  0.3930 -0.3942  1.3530
 2263TIP3    H228205   3.793   1.666  13.624  0.0666 -0.8035  0.4353
 2264TIP3   OH228206   3.728   0.215   2.953  0.0964  0.7473  0.0825
 2264TIP3    H128207   3.815   0.192   2.920 -0.0362 -0.2386  0.3917
 2264TIP3    H228208   3.715   0.305   2.923 -0.2566 -0.2340 -3.1255
 2265TIP3   OH228209   2.162   5.132  14.949 -0.5313 -0.2183 -0.0439
 2265TIP3    H128210   2.136   5.216  14.911  0.1020 -0.3729 -0.8548
 2265TIP3    H228211   2.216   5.156  15.025 -1.3431  0.0930  0.4474
 2266TIP3   OH228212   6.573   1.761  15.717  0.1737  0.3562 -0.1191
 2266TIP3    H128213   6.596   1.707  15.794  0.3532  3.0037  1.8279
 2266TIP3    H228214   6.477   1.766  15.720  0.2450  1.5878  0.8259
 2267TIP3   OH228215   6.413   1.301  12.022  0.2439  0.1307 -0.0823
 2267TIP3    H128216   6.355   1.265  12.089 -0.1882 -0.3902 -0.7304
 2267TIP3    H228217   6.501   1.272  12.047  0.0376 -0.3733  0.0506
 2268TIP3   OH228218   5.961   3.159   3.491 -0.0522 -0.3098 -0.1160
 2268TIP3    H128219   5.881   3.108   3.476 -0.5637  0.2810  0.5477
 2268TIP3    H228220   5.929   3.246   3.514  0.7265 -0.5653  2.1385
 2269TIP3   OH228221   3.905   4.180  14.347 -0.1686 -0.1788 -0.0566
 2269TIP3    H128222   3.867   4.142  14.268 -0.2590 -0.4764  0.1299
 2269TIP3    H228223   3.983   4.126  14.364 -0.1826 -0.1501  0.0927
 2270TIP3   OH228224   1.927   4.187   0.674 -0.3880 -0.2137 -1.0042
 2270TIP3    H128225   1.850   4.181   0.731  0.0524 -1.7651 -0.5027
 2270TIP3    H228226   1.999   4.156   0.730  0.2992 -0.3962 -1.9762
 2271TIP3   OH228227   0.777   5.693   1.969 -0.8819  0.0550  0.1383
 2271TIP3    H128228   0.828   5.651   1.900  0.0973  0.8934  0.3264
 2271TIP3    H228229   0.809   5.652   2.050 -0.5033  0.5848  0.2583
 2272TIP3   OH228230   0.776   3.935   4.946 -0.4242  0.5329  0.0100
 2272TIP3    H128231   0.735   3.909   5.029  0.3618 -1.2749 -0.1222
 2272TIP3    H228232   0.867   3.955   4.969 -0.4643  1.0507 -0.2641
 2273TIP3   OH228233   1.642   5.260   3.802  0.0737 -0.9225 -0.6132
 2273TIP3    H128234   1.672   5.345   3.770 -1.2992 -0.4508 -0.7131
 2273TIP3    H228235   1.569   5.238   3.745 -1.5695 -0.7071  1.2995
 2274TIP3   OH228236   6.574   3.532  15.412 -0.0341 -0.2705 -0.2047
 2274TIP3    H128237   6.540   3.443  15.422  1.2841 -0.8732 -0.7726
 2274TIP3    H228238   6.513   3.587  15.460 -0.3671 -1.5999  0.9688
 2275TIP3   OH228239   3.760   4.282  10.495 -0.1554 -0.5608 -0.0766
 2275TIP3    H128240   3.714   4.348  10.443  0.6952  1.7073  1.8566
 2275TIP3    H228241   3.704   4.269  10.572  0.6651 -0.5136  0.5434
 2276TIP3   OH228242   5.175   5.354  12.386 -0.3577 -0.1795 -0.2697
 2276TIP3    H128243   5.080   5.362  12.387 -0.2940  0.6842  0.0350
 2276TIP3    H228244   5.200   5.352  12.478 -0.3237 -4.3014 -0.1880
 2277TIP3   OH228245   1.392   2.727   0.208 -0.1332 -0.5882 -0.2483
 2277TIP3    H128246   1.474   2.678   0.201 -0.3799 -1.0146 -0.1520
 2277TIP3    H228247   1.384   2.746   0.302 -0.3452 -0.8911 -0.2045
 2278TIP3   OH228248   0.571   2.508  16.297 -0.1029  0.3110 -0.4272
 2278TIP3    H128249   0.627   2.476  16.368  0.6379  1.5416 -0.4350
 2278TIP3    H228250   0.570   2.436  16.233  0.3882 -0.2421  0.1759
 2279TIP3   OH228251   4.183   1.570  16.164  0.6174 -0.6946  0.1296
 2279TIP3    H128252   4.262   1.620  16.143  0.8375 -0.7472  0.8052
 2279TIP3    H228253   4.216   1.486  16.195  0.2523 -1.2240 -0.8705
 2280TIP3   OH228254   5.536   3.896   0.688  0.2021 -0.4622 -0.2227
 2280TIP3    H128255   5.531   3.803   0.670  1.7184 -0.5208 -0.5007
 2280TIP3    H228256   5.519   3.904   0.782 -0.8332 -0.9079 -0.3666
 2281TIP3   OH228257   2.768   2.330  12.598  0.0316  0.4538 -0.2592
 2281TIP3    H128258   2.845   2.275  12.590 -1.0180 -0.9177 -1.4104
 2281TIP3    H228259   2.803   2.419  12.604  1.7824 -0.2864  2.0730
 2282TIP3   OH228260   3.667   0.721  12.444  0.3994 -0.5819  0.7384
 2282TIP3    H128261   3.708   0.717  12.530  1.4192  0.7628  0.3503
 2282TIP3    H228262   3.737   0.702  12.382  1.1671  3.6565 -0.0631
 2283TIP3   OH228263   5.085   1.120  14.251 -0.0588 -0.0014  0.1369
 2283TIP3    H128264   5.021   1.191  14.247  0.6207  0.6496  0.7421
 2283TIP3    H228265   5.119   1.123  14.340 -0.5556 -1.5714  0.4101
 2284TIP3   OH228266   1.047   3.152   3.115 -0.6187 -0.0633 -0.2648
 2284TIP3    H128267   1.104   3.120   3.184  0.1486 -0.3465 -1.0193
 2284TIP3    H228268   1.042   3.247   3.130  0.6862  0.0829 -0.6480
 2285TIP3   OH228269   3.181   6.703  16.265 -0.0028  0.3359 -0.7014
 2285TIP3    H128270   3.214   6.681  16.178 -0.9661  1.5705 -1.4101
 2285TIP3    H228271   3.092   6.670  16.267 -0.6459  1.9716 -0.9192
 2286TIP3   OH228272   5.121   6.367   0.126 -0.0825 -0.0303  0.0282
 2286TIP3    H128273   5.134   6.281   0.087  2.5308  0.1124  0.3822
 2286TIP3    H228274   5.089   6.349   0.215  1.6428 -0.7752  0.5516
 2287TIP3   OH228275   5.643   2.997  16.604  0.2795  0.2805 -0.0891
 2287TIP3    H128276   5.668   3.058  16.535  0.3112 -0.1373 -0.4532
 2287TIP3    H228277   5.713   2.932  16.605  0.3792  0.3970  0.4762
 2288TIP3   OH228278   3.389   5.302   0.290 -0.3460 -0.7298 -0.1468
 2288TIP3    H128279   3.468   5.336   0.332  1.4167 -1.1532 -2.8080
 2288TIP3    H228280   3.352   5.378   0.244 -0.3527 -0.9359 -0.4890
 2289TIP3   OH228281   2.248   2.209   5.942  0.2717  0.7865  0.1404
 2289TIP3    H128282   2.338   2.240   5.950  0.0765  1.3920  0.0653
 2289TIP3    H228283   2.209   2.266   5.875  0.3233 -0.5906 -1.1136
 2290TIP3   OH228284   1.297   0.398   5.326 -0.2742 -0.3149 -0.3305
 2290TIP3    H128285   1.306   0.479   5.377  0.3894 -0.3702 -0.3568
 2290TIP3    H228286   1.238   0.421   5.254 -0.8966 -0.1271  0.2214
 2291TIP3   OH228287   4.422   3.358  14.079 -0.3752  0.9891  0.0023
 2291TIP3    H128288   4.477   3.369  14.001 -0.8619  2.4644 -0.1564
 2291TIP3    H228289   4.338   3.328  14.044  0.2987 -1.4291  0.2588
 2292TIP3   OH228290   6.467   0.096  10.894  0.2669 -0.4644 -0.2178
 2292TIP3    H128291   6.539   0.088  10.832 -0.9577  0.0416 -1.7711
 2292TIP3    H228292   6.410   0.163  10.856 -0.2362  0.3163  1.7747
 2293TIP3   OH228293   1.089   3.167  14.712  0.0532  0.1824 -0.3869
 2293TIP3    H128294   1.038   3.152  14.633  1.5140  1.1128 -1.5655
 2293TIP3    H228295   1.091   3.263  14.722 -0.2402  0.0787  0.8818
 2294TIP3   OH228296   1.447   6.128   3.513  0.1895 -0.3737 -0.2773
 2294TIP3    H128297   1.485   6.040   3.520 -0.4432 -0.5038  2.3076
 2294TIP3    H228298   1.480   6.175   3.589 -0.3049  1.3397 -1.0708
 2295TIP3   OH228299   2.016   2.395   1.771 -0.2452  0.3426 -0.0876
 2295TIP3    H128300   1.992   2.486   1.786  0.2235  0.3538  0.6315
 2295TIP3    H228301   1.944   2.345   1.809  0.7331  0.3789  1.9832
 2296TIP3   OH228302   1.189   1.706   3.290  0.0133 -0.3335 -0.3964
 2296TIP3    H128303   1.259   1.711   3.356  0.5919  0.1492 -1.0411
 2296TIP3    H228304   1.193   1.790   3.244 -1.5013  0.0075  0.0567
 2297TIP3   OH228305   5.303   4.308  13.358 -0.1281 -0.0452  0.0166
 2297TIP3    H128306   5.225   4.364  13.356 -1.2300 -1.4615  1.2221
 2297TIP3    H228307   5.315   4.281  13.267  0.2660  1.8688 -0.5483
 2298TIP3   OH228308   0.832   1.112   4.644  0.0847  0.4665 -0.2908
 2298TIP3    H128309   0.771   1.132   4.715  1.0960 -0.4649  0.8839
 2298TIP3    H228310   0.782   1.058   4.584 -0.6342  0.8150 -0.0121
 2299TIP3   OH228311   1.746   3.516  15.441 -0.3220  0.3351 -0.0232
 2299TIP3    H128312   1.733   3.609  15.425  0.3129  0.5791  0.8090
 2299TIP3    H228313   1.744   3.476  15.354 -2.4323  0.8536 -0.2758
 2300TIP3   OH228314   5.054   6.166   4.280 -0.2940  0.2427 -0.1662
 2300TIP3    H128315   5.082   6.152   4.190 -0.4521 -0.6258 -0.0876
 2300TIP3    H228316   5.130   6.205   4.323 -0.3406  1.0042 -0.7591
 2301TIP3   OH228317   0.383   6.634  17.263 -0.0826  0.2808  0.2524
 2301TIP3    H128318   0.331   6.560  17.294 -3.8048  1.7850 -1.7565
 2301TIP3    H228319   0.367   6.703  17.328  0.5149  0.3847  0.2975
 2302TIP3   OH228320   6.354   4.053  15.032 -0.6658 -0.6057  0.0757
 2302TIP3    H128321   6.436   4.004  15.042 -1.0454 -0.9453  1.7922
 2302TIP3    H228322   6.377   4.143  15.052 -0.3154 -0.3121 -1.4806
 2303TIP3   OH228323   1.324   2.369  15.476 -0.6165 -0.6356 -0.3003
 2303TIP3    H128324   1.329   2.432  15.548 -0.8324 -0.3411 -0.5357
 2303TIP3    H228325   1.240   2.389  15.434  0.1708  0.1996 -1.5449
 2304TIP3   OH228326   3.621   2.736  12.750  0.8412 -0.4047  0.1490
 2304TIP3    H128327   3.698   2.686  12.778  1.4851 -0.7277 -2.0590
 2304TIP3    H228328   3.657   2.813  12.706 -0.1387  1.5163  2.4742
 2305TIP3   OH228329   3.536   4.191  14.320 -0.1680 -0.3428 -0.1354
 2305TIP3    H128330   3.596   4.172  14.248 -0.1087 -0.2889 -0.1015
 2305TIP3    H228331   3.471   4.249  14.282 -1.2073 -1.7848 -0.6281
 2306TIP3   OH228332   5.346   3.211  14.514 -0.2495 -0.2154 -0.0396
 2306TIP3    H128333   5.347   3.184  14.422  2.5911 -0.7068  0.0368
 2306TIP3    H228334   5.254   3.231  14.533 -0.9985 -0.7019 -2.7871
 2307TIP3   OH228335   3.644   1.449  16.500  0.3731 -0.2190 -0.1089
 2307TIP3    H128336   3.735   1.419  16.506  0.4513 -0.0488 -0.4165
 2307TIP3    H228337   3.646   1.521  16.436  0.0915  0.0567  0.1889
 2308TIP3   OH228338   0.091   0.660  14.450 -1.2024  0.1353  0.0879
 2308TIP3    H128339   0.098   0.574  14.491  0.4165  0.4982  0.6710
 2308TIP3    H228340   0.164   0.710  14.488 -2.4485  1.9484  0.1890
 2309TIP3   OH228341   1.473   5.831   0.001  0.8575  0.7290  0.4205
 2309TIP3    H128342   1.514   5.757  -0.042  0.9055  0.5937  0.6934
 2309TIP3    H228343   1.388   5.840  -0.042  1.1517  0.9756 -0.1074
 2310TIP3   OH228344   4.988   0.953   2.031 -0.4378 -0.3434  0.0348
 2310TIP3    H128345   4.978   0.858   2.034 -0.1304 -0.3587  0.8859
 2310TIP3    H228346   5.082   0.968   2.029 -0.4875 -0.0768 -1.7838
 2311TIP3   OH228347   6.054   4.028  16.427 -0.4453 -0.7983 -0.0086
 2311TIP3    H128348   6.132   4.078  16.453 -0.7461 -0.2396 -0.1712
 2311TIP3    H228349   5.984   4.063  16.483 -1.1662  0.5977 -1.7016
 2312TIP3   OH228350   3.374   2.193  15.931 -0.1921 -0.0555 -0.2661
 2312TIP3    H128351   3.351   2.122  15.990  0.0274 -0.6750 -0.9105
 2312TIP3    H228352   3.293   2.214  15.885 -0.2446  0.0783 -0.1138
 2313TIP3   OH228353   6.353   3.869   1.585 -0.0715 -0.1423 -0.5896
 2313TIP3    H128354   6.416   3.800   1.604 -1.0019 -0.6906  0.6687
 2313TIP3    H228355   6.318   3.894   1.671  0.3346  2.0110 -0.9851
 2314TIP3   OH228356   6.601   6.729   0.601  0.6272  0.2175  0.1247
 2314TIP3    H128357   6.598   6.751   0.694 -1.1683 -0.6822  0.3192
 2314TIP3    H228358   6.689   6.755   0.573  1.1603  0.6173  2.0348
 2315TIP3   OH228359   0.757   3.409  14.630 -0.2415  0.1659  0.1698
 2315TIP3    H128360   0.743   3.501  14.609  1.5292  0.5424  0.4853
 2315TIP3    H228361   0.811   3.410  14.709  2.5274 -1.0224 -1.5508
 2316TIP3   OH228362   0.875   5.830   3.757 -0.0849  0.0781  0.0580
 2316TIP3    H128363   0.896   5.834   3.850  0.2685  0.7314 -0.0455
 2316TIP3    H228364   0.779   5.824   3.754 -0.0287 -1.7500  0.5008
 2317TIP3   OH228365   3.951   3.190   3.532 -0.0789  0.4121 -0.2285
 2317TIP3    H128366   3.971   3.185   3.438  0.2446  1.8885 -0.2521
 2317TIP3    H228367   4.034   3.171   3.575 -0.0445  0.5283 -0.2449
 2318TIP3   OH228368   2.143   3.522  16.459 -0.5225  0.8204 -0.4732
 2318TIP3    H128369   2.195   3.572  16.396  1.5771 -0.2053  0.3513
 2318TIP3    H228370   2.164   3.431  16.439 -1.3875  0.4062  0.4428
 2319TIP3   OH228371   4.894   4.079  13.904  0.3307 -0.7286 -0.3360
 2319TIP3    H128372   4.923   4.051  13.991 -0.0102 -1.5384 -0.4680
 2319TIP3    H228373   4.942   4.023  13.844  0.2553 -0.4569 -0.6510
 2320TIP3   OH228374   5.174   0.114  16.540  0.0966 -0.1834 -0.4399
 2320TIP3    H128375   5.197   0.194  16.493 -0.9844  0.5073  0.1584
 2320TIP3    H228376   5.123   0.063  16.476  0.2216 -0.0914 -0.6125
 2321TIP3   OH228377   0.680   6.468  16.620  0.0072  0.4132 -0.2107
 2321TIP3    H128378   0.754   6.433  16.671  0.3518  0.8160 -0.4252
 2321TIP3    H228379   0.672   6.559  16.649  0.0810  0.5892 -0.7255
 2322TIP3   OH228380   5.021   1.227   3.570 -0.5702  0.1135 -0.2931
 2322TIP3    H128381   4.997   1.244   3.480  1.5945 -0.4776 -1.0571
 2322TIP3    H228382   5.117   1.228   3.570 -0.4829 -1.1265  1.7385
 2323TIP3   OH228383   6.772   4.875  12.585 -0.1640  0.1508  0.3523
 2323TIP3    H128384   6.773   4.920  12.500  0.4729  0.4744  0.5228
 2323TIP3    H228385   6.847   4.911  12.632  0.2852 -0.9855  0.5441
 2324TIP3   OH228386   1.427   0.868  11.990 -0.0333  0.2796  0.2260
 2324TIP3    H128387   1.394   0.921  11.918  0.0389 -0.4621 -0.3588
 2324TIP3    H228388   1.354   0.863  12.051  0.1704  1.6128  0.6320
 2325TIP3   OH228389   4.965   1.123   4.777  0.3095 -0.4055  0.0633
 2325TIP3    H128390   4.906   1.059   4.817 -1.0422  1.2183  0.8148
 2325TIP3    H228391   5.041   1.127   4.835 -0.1049 -0.5395  0.6161
 2326TIP3   OH228392   4.003   2.674  11.677  0.2736  0.0678 -0.3148
 2326TIP3    H128393   4.080   2.625  11.647  0.8446  0.2294  0.8220
 2326TIP3    H228394   3.928   2.620  11.651  0.8916 -1.4049  0.8791
 2327TIP3   OH228395   2.925   4.361  15.830 -0.3968  0.5282 -0.6483
 2327TIP3    H128396   2.916   4.392  15.740  0.6396 -0.7272 -1.2167
 2327TIP3    H228397   3.018   4.371  15.850 -0.4465 -0.1019 -0.0501
 2328TIP3   OH228398   0.311   4.501  11.296  0.1800  1.0235  0.7311
 2328TIP3    H128399   0.237   4.441  11.285  2.4112 -2.1868  1.8327
 2328TIP3    H228400   0.320   4.511  11.391  2.5590 -0.6889  0.7628
 2329TIP3   OH228401   6.163   3.532  14.391 -0.2600  0.2990  0.0499
 2329TIP3    H128402   6.238   3.569  14.437  0.0875  0.2467 -0.4624
 2329TIP3    H228403   6.146   3.449  14.435  0.8845 -0.3655 -0.7221
 2330TIP3   OH228404   5.061   2.011  15.184 -0.3801  0.3084  0.2494
 2330TIP3    H128405   4.980   1.970  15.214 -0.8207 -0.6084 -1.9525
 2330TIP3    H228406   5.075   2.084  15.244 -1.1137 -1.3518  2.5873
 2331TIP3   OH228407   3.733   2.140   5.048 -0.6021  0.4957 -0.2773
 2331TIP3    H128408   3.755   2.214   4.992  1.1583 -0.2398 -0.6399
 2331TIP3    H228409   3.667   2.091   4.998  0.6979  0.0296 -1.6032
 2332TIP3   OH228410   3.043   4.474   2.620 -0.5910  0.2974 -0.7093
 2332TIP3    H128411   2.960   4.475   2.669  0.6338 -0.5277  1.5014
 2332TIP3    H228412   3.088   4.553   2.650  1.3438 -1.6039  1.7701
 2333TIP3   OH228413   2.073   6.524   2.625 -0.0539 -0.1152 -0.4307
 2333TIP3    H128414   1.983   6.515   2.593 -0.7587  1.7675  0.7933
 2333TIP3    H228415   2.106   6.602   2.581  1.3392 -1.2536 -1.5039
 2334TIP3   OH228416   6.168   5.519  11.949 -1.0296 -0.1106  0.1087
 2334TIP3    H128417   6.199   5.488  11.864 -1.1954  0.4475 -0.1567
 2334TIP3    H228418   6.241   5.500  12.009 -0.3999  0.6462 -0.4022
 2335TIP3   OH228419   1.812   3.054   0.761  0.1187 -0.1992 -0.1363
 2335TIP3    H128420   1.784   3.073   0.672  0.4684 -0.6329 -0.3463
 2335TIP3    H228421   1.799   3.136   0.809  1.2558  0.4658 -0.9137
 2336TIP3   OH228422   1.825   3.203   3.852 -0.5280  0.2139 -0.2992
 2336TIP3    H128423   1.775   3.193   3.772 -0.5460 -0.2004 -0.2392
 2336TIP3    H228424   1.915   3.218   3.823 -0.5271  0.0191 -0.4014
 2337TIP3   OH228425   6.079   1.572  13.345 -0.0238 -0.6136 -0.1471
 2337TIP3    H128426   6.174   1.560  13.346  0.2330  0.8538 -2.1237
 2337TIP3    H228427   6.044   1.483  13.330  1.2220 -0.7769 -2.4984
 2338TIP3   OH228428   5.553   4.936   2.430 -0.0756  0.6422  0.0534
 2338TIP3    H128429   5.503   5.002   2.383  0.0344  1.4722  1.0506
 2338TIP3    H228430   5.623   4.985   2.474  0.7034 -0.2939 -0.0944
 2339TIP3   OH228431   6.703   1.108  15.279  0.2261  0.3149 -0.6408
 2339TIP3    H128432   6.624   1.157  15.302 -0.2142 -0.3648 -0.7068
 2339TIP3    H228433   6.764   1.125  15.352 -0.9037 -1.2660  0.7526
 2340TIP3   OH228434   2.739   1.515   0.215  0.2876 -0.4431 -0.3368
 2340TIP3    H128435   2.807   1.554   0.270 -1.5703  0.2920  1.5610
 2340TIP3    H228436   2.657   1.547   0.251 -1.1693 -2.4406 -1.6346
 2341TIP3   OH228437   0.392   4.655  10.898 -0.5591 -0.5559  0.2684
 2341TIP3    H128438   0.420   4.564  10.894 -0.6502 -0.5904  0.4224
 2341TIP3    H228439   0.296   4.651  10.895 -0.5603 -0.4581  0.1351
 2342TIP3   OH228440   0.448   2.185  12.557  0.4755  0.1868 -0.3994
 2342TIP3    H128441   0.425   2.226  12.640 -0.8024 -0.1544 -0.5592
 2342TIP3    H228442   0.364   2.169  12.515  1.0131 -1.3617 -0.9325
 2343TIP3   OH228443   1.296   4.762   4.294 -0.2974 -0.2377 -0.8069
 2343TIP3    H128444   1.238   4.691   4.321  0.2577 -1.2418 -2.1545
 2343TIP3    H228445   1.364   4.720   4.243  0.6807  1.1439 -0.7000
 2344TIP3   OH228446   6.276   1.244   0.513 -0.1940 -0.3064 -0.3392
 2344TIP3    H128447   6.241   1.332   0.529 -1.5253 -0.6640 -1.1158
 2344TIP3    H228448   6.352   1.238   0.571 -1.7999  0.2743  1.9810
 2345TIP3   OH228449   5.160   0.250  11.295  0.6842 -0.3541 -0.5336
 2345TIP3    H128450   5.100   0.197  11.242  0.2157 -1.1768  0.7510
 2345TIP3    H228451   5.116   0.257  11.380  1.1881  1.3169 -0.3672
 2346TIP3   OH228452   2.658   5.254   3.183  0.0980  0.3069 -0.7680
 2346TIP3    H128453   2.737   5.213   3.147 -0.7790  0.7706 -3.5034
 2346TIP3    H228454   2.595   5.182   3.192 -0.4847  0.4941 -2.7479
 2347TIP3   OH228455   4.986   1.316   5.203  0.1391  0.0863 -0.5718
 2347TIP3    H128456   5.061   1.361   5.242  0.3836 -1.4517  0.8218
 2347TIP3    H228457   5.026   1.246   5.150 -0.2901  0.2196 -1.0806
 2348TIP3   OH228458   5.090   2.747  10.659  0.5442 -0.4086 -0.3171
 2348TIP3    H128459   5.099   2.691  10.736  1.0060  2.2596  1.6967
 2348TIP3    H228460   5.180   2.764  10.632  0.5482  1.2535  0.6183
 2349TIP3   OH228461   1.978   5.098   5.163 -0.0204 -0.0972  0.0236
 2349TIP3    H128462   1.994   5.172   5.222  0.3723 -0.4593  0.3839
 2349TIP3    H228463   1.892   5.116   5.125  0.9731  1.6132 -1.5366
 2350TIP3   OH228464   4.711   6.365  16.555  0.4502  0.3199 -0.2901
 2350TIP3    H128465   4.626   6.327  16.578  0.8900 -0.1981  0.5047
 2350TIP3    H228466   4.698   6.459  16.563  0.1881  0.2094  0.6595
 2351TIP3   OH228467   0.496   5.939  12.833 -0.1834 -0.0996 -0.5591
 2351TIP3    H128468   0.473   5.849  12.856 -1.2922  0.3357  0.1658
 2351TIP3    H228469   0.508   5.982  12.917  1.8956  0.0879 -0.9073
 2352TIP3   OH228470   0.170   6.284  14.732 -0.6202  0.2272  0.1867
 2352TIP3    H128471   0.237   6.294  14.664 -1.9502  1.7877 -0.9828
 2352TIP3    H228472   0.108   6.354  14.714 -2.0820 -0.5852  1.8161
 2353TIP3   OH228473   4.283   4.420  15.804  0.0886 -0.2104 -0.5484
 2353TIP3    H128474   4.372   4.452  15.792  0.2315 -0.5909 -0.5212
 2353TIP3    H228475   4.230   4.499  15.817  0.8735 -0.0797  2.5721
 2354TIP3   OH228476   5.182   2.766   2.955  0.5551  0.2013 -0.1621
 2354TIP3    H128477   5.142   2.736   3.036  0.7003 -0.9721 -0.5106
 2354TIP3    H228478   5.131   2.843   2.931  0.9483  0.9858  1.3887
 2355TIP3   OH228479   5.152   5.311  14.251 -0.6918 -0.3712  0.2007
 2355TIP3    H128480   5.134   5.319  14.157 -0.0958  0.9195  0.1806
 2355TIP3    H228481   5.244   5.288  14.256 -0.6798 -0.2663  0.4711
 2356TIP3   OH228482   5.960   2.916  15.850  0.2206  0.3424 -0.0539
 2356TIP3    H128483   5.914   2.934  15.932  1.3477 -0.1292  0.7048
 2356TIP3    H228484   5.905   2.956  15.783 -0.8544  0.5195  0.8976
 2357TIP3   OH228485   1.533   5.978  16.383  0.4107 -0.2254  0.2834
 2357TIP3    H128486   1.612   5.931  16.410 -0.2749 -1.9774 -0.6151
 2357TIP3    H228487   1.461   5.933  16.428 -0.2163  0.4170 -0.0521
 2358TIP3   OH228488   4.778   2.740   4.952 -0.0726  0.3028 -0.2225
 2358TIP3    H128489   4.766   2.660   4.901  1.2640 -0.2890  0.3430
 2358TIP3    H228490   4.857   2.780   4.916 -0.0195  0.7042  0.3211
 2359TIP3   OH228491   6.170   4.612  16.061 -0.1010  0.7750 -0.3063
 2359TIP3    H128492   6.186   4.519  16.075  0.1806  0.9641  0.6485
 2359TIP3    H228493   6.176   4.623  15.966 -2.5573 -0.6165 -0.7258
 2360TIP3   OH228494   3.451   0.438   0.114  0.4752 -0.0242 -0.5410
 2360TIP3    H128495   3.462   0.533   0.118  0.2896  0.0138 -0.9301
 2360TIP3    H228496   3.369   0.422   0.161  1.3152 -0.1518  0.9293
 2361TIP3   OH228497   0.278   3.158   2.440  0.2448  0.3287  0.4489
 2361TIP3    H128498   0.369   3.149   2.467  0.6767  1.5501 -0.5011
 2361TIP3    H228499   0.259   3.076   2.393  0.9814  0.2423  0.2957
 2362TIP3   OH228500   5.884   3.150   3.830 -0.1355 -0.6027  0.2274
 2362TIP3    H128501   5.809   3.207   3.817  0.9248  0.6046 -1.0011
 2362TIP3    H228502   5.882   3.127   3.923 -1.1905  0.6080  0.5288
 2363TIP3   OH228503   0.572   3.036  11.199  0.0288 -0.8077  0.1953
 2363TIP3    H128504   0.580   3.037  11.104  1.8278 -0.4954  0.3088
 2363TIP3    H228505   0.489   3.082  11.217 -0.4507 -1.0878 -1.2056
 2364TIP3   OH228506   6.306   2.542   2.459  0.4895 -0.2336 -0.4066
 2364TIP3    H128507   6.323   2.614   2.521 -1.9336 -1.1291  1.4261
 2364TIP3    H228508   6.369   2.474   2.485 -0.6636 -0.7005  1.3467
 2365TIP3   OH228509   6.622   6.150   0.139 -0.0136 -0.5870  0.0894
 2365TIP3    H128510   6.544   6.121   0.187 -0.8146  0.5914 -0.4280
 2365TIP3    H228511   6.634   6.084   0.071 -1.2905 -0.2102 -0.5467
 2366TIP3   OH228512   0.582   0.958  10.450 -0.1226  0.2583  0.3271
 2366TIP3    H128513   0.491   0.987  10.457  0.0436  0.7533  0.4621
 2366TIP3    H228514   0.613   0.998  10.369  0.6323  1.9532  1.3877
 2367TIP3   OH228515   6.766   3.211  15.419  0.1761 -0.0449 -0.2090
 2367TIP3    H128516   6.771   3.274  15.347 -0.5400 -1.7146 -1.7952
 2367TIP3    H228517   6.724   3.259  15.490 -0.5867  1.1909 -1.4467
 2368TIP3   OH228518   6.036   5.237   6.162  0.3623 -0.1368  0.6034
 2368TIP3    H128519   6.123   5.275   6.173  1.1710 -1.9530  0.9216
 2368TIP3    H228520   6.052   5.143   6.148 -1.6167 -0.9363  2.9811
 2369TIP3   OH228521   6.088   3.774  16.823  0.1474  0.1658 -0.2208
 2369TIP3    H128522   6.157   3.784  16.756  1.2441 -2.5534  0.3559
 2369TIP3    H228523   6.007   3.795  16.777  0.6644 -3.0627 -3.0029
 2370TIP3   OH228524   0.898   5.337  13.457 -0.0693 -0.4183 -0.3535
 2370TIP3    H128525   0.807   5.358  13.435 -0.1839  0.6908  1.0562
 2370TIP3    H228526   0.892   5.267  13.521 -0.1369  1.5855  1.9802
 2371TIP3   OH228527   5.785   2.208  14.474 -0.4409 -0.0072 -0.4138
 2371TIP3    H128528   5.693   2.199  14.449  0.1088  0.3156 -2.7542
 2371TIP3    H228529   5.807   2.299  14.453 -0.0821  0.5709  2.1226
 2372TIP3   OH228530   2.689   2.662   4.281 -0.1097 -0.1116  0.4982
 2372TIP3    H128531   2.756   2.628   4.221 -0.2917 -2.1982  1.3914
 2372TIP3    H228532   2.733   2.732   4.328  2.2454 -2.6730  2.4772
 2373TIP3   OH228533   6.670   1.902  13.042  0.1162 -0.4713 -0.2325
 2373TIP3    H128534   6.684   1.979  13.097  1.5109 -1.5085  0.9409
 2373TIP3    H228535   6.597   1.856  13.084  0.5455 -0.7647  0.2029
 2374TIP3   OH228536   0.390   6.685  13.205 -0.1938  0.3594  0.0657
 2374TIP3    H128537   0.465   6.630  13.224 -1.7189 -1.7387  0.3755
 2374TIP3    H228538   0.369   6.666  13.113  1.5243  3.4200 -1.1190
 2375TIP3   OH228539   5.331   1.193  12.537  0.1565  0.5699  0.4344
 2375TIP3    H128540   5.282   1.160  12.462 -0.1039  0.7958  0.5047
 2375TIP3    H228541   5.264   1.224  12.598  0.3185 -0.5214  1.1997
 2376TIP3   OH228542   1.127   6.129  17.031  0.1758 -0.2971  0.4098
 2376TIP3    H128543   1.056   6.176  16.987 -1.8269 -2.8188  0.6869
 2376TIP3    H228544   1.138   6.049  16.980  0.7472 -1.3257  2.0688
 2377TIP3   OH228545   0.062   3.649   4.571  0.1463 -0.1508 -0.5226
 2377TIP3    H128546   0.005   3.723   4.590  1.7589  1.7648 -2.5922
 2377TIP3    H228547   0.121   3.644   4.646 -1.8290 -1.3791  1.0594
 2378TIP3   OH228548   3.565   0.015  15.139 -0.3366 -0.5981  0.8921
 2378TIP3    H128549   3.491   0.073  15.159  0.4122 -0.3125  3.0707
 2378TIP3    H228550   3.527  -0.053  15.083 -1.8903  0.3672  0.6871
 2379TIP3   OH228551   5.086   4.709  16.599 -0.7182 -0.5887  0.0428
 2379TIP3    H128552   5.154   4.657  16.641 -1.7073 -0.3219  2.0883
 2379TIP3    H228553   5.114   4.800  16.613 -1.3314 -0.4857  0.6403
 2380TIP3   OH228554   0.946   1.079   6.098 -0.2862  0.5457 -0.5561
 2380TIP3    H128555   0.952   1.158   6.044  0.4138  1.0884  0.3039
 2380TIP3    H228556   1.037   1.057   6.119 -0.5202 -0.0427 -0.1389
 2381TIP3   OH228557   0.889   6.117  13.772 -0.4725  0.1712  0.7618
 2381TIP3    H128558   0.906   6.163  13.690  0.2639  0.9894  1.3580
 2381TIP3    H228559   0.974   6.109  13.814 -0.9078  0.2339  1.6904
 2382TIP3   OH228560   3.067   2.366  16.831  0.2469  0.0440  0.2256
 2382TIP3    H128561   3.127   2.424  16.878 -0.9656  0.6763  1.0215
 2382TIP3    H228562   3.110   2.351  16.747  0.4342  2.3750 -0.1564
 2383TIP3   OH228563   2.790   0.902   5.224 -0.5456 -0.4367  0.1884
 2383TIP3    H128564   2.800   0.984   5.272  1.1007 -0.8956  0.7089
 2383TIP3    H228565   2.734   0.848   5.280 -1.0152  0.0684  0.2055
 2384TIP3   OH228566   2.902   1.418   6.015 -0.2871 -0.2874 -0.0375
 2384TIP3    H128567   2.848   1.344   6.043  0.4196 -0.7962  0.0115
 2384TIP3    H228568   2.986   1.404   6.059 -0.6941  1.5397  1.4613
 2385TIP3   OH228569   5.380   5.661   1.934 -0.4011 -0.2305  0.5972
 2385TIP3    H128570   5.441   5.591   1.911 -0.5482 -0.0743 -0.3080
 2385TIP3    H228571   5.391   5.672   2.029  0.8808 -0.2914  0.4750
 2386TIP3   OH228572   1.010   3.216  11.281 -0.3447 -1.0480  0.6277
 2386TIP3    H128573   0.997   3.212  11.186  1.1717 -2.7778  0.4222
 2386TIP3    H228574   1.016   3.124  11.308  0.2242 -0.5753  2.2464
 2387TIP3   OH228575   3.943   3.047   3.083  0.2847  0.8107  0.4203
 2387TIP3    H128576   3.937   3.000   3.166  1.5812  2.0118  1.2302
 2387TIP3    H228577   3.866   3.104   3.083 -1.9622 -1.9348 -1.0905
 2388TIP3   OH228578   5.630   6.030   0.868  0.4523 -0.7781  0.1660
 2388TIP3    H128579   5.606   5.938   0.870 -0.7213 -0.5042 -0.6313
 2388TIP3    H228580   5.555   6.075   0.829  0.7336  0.6082  1.1232
 2389TIP3   OH228581   5.771   1.198  15.125  0.8156 -0.1362 -0.0455
 2389TIP3    H128582   5.780   1.179  15.218 -0.8337  2.6395  0.8122
 2389TIP3    H228583   5.691   1.153  15.099 -0.4958  1.5714  0.7854
 2390TIP3   OH228584   5.927   4.667  10.517 -0.2893 -0.6111  0.5854
 2390TIP3    H128585   5.984   4.744  10.520 -0.6275 -0.3759  1.1309
 2390TIP3    H228586   5.987   4.593  10.510  0.0776 -0.3500  0.9050
 2391TIP3   OH228587   5.143   4.831   2.281  0.0605  0.2712  0.1882
 2391TIP3    H128588   5.155   4.861   2.191  2.3905 -0.4849  0.1731
 2391TIP3    H228589   5.073   4.886   2.316 -0.3350  1.1273 -1.8306
 2392TIP3   OH228590   4.133   4.304  12.730 -0.7101  0.5101  0.6696
 2392TIP3    H128591   4.200   4.350  12.679 -0.7882  1.6370  1.5496
 2392TIP3    H228592   4.060   4.295  12.669 -0.6129  1.3845  0.4047
 2393TIP3   OH228593   4.726   3.043  15.352  0.8059 -0.2317  0.6319
 2393TIP3    H128594   4.729   3.014  15.443  0.4242 -1.3294  0.3052
 2393TIP3    H228595   4.765   2.971  15.302 -0.9524 -0.5927 -0.2817
 2394TIP3   OH228596   3.562   2.302   4.526 -0.6596  0.3476 -0.3154
 2394TIP3    H128597   3.584   2.280   4.616  0.9543 -1.1408 -1.0019
 2394TIP3    H228598   3.636   2.269   4.475 -0.9838  2.1869 -2.0855
 2395TIP3   OH228599   0.392   2.874  11.543 -0.4086 -0.6717 -0.1471
 2395TIP3    H128600   0.302   2.876  11.510 -0.1104 -2.0284 -1.1189
 2395TIP3    H228601   0.395   2.943  11.609 -2.3975 -1.1461  0.5057
 2396TIP3   OH228602   0.243   6.187   2.876 -0.1401  0.3813 -0.0368
 2396TIP3    H128603   0.159   6.155   2.844 -1.3108  3.8148 -0.7375
 2396TIP3    H228604   0.307   6.128   2.836 -2.0161 -0.3190 -2.2556
 2397TIP3   OH228605   2.678   5.650  15.217 -0.0758 -0.3860  0.2252
 2397TIP3    H128606   2.748   5.590  15.189 -0.4502 -1.3428  1.2638
 2397TIP3    H228607   2.625   5.598  15.277 -1.4500  0.4613 -0.2094
 2398TIP3   OH228608   0.257   4.879   4.944  0.6662 -0.0275  0.3751
 2398TIP3    H128609   0.196   4.808   4.968 -0.3795  0.3823 -0.9921
 2398TIP3    H228610   0.343   4.836   4.942  0.5087 -0.5824  2.5005
 2399TIP3   OH228611   6.380   1.126  13.359  0.2456 -0.0938  0.0306
 2399TIP3    H128612   6.293   1.138  13.399  1.1314  1.7687  1.5602
 2399TIP3    H228613   6.368   1.053  13.298 -2.3739  0.0638  0.2268
 2400TIP3   OH228614   4.113   6.024  14.241  0.1702  0.0657  0.4333
 2400TIP3    H128615   4.056   5.999  14.314  0.3820  1.0976  0.9724
 2400TIP3    H228616   4.201   6.004  14.271  0.4627  2.3608  1.3443
 2401TIP3   OH228617   5.451   1.653   4.519  0.4329 -0.1580  0.1964
 2401TIP3    H128618   5.521   1.592   4.496  0.7609 -0.1764  1.2001
 2401TIP3    H228619   5.485   1.702   4.594 -0.8796 -0.6474  1.1568
 2402TIP3   OH228620   5.449   6.149   3.011  0.6502 -0.0297  0.2479
 2402TIP3    H128621   5.442   6.242   2.990 -1.8219 -0.6014 -1.7911
 2402TIP3    H228622   5.383   6.135   3.078  1.8204 -0.1551  1.4199
 2403TIP3   OH228623   4.665   2.347   1.968  0.7674  0.4596 -0.6750
 2403TIP3    H128624   4.649   2.356   1.874 -2.4290  0.0208 -0.2897
 2403TIP3    H228625   4.686   2.436   1.997  0.4962  0.8376 -1.5999
 2404TIP3   OH228626   0.580   2.629  13.950 -0.5094 -0.2093  0.8060
 2404TIP3    H128627   0.500   2.620  14.002 -1.5318 -0.6825 -0.8032
 2404TIP3    H228628   0.553   2.613  13.860  1.4620 -0.6582  0.2433
 2405TIP3   OH228629   2.554   0.933  15.782  0.4063  0.3230  0.4647
 2405TIP3    H128630   2.649   0.939  15.794  0.8604 -2.6940 -0.7611
 2405TIP3    H228631   2.530   0.850  15.823 -1.7566  1.0643  0.8254
 2406TIP3   OH228632   6.392   4.070  17.263 -0.2118 -0.1528  0.3021
 2406TIP3    H128633   6.346   3.986  17.254 -1.3792  0.3178  1.6349
 2406TIP3    H228634   6.369   4.118  17.183  0.9052 -1.2596 -0.7401
 2407TIP3   OH228635   5.767   0.760   6.398  0.3670 -0.3416 -0.2842
 2407TIP3    H128636   5.758   0.711   6.315  0.3267 -3.1655  1.2484
 2407TIP3    H228637   5.818   0.837   6.375 -0.5612 -0.4562 -3.1371
 2408TIP3   OH228638   5.516   3.942   1.968 -0.5094  0.9059 -0.7800
 2408TIP3    H128639   5.506   3.941   2.063  0.4473  2.7956 -0.6048
 2408TIP3    H228640   5.429   3.967   1.936 -1.0198 -0.4029 -0.4676
 2409TIP3   OH228641   0.060   4.927   6.318 -0.1599 -0.0822 -0.1451
 2409TIP3    H128642   0.066   4.858   6.383  0.1305  0.3615  0.3086
 2409TIP3    H228643  -0.023   4.911   6.273 -0.2927 -0.4749  0.2363
 2410TIP3   OH228644   2.414   3.436  15.374  0.1596  0.3904 -0.2810
 2410TIP3    H128645   2.403   3.528  15.350 -2.7061  0.2083 -0.0464
 2410TIP3    H228646   2.484   3.404  15.317  1.0118  2.6318 -0.5667
 2411TIP3   OH228647   6.609   0.421  16.776 -0.6907  0.0290  0.5554
 2411TIP3    H128648   6.613   0.328  16.798 -2.2675 -0.4693 -1.0881
 2411TIP3    H228649   6.682   0.435  16.716 -1.3053 -0.5090 -0.3393
 2412TIP3   OH228650   5.898   2.645   3.151  0.3517 -0.7802  0.1593
 2412TIP3    H128651   5.991   2.622   3.145  0.7705  1.0115 -1.5343
 2412TIP3    H228652   5.898   2.739   3.171 -1.1809 -1.2900  3.0364
 2413TIP3   OH228653   3.961   3.091  10.801  0.1255 -0.3552 -0.1446
 2413TIP3    H128654   3.951   2.997  10.818 -0.6965 -0.4817 -1.1969
 2413TIP3    H228655   4.056   3.105  10.802  0.2148 -0.8195  1.7953
 2414TIP3   OH228656   6.466   3.184  11.903 -0.4140  0.0855 -0.4586
 2414TIP3    H128657   6.442   3.112  11.960  0.3406  0.3538  0.2322
 2414TIP3    H228658   6.452   3.151  11.814  0.3581 -1.0871 -0.1759
 2415TIP3   OH228659   2.475   3.077  15.745  0.1124 -0.3247 -0.3582
 2415TIP3    H128660   2.566   3.099  15.727  0.3053 -0.0695  0.8070
 2415TIP3    H228661   2.425   3.149  15.706  0.3445 -0.8136 -1.6073
 2416TIP3   OH228662   5.981   4.500  11.469 -0.0905 -0.2821  0.3014
 2416TIP3    H128663   5.971   4.432  11.403  0.0726 -0.1720  0.1624
 2416TIP3    H228664   6.075   4.518  11.472 -0.3202  1.3939 -1.1582
 2417TIP3   OH228665   0.209   4.408   2.889 -0.0703  0.0679  0.4286
 2417TIP3    H128666   0.172   4.332   2.844 -2.1508  0.5408  1.2159
 2417TIP3    H228667   0.248   4.461   2.819  0.0182 -0.9649 -0.3235
 2418TIP3   OH228668   4.060   2.609  15.742  0.3920 -0.0662  0.3998
 2418TIP3    H128669   4.008   2.655  15.677 -0.9288 -1.6011  0.3028
 2418TIP3    H228670   4.038   2.651  15.825 -0.9163 -0.5926  0.3367
 2419TIP3   OH228671   2.987   5.215   3.227  0.2498 -0.1032 -0.2481
 2419TIP3    H128672   3.017   5.215   3.136  0.9755  0.5789 -0.0276
 2419TIP3    H228673   2.956   5.305   3.241 -1.0862 -0.5467 -0.1932
 2420TIP3   OH228674   5.500   6.364  15.932  0.1843 -0.1590  0.0937
 2420TIP3    H128675   5.463   6.356  15.844  0.7719 -1.3885 -0.0597
 2420TIP3    H228676   5.434   6.323  15.989  0.0225  0.2146  0.1816
 2421TIP3   OH228677   3.510   1.508  14.145  0.1854 -0.8087 -0.3361
 2421TIP3    H128678   3.465   1.533  14.064 -0.9714  1.7112  0.9429
 2421TIP3    H228679   3.488   1.578  14.206  1.0828 -2.5690  2.1565
 2422TIP3   OH228680   0.636   0.099  11.734 -0.4044 -0.0135  0.2196
 2422TIP3    H128681   0.634   0.008  11.763 -0.9523 -0.1331 -0.1629
 2422TIP3    H228682   0.549   0.133  11.755  0.1123  0.7191  1.2483
 2423TIP3   OH228683   0.369   4.140   5.540  0.5443 -0.4727  0.1611
 2423TIP3    H128684   0.381   4.187   5.623 -2.8152  0.3956  0.2964
 2423TIP3    H228685   0.316   4.064   5.563  1.2992 -1.3762 -0.9451
 2424TIP3   OH228686   4.278   0.948   1.146  0.4273  0.3685  0.1233
 2424TIP3    H128687   4.266   1.033   1.189  0.5954  0.4625 -0.0143
 2424TIP3    H228688   4.354   0.960   1.090  0.4837  0.1100  0.1419
 2425TIP3   OH228689   6.710   2.596  17.292  0.1229 -0.3779  0.3041
 2425TIP3    H128690   6.729   2.558  17.378  0.0446  0.2617  0.6103
 2425TIP3    H228691   6.735   2.528  17.230 -0.0291 -0.9306  0.8417
 2426TIP3   OH228692   0.744   6.642  12.166  0.4262  0.0302  0.6141
 2426TIP3    H128693   0.714   6.553  12.185  0.5687  0.3104  2.3697
 2426TIP3    H228694   0.728   6.690  12.248 -0.9780  1.9918 -0.7109
 2427TIP3   OH228695   0.980   2.924  12.083  0.4124  0.5074 -0.2794
 2427TIP3    H128696   0.959   3.016  12.068 -0.8972  0.1762 -0.6212
 2427TIP3    H228697   0.900   2.878  12.061  1.4429 -0.8521 -1.3389
 2428TIP3   OH228698   0.203   1.069   1.726 -0.2090 -0.6088 -0.1034
 2428TIP3    H128699   0.225   1.042   1.816  0.9475 -2.3220 -0.8466
 2428TIP3    H228700   0.263   1.019   1.671 -0.8124  0.5089 -1.8424
 2429TIP3   OH228701   2.856   6.100   3.642  0.1527 -0.1594 -0.4205
 2429TIP3    H128702   2.845   6.170   3.577 -1.5172 -0.3240 -0.3793
 2429TIP3    H228703   2.777   6.106   3.696  0.1508 -1.8366 -0.1840
 2430TIP3   OH228704   1.144   3.235  12.145 -0.1735 -0.4193  0.4626
 2430TIP3    H128705   1.178   3.194  12.065 -0.3584  0.7805 -0.2597
 2430TIP3    H228706   1.219   3.234  12.205 -0.0290 -1.3285  0.2931
 2431TIP3   OH228707   1.992   1.105  12.137 -1.0274 -0.3126 -0.6838
 2431TIP3    H128708   2.000   1.199  12.118 -4.1238 -0.4303 -3.3510
 2431TIP3    H228709   1.946   1.102  12.221 -1.0370  0.5708 -0.6443
 2432TIP3   OH228710   3.598   0.889   2.380  0.3613  0.0912  0.3612
 2432TIP3    H128711   3.668   0.921   2.323 -0.7388 -0.3771 -1.3376
 2432TIP3    H228712   3.585   0.959   2.443 -0.5058  2.0975 -1.9119
 2433TIP3   OH228713   4.384   4.793   4.016 -0.2087  0.1927 -0.2145
 2433TIP3    H128714   4.331   4.807   4.095 -0.9311  1.1658 -0.8502
 2433TIP3    H228715   4.451   4.730   4.043 -1.1899 -0.4475  0.8379
 2434TIP3   OH228716   5.806   2.635   1.399 -0.6945 -0.3958 -0.2629
 2434TIP3    H128717   5.853   2.561   1.359  0.7915  0.5252 -0.3074
 2434TIP3    H228718   5.752   2.595   1.467 -1.4234 -1.7224 -1.5560
 2435TIP3   OH228719   6.019   5.705  13.107 -0.2775  0.0853  0.1880
 2435TIP3    H128720   6.030   5.760  13.029  0.5692  0.0416  0.2774
 2435TIP3    H228721   6.106   5.671  13.126 -0.6502 -0.6597  0.6070
 2436TIP3   OH228722   1.550   2.685  14.107 -0.1168  0.3792 -0.3803
 2436TIP3    H128723   1.516   2.610  14.156 -0.7925 -0.0050 -1.3985
 2436TIP3    H228724   1.476   2.714  14.054  0.6929  0.5154 -1.4810
 2437TIP3   OH228725   4.907   2.494  16.567  0.3767 -0.0705  0.7112
 2437TIP3    H128726   4.839   2.545  16.612  2.1207  1.8649  1.3165
 2437TIP3    H228727   4.965   2.560  16.530  1.2964 -1.6673 -0.8144
 2438TIP3   OH228728   5.591   3.690  10.855  0.4835  0.1308 -0.2086
 2438TIP3    H128729   5.602   3.739  10.774 -0.3900 -0.1862 -0.5287
 2438TIP3    H228730   5.665   3.629  10.856 -1.4096 -2.4252 -2.6493
 2439TIP3   OH228731   1.074   6.268   0.991  0.4127  1.1361 -0.2466
 2439TIP3    H128732   0.981   6.257   0.971  0.3471  1.3902 -0.0764
 2439TIP3    H228733   1.078   6.341   1.051  0.6333  0.5352  0.4858
 2440TIP3   OH228734   0.981   5.249  11.312 -0.1188 -0.3269 -0.0959
 2440TIP3    H128735   0.924   5.269  11.386  0.1311  0.0404  0.0062
 2440TIP3    H228736   1.030   5.331  11.298  1.1531 -0.9631  0.5101
 2441TIP3   OH228737   0.471   1.402  11.618  0.1364 -0.1365  0.4353
 2441TIP3    H128738   0.437   1.323  11.576 -0.3639  0.3870 -0.1480
 2441TIP3    H228739   0.529   1.441  11.553  1.5244 -0.7714  1.2477
 2442TIP3   OH228740   0.574   3.329  12.875 -0.1767  0.7382 -0.2933
 2442TIP3    H128741   0.590   3.337  12.970 -1.1949 -1.4715  0.1133
 2442TIP3    H228742   0.656   3.358  12.835  2.0772 -2.5725  1.4599
 2443TIP3   OH228743   2.086   5.392   5.786  0.2099  0.3500 -0.2124
 2443TIP3    H128744   2.175   5.360   5.793  1.0220  2.5670  0.5339
 2443TIP3    H228745   2.068   5.395   5.693  1.0745  0.2775 -0.3880
 2444TIP3   OH228746   5.424   6.579   5.655  0.0177  0.4837  0.0383
 2444TIP3    H128747   5.437   6.587   5.750 -1.4563 -0.8241  0.3981
 2444TIP3    H228748   5.448   6.489   5.635  0.3481  0.7610 -0.8388
 2445TIP3   OH228749   2.620   5.995   3.442  0.5634 -0.5268 -0.1526
 2445TIP3    H128750   2.581   5.949   3.516  1.0404 -2.7293 -1.2047
 2445TIP3    H228751   2.683   5.933   3.406  2.8955  1.7852 -0.3296
 2446TIP3   OH228752   5.392   5.378  13.224 -0.2811 -0.5446 -0.0386
 2446TIP3    H128753   5.319   5.394  13.284 -0.8398 -2.1104 -0.2561
 2446TIP3    H228754   5.456   5.446  13.245 -1.4378  0.3309  0.7479
 2447TIP3   OH228755   4.488   1.564  15.767  0.3092 -0.3832 -0.1911
 2447TIP3    H128756   4.523   1.478  15.787 -0.2603 -1.1305 -2.1395
 2447TIP3    H228757   4.396   1.559  15.792  0.7970  0.5250  1.9779
 2448TIP3   OH228758   2.747   0.784  16.370 -0.4720 -0.7759  0.4872
 2448TIP3    H128759   2.666   0.734  16.375 -0.7650 -0.3580 -0.0482
 2448TIP3    H228760   2.782   0.781  16.459 -1.3047 -0.5726  0.8269
 2449TIP3   OH228761   3.067   4.519   5.910 -0.0389  0.1771  0.6853
 2449TIP3    H128762   2.984   4.551   5.874  0.9288  1.0081 -0.9274
 2449TIP3    H228763   3.079   4.434   5.869  1.1593  1.2080 -1.2690
 2450TIP3   OH228764   1.033   6.515   2.143  0.1306 -0.6057  0.2034
 2450TIP3    H128765   1.098   6.452   2.111  2.2105 -0.4127  3.5904
 2450TIP3    H228766   0.953   6.463   2.152  0.8686 -1.8993 -0.3171
 2451TIP3   OH228767   3.974   2.462  13.453  0.5079 -0.2660  0.1302
 2451TIP3    H128768   3.973   2.385  13.510  0.7118 -0.6058 -0.3164
 2451TIP3    H228769   4.059   2.458  13.410  0.4429  0.1096 -0.0328
 2452TIP3   OH228770   1.468   3.754  12.757  0.2052  0.2242 -0.2530
 2452TIP3    H128771   1.537   3.725  12.697  0.8734  1.4563 -0.1292
 2452TIP3    H228772   1.391   3.764  12.701 -0.0593 -1.6746 -0.2997
 2453TIP3   OH228773   1.050   3.350   4.889 -0.2683 -0.4060  0.3063
 2453TIP3    H128774   1.020   3.439   4.909 -3.1123 -1.6448  2.2631
 2453TIP3    H228775   1.018   3.297   4.963  1.7376 -3.0015 -0.5470
 2454TIP3   OH228776   0.205   0.783   0.497  0.0329 -0.0899  0.1411
 2454TIP3    H128777   0.124   0.801   0.448 -0.3440 -0.0197  0.7774
 2454TIP3    H228778   0.177   0.727   0.570  0.5802 -0.1510  0.3088
 2455TIP3   OH228779   3.719   2.565  11.923 -0.2576 -0.3233 -0.1209
 2455TIP3    H128780   3.801   2.520  11.902  0.8673  1.7679 -0.5194
 2455TIP3    H228781   3.672   2.568  11.839 -0.9859 -1.8843  0.1921
 2456TIP3   OH228782   3.573   2.899   5.000 -0.5090 -0.0355 -0.3747
 2456TIP3    H128783   3.548   2.977   5.050  0.3526 -0.8330  1.3838
 2456TIP3    H228784   3.585   2.931   4.910  0.3504  1.9813  0.4014
 2457TIP3   OH228785   2.351   3.246   2.968  0.2195 -0.3822 -0.7343
 2457TIP3    H128786   2.364   3.159   2.930 -0.4462 -0.7678 -0.1108
 2457TIP3    H228787   2.259   3.247   2.995  0.1960  0.5570 -0.8318
 2458TIP3   OH228788   3.872   3.286   6.695  0.4725  0.2278  0.2293
 2458TIP3    H128789   3.854   3.361   6.639  0.4633 -1.1637 -1.7376
 2458TIP3    H228790   3.786   3.253   6.721  0.4554  0.3504  0.3273
 2459TIP3   OH228791   4.717   5.438   2.203  0.2745  0.5486 -0.4457
 2459TIP3    H128792   4.655   5.369   2.176  0.0475  0.7640 -0.4759
 2459TIP3    H228793   4.767   5.457   2.124  0.9655 -0.2287 -0.2119
 2460TIP3   OH228794   3.400   2.106  13.536  0.1358 -0.3342 -0.7662
 2460TIP3    H128795   3.383   2.096  13.442 -1.3555  0.0514 -0.5573
 2460TIP3    H228796   3.331   2.056  13.578  1.6186 -1.6952  0.1494
 2461TIP3   OH228797   5.022   4.572   2.358 -0.5809 -0.0866  0.0624
 2461TIP3    H128798   5.095   4.542   2.412 -2.0890  0.2580  2.4254
 2461TIP3    H228799   5.040   4.664   2.342 -1.1288  0.3571  1.8227
 2462TIP3   OH228800   0.686   0.852   2.174  0.8067 -0.1040  0.1167
 2462TIP3    H128801   0.742   0.786   2.133 -0.0323 -0.3186 -0.7033
 2462TIP3    H228802   0.698   0.930   2.119  1.5340  0.3404  0.8843
 2463TIP3   OH228803   2.156   0.968   3.445 -0.1597  0.3409 -0.2984
 2463TIP3    H128804   2.078   0.955   3.390 -0.4946 -0.6772  0.3898
 2463TIP3    H228805   2.182   0.880   3.471  0.2461  0.7835  0.8421
 2464TIP3   OH228806   3.749   3.997  14.700 -0.2119  0.3747  0.1456
 2464TIP3    H128807   3.755   4.050  14.779 -0.9856 -0.0612  0.5054
 2464TIP3    H228808   3.819   3.933  14.708 -0.3539  0.2674  0.5288
 2465TIP3   OH228809   6.444   3.968  10.605 -0.2585  0.0200 -0.1050
 2465TIP3    H128810   6.451   3.972  10.510 -0.5441  1.9842 -0.0865
 2465TIP3    H228811   6.534   3.976  10.637 -0.1418 -0.8553 -0.2000
 2466TIP3   OH228812   2.473   3.103  13.230 -0.1302  0.1477 -0.2953
 2466TIP3    H128813   2.540   3.083  13.295  0.3106  1.2998 -0.3734
 2466TIP3    H228814   2.429   3.019  13.214  0.0669 -0.2583  1.1252
 2467TIP3   OH228815   2.554   1.312   4.008 -0.3571  0.1620  0.7705
 2467TIP3    H128816   2.548   1.398   4.048  0.0149  0.7017 -0.3032
 2467TIP3    H228817   2.464   1.290   3.984 -0.1217  1.9778 -2.4027
 2468TIP3   OH228818   1.004   4.803  15.604 -0.0924 -0.4812 -0.4650
 2468TIP3    H128819   1.091   4.795  15.644 -0.2963  0.6379  0.2164
 2468TIP3    H228820   1.004   4.736  15.535  0.5464 -1.9090  0.8615
 2469TIP3   OH228821   2.915   6.182   2.629  0.0395 -0.2210  0.0693
 2469TIP3    H128822   2.940   6.241   2.700 -1.2248 -0.8310  1.0733
 2469TIP3    H228823   2.881   6.240   2.560  3.1459  0.5542 -0.9848
 2470TIP3   OH228824   2.655   2.834   2.795 -0.0335 -0.1673 -0.2108
 2470TIP3    H128825   2.668   2.807   2.704 -1.8131 -0.6395 -0.3648
 2470TIP3    H228826   2.568   2.876   2.795  0.4586  0.9100  1.0469
 2471TIP3   OH228827   2.939   5.057   5.733  0.5644  0.3033 -0.1818
 2471TIP3    H128828   2.848   5.053   5.763  0.0207  1.5572 -1.5657
 2471TIP3    H228829   2.981   5.121   5.791 -0.4349  2.5767 -1.8028
 2472TIP3   OH228830   0.200   3.815   4.402 -1.0190 -0.5242  0.0290
 2472TIP3    H128831   0.288   3.827   4.439 -2.2565  0.8735  2.8315
 2472TIP3    H228832   0.151   3.769   4.471 -2.0087 -3.3433 -2.3330
 2473TIP3   OH228833   4.945   3.594  16.964  0.1789 -0.3069  0.0220
 2473TIP3    H128834   4.950   3.628  16.875  0.3280 -1.6612 -0.5090
 2473TIP3    H228835   4.977   3.504  16.957 -1.5624 -1.0559  1.1009
 2474TIP3   OH228836   5.128   2.561  15.366  0.2652  0.6200 -0.3329
 2474TIP3    H128837   5.219   2.534  15.357 -0.1296 -0.6381 -0.7571
 2474TIP3    H228838   5.111   2.559  15.460  0.3967 -0.1159 -0.3219
 2475TIP3   OH228839   3.682   0.872  16.846 -0.4245  0.5575  0.2559
 2475TIP3    H128840   3.719   0.787  16.870  0.6863  0.7099 -0.8668
 2475TIP3    H228841   3.645   0.905  16.928  1.6716  0.2783  1.3724
 2476TIP3   OH228842   0.223   4.652   4.067 -0.0698  0.3059  0.0781
 2476TIP3    H128843   0.154   4.714   4.046 -1.0046 -0.3082  1.1980
 2476TIP3    H228844   0.186   4.597   4.137  1.5310 -0.0658  0.6886
 2477TIP3   OH228845   0.160   1.714   2.778  0.5498  0.1124  0.4154
 2477TIP3    H128846   0.173   1.620   2.792  0.3081 -0.3720 -2.1505
 2477TIP3    H228847   0.067   1.724   2.761  0.5725  0.8230  0.6622
 2478TIP3   OH228848   1.381   0.252  13.852 -0.2705 -0.2632  0.0578
 2478TIP3    H128849   1.301   0.257  13.904 -0.3753 -0.7439 -0.0506
 2478TIP3    H228850   1.386   0.335  13.806 -2.0268 -1.1292 -1.8497
 2479TIP3   OH228851   2.272   5.164  12.376  0.4412  0.2229  0.2775
 2479TIP3    H128852   2.268   5.072  12.352  0.2730  0.3020 -0.0175
 2479TIP3    H228853   2.297   5.165  12.468  1.6007 -0.0804 -0.0238
 2480TIP3   OH228854   5.926   5.469  12.683  0.0970 -0.2996  0.0179
 2480TIP3    H128855   6.011   5.488  12.723 -0.0279  0.3528 -0.0064
 2480TIP3    H228856   5.930   5.377  12.659  1.5160  0.1703 -1.7127
 2481TIP3   OH228857   4.152   4.116  16.170 -0.0014 -0.2164  0.4092
 2481TIP3    H128858   4.132   4.047  16.107  0.4038  0.1396 -0.1162
 2481TIP3    H228859   4.225   4.163  16.131  1.4480 -1.0754  1.9928
 2482TIP3   OH228860   3.929   2.779  12.318  0.1881  0.1132  0.0663
 2482TIP3    H128861   3.905   2.728  12.240 -0.1629 -1.6876  1.2903
 2482TIP3    H228862   3.971   2.716  12.376 -0.0957  1.2576  1.5928
 2483TIP3   OH228863   3.753   5.192   4.605  0.3656 -0.4415 -0.2668
 2483TIP3    H128864   3.830   5.147   4.639  1.2511  0.6704 -0.7420
 2483TIP3    H228865   3.757   5.177   4.510  0.0253 -0.3250 -0.3014
 2484TIP3   OH228866   1.350   4.115  11.603  0.3878 -0.2991  0.2816
 2484TIP3    H128867   1.361   4.068  11.520 -0.8923 -1.5177  0.7699
 2484TIP3    H228868   1.411   4.072  11.663 -0.9167 -1.5470  0.7789
 2485TIP3   OH228869   3.021   0.384  17.203 -0.0545  0.4883  0.4229
 2485TIP3    H128870   3.116   0.376  17.214 -0.1776 -1.5223  0.3683
 2485TIP3    H228871   3.008   0.474  17.171  1.8444  0.7213  0.1940
 2486TIP3   OH228872   3.109   5.943   6.135 -0.2038 -0.0833  0.1317
 2486TIP3    H128873   3.137   5.852   6.134 -1.3044 -0.5352  2.3499
 2486TIP3    H228874   3.154   5.981   6.210 -1.0694  0.7177  0.2687
 2487TIP3   OH228875   2.753   1.835  17.188 -0.2366 -0.3563  0.4527
 2487TIP3    H128876   2.817   1.905  17.204 -0.3810 -0.3369  0.9601
 2487TIP3    H228877   2.785   1.791  17.109  0.0971  0.0027  0.3843
 2488TIP3   OH228878   3.832   1.696  16.020 -0.3005  0.1255 -0.2588
 2488TIP3    H128879   3.924   1.724  16.025  0.0074 -0.5412 -1.6633
 2488TIP3    H228880   3.784   1.775  15.995 -0.1427  0.5032  0.5850
 2489TIP3   OH228881   6.467   5.315  10.978 -0.4899  0.0689  0.2222
 2489TIP3    H128882   6.479   5.375  10.905  1.0000  1.0264  1.1881
 2489TIP3    H228883   6.411   5.363  11.040 -3.2835 -1.4168 -0.9474
 2490TIP3   OH228884   1.262   4.378  16.740  0.2123 -0.1347  0.9539
 2490TIP3    H128885   1.280   4.359  16.832  0.2474 -0.4418  0.8854
 2490TIP3    H228886   1.181   4.330  16.721  0.1495  0.0108  0.8531
 2491TIP3   OH228887   2.863   6.031  14.415  0.1016  0.0278 -0.2366
 2491TIP3    H128888   2.794   6.039  14.480  0.2513 -1.5041  0.1582
 2491TIP3    H228889   2.839   6.093  14.346 -1.1222  0.2351  0.3517
 2492TIP3   OH228890   4.003   0.205  11.160  0.2379  0.0509  0.0341
 2492TIP3    H128891   3.914   0.237  11.146  0.9509  2.4517  0.6264
 2492TIP3    H228892   4.013   0.134  11.096 -1.5968  0.6946 -1.0370
 2493TIP3   OH228893   5.398   5.125  12.247  0.2238 -0.1534  0.3590
 2493TIP3    H128894   5.444   5.187  12.190 -0.1703 -0.3088 -0.1454
 2493TIP3    H228895   5.467   5.075  12.290  0.5295 -0.1664 -0.1389
 2494TIP3   OH228896   4.546   1.970   3.113 -0.0634 -0.2029 -0.2921
 2494TIP3    H128897   4.630   1.951   3.155  0.6271 -1.8725 -2.2601
 2494TIP3    H228898   4.561   2.053   3.068  0.5034 -0.4099 -0.5005
 2495TIP3   OH228899   5.908   4.923  11.990  0.0716 -0.7697 -0.0232
 2495TIP3    H128900   5.837   4.948  11.931 -0.1831  0.4629  0.7769
 2495TIP3    H228901   5.987   4.932  11.936 -0.1743  0.1582 -0.2549
 2496TIP3   OH228902   6.166   2.401  16.410  0.8159 -0.0549  0.1093
 2496TIP3    H128903   6.242   2.368  16.457 -0.7616 -1.1868  2.0410
 2496TIP3    H228904   6.139   2.479  16.459  1.1258  0.7884 -1.0102
 2497TIP3   OH228905   5.273   3.388  15.159  0.6849  0.2614 -0.0112
 2497TIP3    H128906   5.333   3.379  15.086 -2.0788 -0.1021 -2.4298
 2497TIP3    H228907   5.249   3.481  15.160 -2.2073 -0.3258 -2.2689
 2498TIP3   OH228908   3.832   0.217  12.578  0.0203  0.5097  0.0900
 2498TIP3    H128909   3.900   0.187  12.639 -2.0925  0.1483  2.4311
 2498TIP3    H228910   3.846   0.312  12.573  1.7789  0.2495 -0.9700
 2499TIP3   OH228911   3.860   1.304  14.594 -0.3258 -0.5199 -0.2970
 2499TIP3    H128912   3.878   1.335  14.683  1.4577 -0.2635 -0.7002
 2499TIP3    H228913   3.927   1.237  14.579  1.7865  1.8576 -2.6293
 2500TIP3   OH228914   4.150   6.018  13.972  0.2384  0.4853 -0.4418
 2500TIP3    H128915   4.151   6.025  14.068 -1.0094  0.0078 -0.3752
 2500TIP3    H228916   4.059   6.035  13.948  0.3486 -0.3233 -1.4705
 2501TIP3   OH228917   1.575   2.554   4.264 -0.1572  0.0690  0.3218
 2501TIP3    H128918   1.592   2.566   4.170  1.2937 -1.3553  0.3588
 2501TIP3    H228919   1.624   2.476   4.287 -0.5020  0.3889  2.2903
 2502TIP3   OH228920   4.908   5.937  16.800 -0.5436 -0.2928 -0.3215
 2502TIP3    H128921   4.950   5.853  16.782  0.4674  0.4034 -1.3562
 2502TIP3    H228922   4.817   5.926  16.773 -0.4706 -1.1177 -0.2367
 2503TIP3   OH228923   2.171   1.213   4.806 -0.1771  0.0356  0.8505
 2503TIP3    H128924   2.252   1.255   4.777 -0.1870 -0.7118 -0.3320
 2503TIP3    H228925   2.194   1.172   4.889  0.3321  0.8007  1.1003
 2504TIP3   OH228926   1.610   0.737   6.474  0.1775 -0.0060 -0.3224
 2504TIP3    H128927   1.594   0.661   6.419  0.4319 -0.2326 -0.0886
 2504TIP3    H228928   1.546   0.801   6.446 -1.2900 -0.9530  0.7130
 2505TIP3   OH228929   2.429   3.551  13.606  0.3048  0.0405  0.3237
 2505TIP3    H128930   2.431   3.479  13.669 -3.3200  0.3428  0.9813
 2505TIP3    H228931   2.480   3.620  13.648  0.1902 -0.6646  1.6911
 2506TIP3   OH228932   6.178   1.008   4.768  0.0965 -0.2450  0.5066
 2506TIP3    H128933   6.246   1.048   4.822  0.4101 -0.6594  0.4131
 2506TIP3    H228934   6.098   1.055   4.793  0.5274  0.7254  0.1120
 2507TIP3   OH228935   1.114   6.347   0.365 -0.6460  0.3803  0.1999
 2507TIP3    H128936   1.161   6.422   0.402  1.0999  0.2250 -1.5066
 2507TIP3    H228937   1.046   6.387   0.310  0.2440  0.7769 -0.6589
 2508TIP3   OH228938   1.087   4.870  12.493  0.7888  0.2838  0.1368
 2508TIP3    H128939   1.167   4.896  12.448  0.1499  1.8567 -0.1750
 2508TIP3    H228940   1.095   4.910  12.580  1.2265 -1.2667  0.8486
 2509TIP3   OH228941   2.138   4.142  13.669 -0.1449  0.2977 -0.8756
 2509TIP3    H128942   2.219   4.096  13.689 -0.1883 -0.1165 -1.6525
 2509TIP3    H228943   2.078   4.117  13.740  1.6285  4.0320  2.3699
 2510TIP3   OH228944   1.400   2.966  11.754  0.0843  0.1839  0.4776
 2510TIP3    H128945   1.339   2.941  11.685  1.1886 -0.5153 -0.2700
 2510TIP3    H228946   1.359   3.042  11.796 -2.1042 -1.2361  1.0886
 2511TIP3   OH228947   1.808   6.510   2.587  0.8733 -0.2184 -0.0564
 2511TIP3    H128948   1.756   6.544   2.660  2.2371 -0.2689  0.9633
 2511TIP3    H228949   1.744   6.466   2.531 -0.3313  0.5945  0.6286
 2512TIP3   OH228950   6.650   0.752   4.507  0.0621  0.2584  0.1027
 2512TIP3    H128951   6.566   0.797   4.515 -0.3441 -0.2111 -1.2120
 2512TIP3    H228952   6.703   0.785   4.580 -1.2644  0.5464  0.9580
 2513TIP3   OH228953   1.271   1.037  12.991  0.1105 -0.4593  0.0893
 2513TIP3    H128954   1.320   1.106  12.946 -0.1056 -0.9358 -0.9188
 2513TIP3    H228955   1.338   0.975  13.020  0.1965 -0.5395 -0.2755
 2514TIP3   OH228956   4.808   5.268   3.545  0.3499 -0.1846 -0.6850
 2514TIP3    H128957   4.756   5.330   3.597  1.9898  0.5436  0.1590
 2514TIP3    H228958   4.769   5.182   3.564  0.6873  0.0990  1.5369
 2515TIP3   OH228959   4.330   0.159  13.224 -0.6295  0.2532  0.4620
 2515TIP3    H128960   4.419   0.124  13.225 -1.2385 -1.4174 -0.2977
 2515TIP3    H228961   4.342   0.254  13.216  1.1222 -0.0816 -3.0180
 2516TIP3   OH228962   5.479   6.079  12.634  0.0876  0.3124  0.1387
 2516TIP3    H128963   5.442   6.014  12.693 -0.8586  0.7164  0.0049
 2516TIP3    H228964   5.507   6.029  12.557  3.4134 -0.5893  1.7270
 2517TIP3   OH228965   0.403   0.792  11.392  0.4102  0.4349  0.0966
 2517TIP3    H128966   0.429   0.718  11.336 -1.2298 -0.6271  0.6754
 2517TIP3    H228967   0.328   0.760  11.441 -0.8816  2.7715 -0.2265
 2518TIP3   OH228968   5.132   4.733  16.092 -0.5017  0.4614 -0.6511
 2518TIP3    H128969   5.095   4.693  16.013  0.3472  1.1219 -1.4102
 2518TIP3    H228970   5.057   4.771  16.137 -0.9122  0.8062 -1.5875
 2519TIP3   OH228971   1.274   4.999  13.392  0.1549  0.1119 -0.1094
 2519TIP3    H128972   1.327   5.029  13.319 -2.1147 -0.2485 -2.0463
 2519TIP3    H228973   1.288   4.904  13.394 -1.3713 -0.2019 -1.5714
 2520TIP3   OH228974   2.509   4.799  14.125  0.2980 -0.2677  0.7355
 2520TIP3    H128975   2.550   4.749  14.055  0.2752  0.3325  0.2852
 2520TIP3    H228976   2.564   4.877  14.135 -0.1476  0.0443  0.8290
 2521TIP3   OH228977   4.872   0.531  16.787  0.1206  0.3017  0.0404
 2521TIP3    H128978   4.832   0.444  16.785  1.4621 -0.3495  0.3039
 2521TIP3    H228979   4.803   0.590  16.755 -1.1558 -0.7032  0.7956
 2522TIP3   OH228980   1.765   3.610   1.382 -0.7216  0.0988  0.6127
 2522TIP3    H128981   1.698   3.620   1.315 -0.3043  1.2495  0.3512
 2522TIP3    H228982   1.814   3.532   1.355 -1.6572 -0.4997  0.5779
 2523TIP3   OH228983   2.657   0.374  13.218  0.2778 -0.0236 -0.5301
 2523TIP3    H128984   2.589   0.407  13.158  2.1528  1.2982 -2.0838
 2523TIP3    H228985   2.736   0.420  13.190  1.8325 -1.5436  1.1706
 2524TIP3   OH228986   1.951   2.895  13.590 -0.0319 -0.5049 -0.0891
 2524TIP3    H128987   1.912   2.981  13.609 -0.9732 -1.0188  0.4538
 2524TIP3    H228988   2.017   2.883  13.659 -0.6138 -0.6333  0.4633
 2525TIP3   OH228989   5.809   6.365  13.152  0.4281  1.0168 -0.6005
 2525TIP3    H128990   5.899   6.392  13.172  0.4384  1.2169 -0.9133
 2525TIP3    H228991   5.785   6.417  13.075 -0.5262  2.1124  0.4071
 2526TIP3   OH228992   1.567   4.017  11.489  0.7667  0.0431 -0.7730
 2526TIP3    H128993   1.567   3.956  11.562 -2.3297  1.6079  0.7469
 2526TIP3    H228994   1.586   4.102  11.530 -3.0561  1.2967 -1.2045
 2527TIP3   OH228995   5.887   0.043   3.139  0.0464  0.8795  0.0528
 2527TIP3    H128996   5.797   0.057   3.170  0.5947  2.5335  0.9605
 2527TIP3    H228997   5.912   0.126   3.099  0.1519 -0.4828 -3.0100
 2528TIP3   OH228998   5.425   0.523  12.340  0.4473 -0.3716 -0.6303
 2528TIP3    H128999   5.348   0.513  12.396 -0.1785 -0.3589 -1.4690
 2528TIP3    H229000   5.401   0.593  12.279  1.4694  0.2530 -0.3250
 2529TIP3   OH229001   1.845   5.220  13.335 -0.6200 -0.2519 -0.1024
 2529TIP3    H129002   1.935   5.185  13.337 -0.4672  0.1617  1.5117
 2529TIP3    H229003   1.800   5.165  13.272  0.6586 -0.7516 -0.6278
 2530TIP3   OH229004   1.259   6.434   2.419  0.5617  0.1655 -0.1401
 2530TIP3    H129005   1.175   6.461   2.458  0.6291  0.0927  0.0569
 2530TIP3    H229006   1.247   6.341   2.399  0.0853  0.4917 -1.4611
 2531TIP3   OH229007   0.382   5.042   6.077 -0.6925  0.0635  0.5062
 2531TIP3    H129008   0.379   5.138   6.075  0.1162  0.0901  0.0467
 2531TIP3    H229009   0.403   5.021   6.168  0.4129  0.3820  0.3389
 2532TIP3   OH229010   1.508   5.721  13.475  0.5183 -0.0556  0.0763
 2532TIP3    H129011   1.507   5.727  13.379 -0.5259 -0.0183  0.0820
 2532TIP3    H229012   1.417   5.706  13.499  0.7010  0.4071  1.1006
 2533TIP3   OH229013   3.640   3.256  14.841 -0.3680  0.3201  0.7275
 2533TIP3    H129014   3.629   3.184  14.904 -0.0147  0.0675  0.5058
 2533TIP3    H229015   3.725   3.239  14.800 -0.2229  0.9380  0.7624
 2534TIP3   OH229016   6.220   3.996   2.419  0.1134  0.4143  0.6393
 2534TIP3    H129017   6.295   3.947   2.453  1.4455  0.4839 -1.9354
 2534TIP3    H229018   6.152   3.930   2.405  1.7271 -0.8384 -2.3506
 2535TIP3   OH229019   1.966   4.753  15.797  0.5394 -0.2564  0.3149
 2535TIP3    H129020   2.052   4.712  15.806  0.0316 -1.1077  1.5797
 2535TIP3    H229021   1.956   4.804  15.877  0.1661  0.4446 -0.1704
 2536TIP3   OH229022   5.894   3.209  13.692  0.0881  0.2850  0.4325
 2536TIP3    H129023   5.893   3.275  13.623 -1.4819  0.2716  0.4051
 2536TIP3    H229024   5.814   3.226  13.742 -0.2877 -1.5140  0.4959
 2537TIP3   OH229025   3.187   4.406   4.426  0.0618 -0.6704 -0.4395
 2537TIP3    H129026   3.108   4.372   4.385 -0.2789  0.2398 -0.5623
 2537TIP3    H229027   3.175   4.388   4.519 -0.1067 -0.8974 -0.5048
 2538TIP3   OH229028   6.117   4.849  11.817 -0.6684 -0.4414  0.5289
 2538TIP3    H129029   6.195   4.851  11.761  0.4524  1.1652  2.0356
 2538TIP3    H229030   6.044   4.856  11.756  0.4153 -0.6505 -0.8518
 2539TIP3   OH229031   3.430   6.127  15.137 -0.0651  0.8219 -0.2132
 2539TIP3    H129032   3.494   6.176  15.086  0.5093  0.2187 -0.0916
 2539TIP3    H229033   3.452   6.144  15.229  1.0242 -0.7219 -0.1440
 2540TIP3   OH229034   1.096   1.481  14.390 -0.5538  0.1703 -0.4837
 2540TIP3    H129035   1.107   1.425  14.313 -0.1535 -0.2737 -0.1079
 2540TIP3    H229036   1.017   1.448  14.433 -0.0213 -0.4721  0.0311
 2541TIP3   OH229037   6.700   6.655  13.465  0.4285  0.0370 -0.1122
 2541TIP3    H129038   6.641   6.597  13.513 -0.8896 -0.0757 -1.7613
 2541TIP3    H229039   6.775   6.601  13.442  0.3774 -0.3080  0.5215
 2542TIP3   OH229040   2.771   3.161   2.059  0.2813  0.0218 -0.6116
 2542TIP3    H129041   2.789   3.074   2.094 -0.9159 -0.4081 -0.9869
 2542TIP3    H229042   2.759   3.217   2.136  0.3654 -0.3062 -0.3604
 2543TIP3   OH229043   2.477   1.797   2.445 -0.3556  0.0017 -0.2660
 2543TIP3    H129044   2.467   1.864   2.377 -2.7966  0.8751  0.8308
 2543TIP3    H229045   2.406   1.735   2.428 -1.0594  0.2714  1.4669
 2544TIP3   OH229046   5.733   1.995   3.646 -0.2090 -0.3612 -0.6412
 2544TIP3    H129047   5.743   1.916   3.591  1.0472 -0.1933 -0.6770
 2544TIP3    H229048   5.648   2.031   3.620 -0.3091 -1.1058 -1.4057
 2545TIP3   OH229049   3.052   1.471   3.226 -0.2560  0.6006  0.5947
 2545TIP3    H129050   3.073   1.546   3.169  2.5322  0.2306  0.9794
 2545TIP3    H229051   2.986   1.505   3.286  1.1936  2.9305  1.0093
 2546TIP3   OH229052   1.108   2.795   1.283  0.4896 -0.2472 -0.3331
 2546TIP3    H129053   1.080   2.704   1.272 -2.6499  0.8283 -2.9494
 2546TIP3    H229054   1.191   2.800   1.237 -0.5313 -1.3460 -2.4355
 2547TIP3   OH229055   5.674   6.450   5.937  0.0390 -0.3410 -0.7067
 2547TIP3    H129056   5.648   6.478   6.024  1.4068 -1.0549 -0.0400
 2547TIP3    H229057   5.714   6.364   5.950  1.2818  0.0227 -1.8554
 2548TIP3   OH229058   3.951   3.871   5.465 -0.0713 -0.3538 -0.0148
 2548TIP3    H129059   4.034   3.852   5.422  0.3004 -1.2427  1.0366
 2548TIP3    H229060   3.914   3.785   5.484  0.3724 -0.0703  2.4779
 2549TIP3   OH229061   3.465   6.080  14.146  0.0232 -0.0804  1.0162
 2549TIP3    H129062   3.407   6.008  14.168 -0.4749  0.0405  0.1362
 2549TIP3    H229063   3.553   6.045  14.161 -0.2511 -0.3525  2.0926
 2550TIP3   OH229064   1.211   6.016  13.437 -0.3791 -0.6191  0.4100
 2550TIP3    H129065   1.129   5.977  13.468 -1.7983  0.3255 -1.8630
 2550TIP3    H229066   1.229   5.970  13.355 -0.9621  1.8927 -1.2511
 2551TIP3   OH229067   4.835   3.151  14.368 -0.1152  0.5729  0.7845
 2551TIP3    H129068   4.765   3.134  14.432 -0.2842  1.9160  0.9834
 2551TIP3    H229069   4.794   3.134  14.283 -0.6892  1.2929  0.9008
 2552TIP3   OH229070   2.363   1.112   0.411 -0.0631 -0.2080 -0.2657
 2552TIP3    H129071   2.361   1.121   0.507 -1.1262 -1.5328 -0.1271
 2552TIP3    H229072   2.350   1.201   0.379 -0.0734  0.2065  0.8227
 2553TIP3   OH229073   6.411   0.476   0.936  0.2715  0.2012 -0.6519
 2553TIP3    H129074   6.347   0.540   0.906 -0.5795 -0.5227 -0.4100
 2553TIP3    H229075   6.378   0.446   1.020  0.4973 -0.7817 -0.9037
 2554TIP3   OH229076   5.789   5.245   1.909  0.1070  0.3542 -0.0538
 2554TIP3    H129077   5.832   5.331   1.911  0.3885  0.2021  1.0191
 2554TIP3    H229078   5.856   5.184   1.939 -0.4039 -0.0981  0.1813
 2555TIP3   OH229079   3.218   4.517  12.617  0.3912  0.7383 -0.0232
 2555TIP3    H129080   3.301   4.559  12.640  1.1127 -0.2905 -0.6581
 2555TIP3    H229081   3.215   4.519  12.522  0.9311 -1.4467 -0.1422
 2556TIP3   OH229082   5.751   3.769  11.642  0.2472  0.0082 -0.3480
 2556TIP3    H129083   5.722   3.717  11.716 -0.2701 -0.3449 -0.7979
 2556TIP3    H229084   5.709   3.730  11.565  1.8057 -0.4595 -1.0119
 2557TIP3   OH229085   5.980   5.283  16.182 -0.0236 -0.1192  0.6302
 2557TIP3    H129086   5.919   5.264  16.110 -0.8450 -1.7752  1.7126
 2557TIP3    H229087   5.936   5.351  16.233  0.0997  0.3350  0.1403
 2558TIP3   OH229088   4.012   0.734   1.822  0.0899  0.0690 -0.0969
 2558TIP3    H129089   4.023   0.724   1.727  1.4068 -0.5104  0.0837
 2558TIP3    H229090   4.017   0.644   1.855  0.0133  0.3002  0.5462
 2559TIP3   OH229091   1.469   2.334   0.261 -0.7432  0.3470  0.6460
 2559TIP3    H129092   1.508   2.296   0.340 -0.8254  2.3391  1.7271
 2559TIP3    H229093   1.393   2.382   0.294 -3.5929 -2.4618 -1.2432
 2560TIP3   OH229094   6.005   2.268  11.213 -0.8212  0.7313 -0.2941
 2560TIP3    H129095   6.019   2.273  11.118  0.0121  3.1669 -0.1096
 2560TIP3    H229096   5.913   2.292  11.224 -0.1597  3.5316 -0.3489
 2561TIP3   OH229097   1.807   2.093  11.494  0.4295 -1.0347  0.1203
 2561TIP3    H129098   1.815   2.102  11.589 -2.9014 -0.0528  0.4376
 2561TIP3    H229099   1.896   2.073  11.464  1.7184 -0.7244  3.3382
 2562TIP3   OH229100   4.606   0.087  13.211  0.4140  0.4431  0.1984
 2562TIP3    H129101   4.567   0.046  13.134  1.1110  1.0011 -0.4721
 2562TIP3    H229102   4.690   0.042  13.222  0.9076  1.2427 -0.1744
 2563TIP3   OH229103   3.482   4.602  12.674 -0.3918 -0.1677 -0.1027
 2563TIP3    H129104   3.495   4.528  12.733  2.2418 -0.1552 -0.5500
 2563TIP3    H229105   3.567   4.617  12.634 -1.0575  2.5094 -0.7824
 2564TIP3   OH229106   4.187   4.327  12.228 -0.2426 -0.4151 -0.1377
 2564TIP3    H129107   4.196   4.405  12.283 -0.4483 -0.2898 -0.2833
 2564TIP3    H229108   4.236   4.349  12.149 -0.1187 -0.5183 -0.0903
 2565TIP3   OH229109   3.974   5.924  15.057  0.1626  0.9481  0.2060
 2565TIP3    H129110   3.962   5.882  15.142  0.1470  0.1465 -0.1805
 2565TIP3    H229111   4.062   5.898  15.030  0.6287  2.1699  0.4988
 2566TIP3   OH229112   3.753   5.186   2.289 -0.3940 -0.0004  0.8644
 2566TIP3    H129113   3.716   5.198   2.376  0.3829 -0.3836  1.2618
 2566TIP3    H229114   3.682   5.208   2.229 -0.5113  1.7222  1.5741
 2567TIP3   OH229115   6.332   3.185  16.652  0.2317  0.3305  0.3895
 2567TIP3    H129116   6.298   3.103  16.617  0.2292 -0.0496  1.2454
 2567TIP3    H229117   6.256   3.243  16.656  0.2779  0.4643 -0.4270
 2568TIP3   OH229118   6.435   0.466  13.958 -0.6501  0.5663 -0.3440
 2568TIP3    H129119   6.359   0.471  14.017  0.1256  3.6543  0.5837
 2568TIP3    H229120   6.415   0.529  13.889  0.1608 -0.1798 -1.2736
 2569TIP3   OH229121   0.863   0.975   5.051  0.5545 -0.2418  0.8493
 2569TIP3    H129122   0.894   1.021   5.130 -1.1365  0.7157  0.9959
 2569TIP3    H229123   0.845   0.886   5.081  1.1183 -0.2302  1.2471
 2570TIP3   OH229124   0.301   5.108  15.062 -0.2277 -0.1121  0.4035
 2570TIP3    H129125   0.253   5.038  15.108 -0.3646  0.3706  1.0065
 2570TIP3    H229126   0.236   5.146  15.003 -0.4600  0.2180  0.8655
 2571TIP3   OH229127   3.740   2.500   2.468  0.3178  0.1886  0.0881
 2571TIP3    H129128   3.659   2.458   2.439 -0.7392  2.2958 -0.2176
 2571TIP3    H229129   3.714   2.558   2.539  1.4290  1.3741 -0.4251
 2572TIP3   OH229130   3.570   1.132  11.185  0.3323 -0.0675  0.6249
 2572TIP3    H129131   3.615   1.098  11.262  0.5606  1.3369  1.1449
 2572TIP3    H229132   3.536   1.217  11.212  1.2188  0.8968 -1.0927
 2573TIP3   OH229133   0.714   0.173   6.036 -0.1279 -0.1799  0.2645
 2573TIP3    H129134   0.774   0.244   6.017 -0.4782 -0.1524 -0.8611
 2573TIP3    H229135   0.705   0.126   5.952 -0.3785 -1.1725  0.8255
 2574TIP3   OH229136   1.384   6.287   0.579 -0.1589 -0.1248  0.7889
 2574TIP3    H129137   1.374   6.243   0.663  0.8516 -2.4065 -0.2065
 2574TIP3    H229138   1.411   6.218   0.519  1.9944  1.9567 -0.8093
 2575TIP3   OH229139   5.373   3.119  16.176  0.4999  0.2748  0.0974
 2575TIP3    H129140   5.385   3.035  16.219  0.7186 -0.2114 -0.8905
 2575TIP3    H229141   5.411   3.183  16.237  1.6011 -0.4809  0.2334
 2576TIP3   OH229142   1.687   2.106  12.235  0.2721  0.2335 -0.3527
 2576TIP3    H129143   1.721   2.143  12.154  0.2620 -0.7317 -0.8134
 2576TIP3    H229144   1.653   2.181  12.284 -0.7472  0.7106 -1.7296
 2577TIP3   OH229145   5.876   1.822   5.095 -0.6337  0.4773  0.0945
 2577TIP3    H129146   5.912   1.888   5.036  0.0723  0.1256  0.1269
 2577TIP3    H229147   5.919   1.741   5.070 -2.1787 -0.1768 -0.5612
 2578TIP3   OH229148   6.254   4.536  15.050  0.2946  0.2994 -0.2799
 2578TIP3    H129149   6.245   4.599  15.122  0.3504  1.0205 -0.8940
 2578TIP3    H229150   6.164   4.521  15.020  0.3267  0.4922 -0.4748
 2579TIP3   OH229151   2.661   6.027  14.629  0.2842 -0.2544 -0.0388
 2579TIP3    H129152   2.677   5.988  14.715 -1.0858  0.0515  0.3760
 2579TIP3    H229153   2.572   6.000  14.606  0.7492 -0.6318 -1.5433
 2580TIP3   OH229154   4.591   0.241   1.102  0.5511 -0.8889  0.2598
 2580TIP3    H129155   4.627   0.267   1.017  0.0100 -1.9727 -0.3259
 2580TIP3    H229156   4.619   0.151   1.113 -0.0686 -1.0138  0.8556
 2581TIP3   OH229157   5.120   4.804   4.689  0.2668  1.0085  0.2784
 2581TIP3    H129158   5.061   4.732   4.712 -1.7091  2.3907 -0.2441
 2581TIP3    H229159   5.138   4.848   4.772 -1.0258  1.6941  0.2269
 2582TIP3   OH229160   0.275   4.227   2.051  0.2906  0.3840 -0.0813
 2582TIP3    H129161   0.335   4.164   2.012  2.3957  0.7545  2.2784
 2582TIP3    H229162   0.230   4.178   2.120  0.0181  0.8186  0.0567
 2583TIP3   OH229163   0.556   1.873  12.529 -0.0996 -0.2616  0.2366
 2583TIP3    H129164   0.559   1.968  12.532  1.9555 -0.2419 -0.9876
 2583TIP3    H229165   0.503   1.852  12.452 -1.5343 -0.1668  1.1583
 2584TIP3   OH229166   4.277   5.865  11.199  0.5119 -0.3588 -0.3406
 2584TIP3    H129167   4.276   5.795  11.264 -0.1460  1.1183  1.3088
 2584TIP3    H229168   4.286   5.945  11.250  0.3466  0.8400 -2.1090
 2585TIP3   OH229169   0.593   2.064   2.556  0.0809 -0.4106  0.1554
 2585TIP3    H129170   0.631   2.144   2.519 -1.0810 -0.3059 -0.9027
 2585TIP3    H229171   0.573   2.087   2.646  0.6677  0.1687  0.1517
 2586TIP3   OH229172   1.812   4.821  12.290  0.2421  0.3815  0.8759
 2586TIP3    H129173   1.864   4.805  12.212 -0.9069 -0.3985  0.2420
 2586TIP3    H229174   1.833   4.911  12.315 -0.5353  1.2206 -1.2623
 2587TIP3   OH229175   5.261   5.139  11.443 -0.2077  0.0041  0.2852
 2587TIP3    H129176   5.168   5.140  11.467 -0.1728 -0.6338  0.4628
 2587TIP3    H229177   5.260   5.137  11.347 -0.4053 -0.9357  0.2891
 2588TIP3   OH229178   6.240   5.401  15.571 -0.3183 -0.5763  0.1365
 2588TIP3    H129179   6.245   5.496  15.585 -2.0608 -0.4766  0.3047
 2588TIP3    H229180   6.315   5.382  15.514 -0.6508  1.1188 -0.9674
 2589TIP3   OH229181   1.360   2.945  16.762  0.6669 -0.4180  0.5649
 2589TIP3    H129182   1.348   3.026  16.714 -0.8027 -0.7205  0.3837
 2589TIP3    H229183   1.442   2.958  16.811  0.6907  0.9719  0.1893
 2590TIP3   OH229184   1.146   1.023  13.696 -0.2604 -0.7457 -0.0040
 2590TIP3    H129185   1.109   0.979  13.619  1.7754 -0.1584 -1.4121
 2590TIP3    H229186   1.238   0.996  13.697  0.4929  1.5545  0.4454
 2591TIP3   OH229187   2.857   4.675   0.242 -0.2328  0.1055  0.6690
 2591TIP3    H129188   2.858   4.768   0.265 -1.3350 -0.2989  2.5415
 2591TIP3    H229189   2.920   4.635   0.302  1.9608 -0.1361 -1.6073
 2592TIP3   OH229190   1.652   4.868   0.060  0.1257  0.2907  0.1137
 2592TIP3    H129191   1.599   4.923   0.119  0.6326  1.2935 -0.3401
 2592TIP3    H229192   1.598   4.858  -0.018 -0.0492 -0.0220  0.2751
 2593TIP3   OH229193   5.896   2.367   0.541 -0.1846  0.0607 -0.0504
 2593TIP3    H129194   5.903   2.275   0.517 -0.6490  0.0816 -0.2819
 2593TIP3    H229195   5.950   2.413   0.477  0.3653 -0.0833  0.3068
 2594TIP3   OH229196   5.083   4.015   1.215 -0.1167 -0.0354  0.1100
 2594TIP3    H129197   5.122   3.962   1.284 -1.3638 -0.4600  0.5244
 2594TIP3    H229198   5.106   3.968   1.134  0.3106 -0.2129  0.3308
 2595TIP3   OH229199   2.316   1.231   3.909  0.6460  0.8090 -0.0193
 2595TIP3    H129200   2.224   1.204   3.913  0.1796  2.4373  1.1377
 2595TIP3    H229201   2.349   1.189   3.830 -0.7684 -0.7665  0.1758
 2596TIP3   OH229202   0.134   5.951   3.240  0.6682  0.0023  0.0102
 2596TIP3    H129203   0.099   5.909   3.318 -0.6839  1.1973  0.0993
 2596TIP3    H229204   0.121   5.887   3.170 -0.1975 -0.2211  0.3702
 2597TIP3   OH229205   5.974   3.023   1.489 -0.0303  0.3936 -0.7020
 2597TIP3    H129206   6.069   3.032   1.484  0.0086 -0.3744 -1.8220
 2597TIP3    H229207   5.960   2.947   1.545  0.0612 -0.1392 -1.3920
 2598TIP3   OH229208   4.782   2.497   6.956 -0.1510  0.5393 -0.0085
 2598TIP3    H129209   4.836   2.494   6.877 -0.2030  2.2657 -0.1421
 2598TIP3    H229210   4.829   2.441   7.018  0.6807  0.3353 -0.7882
 2599TIP3   OH229211   5.049   4.344   2.784 -0.8064 -0.2064  0.1550
 2599TIP3    H129212   4.988   4.387   2.725 -1.4925  1.1146  1.7387
 2599TIP3    H229213   5.058   4.255   2.749 -1.1430  0.5182 -1.9011
 2600TIP3   OH229214   4.506   6.004   3.349  0.4996  0.2398  0.0336
 2600TIP3    H129215   4.481   6.059   3.274  0.3413 -0.8647 -0.7473
 2600TIP3    H229216   4.593   6.037   3.374  0.2785  1.0474 -0.2111
 2601TIP3   OH229217   1.372   6.360  16.823  0.0638 -0.2537 -0.2254
 2601TIP3    H129218   1.410   6.286  16.869  1.3733  0.9302  0.7131
 2601TIP3    H229219   1.378   6.433  16.886 -0.3612  0.8512 -1.4137
 2602TIP3   OH229220   3.871   4.525  11.811 -0.0975  0.4833  0.5800
 2602TIP3    H129221   3.917   4.449  11.847 -1.2316 -0.7586 -0.4354
 2602TIP3    H229222   3.933   4.565  11.751  0.7433  0.7485  1.6171
 2603TIP3   OH229223   4.376   2.474   0.350  0.0686  0.8763 -0.9797
 2603TIP3    H129224   4.308   2.540   0.366 -0.4546  0.3155 -0.8590
 2603TIP3    H229225   4.335   2.412   0.289 -0.6292 -1.0962  1.3438
 2604TIP3   OH229226   6.400   5.060  12.117  0.2556 -0.1676 -0.0667
 2604TIP3    H129227   6.326   5.069  12.058  0.6938  0.7369 -0.5023
 2604TIP3    H229228   6.403   4.967  12.139 -0.6551 -0.3028 -0.4918
 2605TIP3   OH229229   3.881   5.303   3.635  0.3084 -0.6175 -0.4163
 2605TIP3    H129230   3.820   5.271   3.702  0.3292 -0.6465 -0.4112
 2605TIP3    H229231   3.877   5.237   3.566 -1.3247  0.4723 -1.4074
 2606TIP3   OH229232   5.752   1.420   2.157  0.6862 -0.1632 -0.2241
 2606TIP3    H129233   5.822   1.484   2.146  0.7803 -0.2239  0.0139
 2606TIP3    H229234   5.678   1.470   2.190  0.8548 -0.2293  0.2559
 2607TIP3   OH229235   2.383   1.500  12.930 -0.0175 -0.2082  0.5150
 2607TIP3    H129236   2.462   1.530  12.975  0.9209 -3.1625  1.0610
 2607TIP3    H229237   2.412   1.475  12.842 -0.9422  1.2879 -0.2449
 2608TIP3   OH229238   2.629   2.457  10.468  0.0250 -0.4406 -0.1050
 2608TIP3    H129239   2.690   2.390  10.499  0.6377  0.0052 -0.3397
 2608TIP3    H229240   2.609   2.510  10.546 -0.4781 -0.8967  0.0864
 2609TIP3   OH229241   1.005   0.685   1.512 -0.1934  0.2156  0.1478
 2609TIP3    H129242   1.095   0.683   1.545  0.5398 -1.2194 -1.7143
 2609TIP3    H229243   1.012   0.729   1.427 -1.0841 -0.6463 -0.3955
 2610TIP3   OH229244   1.696   4.154   2.170 -0.1066  0.6160  0.1326
 2610TIP3    H129245   1.633   4.208   2.218  0.6845  0.1094  1.7928
 2610TIP3    H229246   1.645   4.115   2.099 -1.2008  1.7532  0.2707
 2611TIP3   OH229247   4.427   0.317  17.202 -0.4146 -0.4347  0.0383
 2611TIP3    H129248   4.466   0.366  17.129 -2.4731  0.4072 -0.5691
 2611TIP3    H229249   4.336   0.302  17.175 -0.9986 -0.8788  2.0547
 2612TIP3   OH229250   6.318   0.181   2.506  0.0854 -0.2983  0.0271
 2612TIP3    H129251   6.370   0.115   2.460 -0.4654  0.7593 -2.2717
 2612TIP3    H229252   6.361   0.264   2.485  0.1306  0.2228  1.9721
 2613TIP3   OH229253   2.296   2.966   1.993  0.2785 -0.2091 -0.2461
 2613TIP3    H129254   2.374   3.021   1.982  0.2960  1.1685  4.4694
 2613TIP3    H229255   2.331   2.878   2.008  0.7792 -0.0146 -0.2582
 2614TIP3   OH229256   1.500   5.015   1.450  0.2767  0.1339 -0.3108
 2614TIP3    H129257   1.546   4.931   1.444  0.1474  0.0453 -0.0623
 2614TIP3    H229258   1.407   4.992   1.441  0.2659  0.2955 -0.6528
 2615TIP3   OH229259   6.112   1.211   1.096 -0.2530  0.2593 -0.1590
 2615TIP3    H129260   6.190   1.217   1.151 -0.2071  1.5682 -0.3554
 2615TIP3    H229261   6.055   1.281   1.126 -0.6136  0.4203 -1.1789
 2616TIP3   OH229262   0.660   1.005  13.740  0.0324 -0.5878 -0.3323
 2616TIP3    H129263   0.707   0.921  13.741  3.0672  0.9843  0.3231
 2616TIP3    H229264   0.619   1.010  13.826  0.3372 -1.1589 -0.1463
 2617TIP3   OH229265   4.364   6.184   0.030 -0.0555  0.3933  0.5329
 2617TIP3    H129266   4.398   6.260   0.079 -0.8436  1.0977  0.0136
 2617TIP3    H229267   4.400   6.108   0.076  0.1675  1.0633  1.4995
 2618TIP3   OH229268   4.921   2.875   3.901  0.1335  0.1574  0.0426
 2618TIP3    H129269   4.898   2.956   3.947  0.1336 -0.3292  0.9330
 2618TIP3    H229270   4.994   2.840   3.951 -0.7918 -1.1264  0.5628
 2619TIP3   OH229271   5.160   3.711  10.967  0.4561 -0.1595 -0.8596
 2619TIP3    H129272   5.223   3.648  11.002  0.4296 -1.1512 -2.4959
 2619TIP3    H229273   5.206   3.795  10.969  1.1877 -0.5640 -0.4115
 2620TIP3   OH229274   1.180   6.144   4.809  0.4096  0.6556 -0.1342
 2620TIP3    H129275   1.094   6.166   4.773 -0.4524 -2.6602 -0.4268
 2620TIP3    H229276   1.169   6.151   4.904 -0.5643 -0.8690 -0.1196
 2621TIP3   OH229277   3.724   3.051  16.166  0.4132  0.1947  0.6443
 2621TIP3    H129278   3.775   3.069  16.087 -0.7070  0.8354  0.0348
 2621TIP3    H229279   3.752   2.964  16.194  1.5030  0.3511  0.0862
 2622TIP3   OH229280   4.995   1.394   6.184  0.2082 -0.3832  0.2330
 2622TIP3    H129281   4.961   1.466   6.235 -2.6413  0.0806 -2.0705
 2622TIP3    H229282   4.981   1.316   6.238 -2.0362  0.1684  0.5403
 2623TIP3   OH229283   2.191   0.666   3.754  0.0828  0.1417  0.1820
 2623TIP3    H129284   2.104   0.677   3.793  0.6843  0.2666  1.5450
 2623TIP3    H229285   2.252   0.695   3.822  1.2193 -0.4958 -0.5310
 2624TIP3   OH229286   5.366   1.123  11.953 -0.2223  0.2549 -0.1747
 2624TIP3    H129287   5.399   1.129  12.043 -0.1660 -1.1311 -0.0849
 2624TIP3    H229288   5.445   1.121  11.899 -0.2164 -0.3402 -0.1488
 2625TIP3   OH229289   3.107   0.699  13.993 -0.5233  0.0542  0.2647
 2625TIP3    H129290   3.116   0.746  14.076 -1.8269  0.7412  0.0397
 2625TIP3    H229291   3.026   0.733  13.954 -1.0357 -1.7359 -0.3339
 2626TIP3   OH229292   2.482   0.213  11.516  0.6407 -0.3316  0.2762
 2626TIP3    H129293   2.494   0.118  11.519  0.2476 -0.4007 -0.0978
 2626TIP3    H229294   2.398   0.224  11.471 -0.1118  0.1445  1.7264
 2627TIP3   OH229295   3.627   0.737   4.919  0.0120  0.1351  0.3316
 2627TIP3    H129296   3.717   0.728   4.951  0.2381  2.6381  0.6169
 2627TIP3    H229297   3.625   0.824   4.879 -1.8364 -0.5860 -1.2937
 2628TIP3   OH229298   3.414   3.245  12.372 -0.2813 -0.0413  0.0927
 2628TIP3    H129299   3.484   3.218  12.313  0.3722 -0.6951  1.1479
 2628TIP3    H229300   3.382   3.164  12.410 -0.1342  0.4374  1.2677
 2629TIP3   OH229301   2.060   5.347  16.433  0.3460 -0.8026 -0.3832
 2629TIP3    H129302   2.086   5.427  16.479  1.2873 -0.6764 -1.1203
 2629TIP3    H229303   2.142   5.302  16.415 -0.2296 -2.5754  1.1081
 2630TIP3   OH229304   5.404   5.263   2.675 -0.4057  0.6297 -0.2936
 2630TIP3    H129305   5.443   5.254   2.762 -2.5391  1.5909  0.8399
 2630TIP3    H229306   5.413   5.177   2.635  0.2532  0.0556  1.0450
 2631TIP3   OH229307   3.804   6.043  13.420  0.1514 -0.1728 -0.4798
 2631TIP3    H129308   3.784   6.131  13.451 -1.4185 -1.0794  1.2782
 2631TIP3    H229309   3.899   6.043  13.410  0.2866  1.4329  0.4129
 2632TIP3   OH229310   0.991   3.557  15.850 -0.9055 -0.1829 -0.2971
 2632TIP3    H129311   1.051   3.528  15.781  0.6471  0.1354  0.8689
 2632TIP3    H229312   0.922   3.491  15.850 -0.5506 -0.5914 -1.6556
 2633TIP3   OH229313   3.537   0.659  12.168  0.4554  0.0131  0.4607
 2633TIP3    H129314   3.469   0.636  12.105  2.3901 -0.4169 -1.6265
 2633TIP3    H229315   3.563   0.575  12.206  1.6019 -0.2156 -0.7523
 2634TIP3   OH229316   0.659   1.902  13.379  0.4522  0.1146 -0.6332
 2634TIP3    H129317   0.727   1.861  13.326  0.2453 -1.6532  0.3806
 2634TIP3    H229318   0.577   1.870  13.342  0.2055  1.0835 -0.9465
 2635TIP3   OH229319   0.418   3.874  16.093  0.0597  0.2415  0.0894
 2635TIP3    H129320   0.429   3.787  16.132 -0.0119  0.5013  0.6892
 2635TIP3    H229321   0.380   3.927  16.163  1.5131  1.1525  0.2119
 2636TIP3   OH229322   3.660   4.442   6.582  0.3685 -0.1974 -0.1470
 2636TIP3    H129323   3.642   4.520   6.529  2.4245 -0.4720 -1.3624
 2636TIP3    H229324   3.695   4.476   6.664  0.2895  0.1646 -0.2618
 2637TIP3   OH229325   1.090   6.068   6.396 -0.1296  0.0768  0.2102
 2637TIP3    H129326   1.012   6.022   6.363  0.0961 -0.4770  0.4438
 2637TIP3    H229327   1.163   6.012   6.370  0.4096  1.6029 -1.8469
 2638TIP3   OH229328   3.147   3.603   0.624 -0.6796 -0.2123 -0.8209
 2638TIP3    H129329   3.108   3.516   0.623 -2.9984  0.7707 -1.1390
 2638TIP3    H229330   3.159   3.626   0.532 -1.3702  0.3191 -0.7907
 2639TIP3   OH229331   4.833   5.313  13.486  0.2544  0.3093 -0.2769
 2639TIP3    H129332   4.884   5.394  13.497 -0.2509  0.5871  0.0664
 2639TIP3    H229333   4.895   5.251  13.448  0.7197  0.7839 -0.3098
 2640TIP3   OH229334   0.447   5.674  15.810 -0.6781  0.6832  0.1184
 2640TIP3    H129335   0.410   5.658  15.723  0.0447  0.3333 -0.1360
 2640TIP3    H229336   0.497   5.595  15.830  1.7694  1.9481 -0.5286
 2641TIP3   OH229337   1.221   2.507  13.369  0.7253 -0.2912  0.0242
 2641TIP3    H129338   1.148   2.482  13.313  0.0349 -0.2056  0.8602
 2641TIP3    H229339   1.299   2.489  13.317  0.1698 -1.8545 -0.3178
 2642TIP3   OH229340   0.294   0.787   2.729  0.0874  0.0667 -0.1665
 2642TIP3    H129341   0.380   0.799   2.688  0.5797 -1.5849  0.3088
 2642TIP3    H229342   0.258   0.709   2.687  0.4131 -1.4254  2.1296
 2643TIP3   OH229343   4.677   2.995  13.691  0.0404  0.4065  0.5112
 2643TIP3    H129344   4.703   3.079  13.654  1.0301  0.1828  0.6755
 2643TIP3    H229345   4.752   2.968  13.744 -0.3140 -0.5279  0.5512
 2644TIP3   OH229346   3.364   5.474   1.873 -0.0453  0.3314 -1.1945
 2644TIP3    H129347   3.438   5.534   1.871 -0.5927  1.3206  2.0163
 2644TIP3    H229348   3.402   5.388   1.858  1.7695  0.8303  0.1841
 2645TIP3   OH229349   4.813   5.289  15.695 -0.2553 -0.4729  0.4613
 2645TIP3    H129350   4.842   5.248  15.613 -0.0141 -1.7993  1.1814
 2645TIP3    H229351   4.759   5.222  15.737 -0.2547  0.1366  1.4577
 2646TIP3   OH229352   5.792   2.120  14.919  0.4950  0.1902 -0.0273
 2646TIP3    H129353   5.699   2.130  14.899  0.1397 -1.5411  0.5556
 2646TIP3    H229354   5.837   2.169  14.849 -0.8310  1.5327  0.0084
 2647TIP3   OH229355   4.419   1.781   2.895 -0.2226 -0.0955 -0.1604
 2647TIP3    H129356   4.464   1.865   2.895 -0.7288  0.1858 -0.6444
 2647TIP3    H229357   4.344   1.794   2.953 -0.4830 -0.0990 -0.4857
 2648TIP3   OH229358   1.225   6.627  14.929 -1.0042 -0.3004  0.5603
 2648TIP3    H129359   1.288   6.630  15.001 -0.3661  0.3177 -0.0017
 2648TIP3    H229360   1.269   6.576  14.861 -1.6305 -0.9408  0.6285
 2649TIP3   OH229361   4.786   1.087   1.938 -0.3367 -0.7312 -0.8418
 2649TIP3    H129362   4.776   1.016   1.875  0.9761 -1.6618 -0.0506
 2649TIP3    H229363   4.870   1.070   1.982 -0.7619  0.3897  0.5146
 2650TIP3   OH229364   5.858   1.772   0.462 -0.7991  0.1285 -0.1395
 2650TIP3    H129365   5.931   1.809   0.412 -0.9087 -0.1525 -0.5105
 2650TIP3    H229366   5.886   1.682   0.482 -1.1337 -0.0535 -0.4751
 2651TIP3   OH229367   4.868   2.610   5.705 -0.0236 -0.5157  0.0428
 2651TIP3    H129368   4.805   2.636   5.638 -0.5384  1.2063  1.1103
 2651TIP3    H229369   4.825   2.538   5.752 -0.0133 -1.1629 -0.9048
 2652TIP3   OH229370   2.668   1.973   4.038 -0.5130 -0.2220 -0.2922
 2652TIP3    H129371   2.734   2.026   4.083 -0.5274 -0.1040 -0.4105
 2652TIP3    H229372   2.648   1.902   4.100 -0.9970  0.2963  0.1485
 2653TIP3   OH229373   4.060   0.254   3.137  0.6602 -0.1780 -0.1420
 2653TIP3    H129374   4.036   0.272   3.046 -1.1287 -0.0974  0.3050
 2653TIP3    H229375   3.980   0.271   3.187  2.1142  1.7436  1.7297
 2654TIP3   OH229376   4.956   5.683  14.396 -0.1913 -0.4032 -0.3958
 2654TIP3    H129377   4.974   5.710  14.306 -0.7584 -1.8029 -0.9623
 2654TIP3    H229378   4.885   5.619  14.388 -0.5257 -0.2464  1.0907
 2655TIP3   OH229379   1.629   5.020   3.575 -0.3389  0.2357 -0.0180
 2655TIP3    H129380   1.608   4.935   3.536  0.9779 -0.6961  1.1987
 2655TIP3    H229381   1.656   4.999   3.665  1.3580  1.7931 -0.1153
 2656TIP3   OH229382   5.314   2.088  16.954 -0.0665  0.9791 -0.1374
 2656TIP3    H129383   5.410   2.089  16.954 -0.0580  1.8840 -0.7971
 2656TIP3    H229384   5.290   2.099  17.045  0.4438 -0.1964  0.1643
 2657TIP3   OH229385   3.466   3.905   1.639  0.1785  0.1611 -0.1028
 2657TIP3    H129386   3.430   3.824   1.675  2.0817 -0.4749  0.5207
 2657TIP3    H229387   3.548   3.878   1.598  2.6418  2.1417  3.0402
 2658TIP3   OH229388   3.972   0.261   3.799 -0.2680 -0.2500 -0.7067
 2658TIP3    H129389   3.909   0.218   3.858  0.6514  0.3583  0.7810
 2658TIP3    H229390   4.015   0.189   3.754  0.1291 -0.8519  0.5802
 2659TIP3   OH229391   3.669   4.919  15.301  0.0648 -0.2974  0.0382
 2659TIP3    H129392   3.683   5.005  15.339  0.5862  0.0245 -0.8665
 2659TIP3    H229393   3.675   4.858  15.376 -1.3229  0.5161  0.8520
 2660TIP3   OH229394   2.882   4.940  15.867  0.2175 -0.6983  0.2317
 2660TIP3    H129395   2.848   4.861  15.911 -0.4080 -0.3125  0.4536
 2660TIP3    H229396   2.976   4.938  15.885  0.4936 -2.2318 -1.0922
 2661TIP3   OH229397   6.181   4.228   3.724 -0.2642 -0.3083 -0.1422
 2661TIP3    H129398   6.253   4.210   3.785  1.7157 -1.4688 -2.6348
 2661TIP3    H229399   6.178   4.151   3.667 -2.9065  0.1331 -0.7223
 2662TIP3   OH229400   6.628   5.099   1.125 -0.2186  0.3815  0.7580
 2662TIP3    H129401   6.553   5.040   1.116 -0.5322  1.0721 -2.3784
 2662TIP3    H229402   6.603   5.161   1.193 -1.4894 -0.7910  1.4008
 2663TIP3   OH229403   6.008   2.206   4.742 -0.1807  0.1397 -0.4057
 2663TIP3    H129404   6.077   2.266   4.772  0.0841  0.3036 -1.3334
 2663TIP3    H229405   5.928   2.260   4.741  0.1711  0.6833 -1.8581
 2664TIP3   OH229406   2.375   3.314   3.248  0.3600  0.0754  0.1356
 2664TIP3    H129407   2.383   3.294   3.155  3.9525 -1.4512  0.6207
 2664TIP3    H229408   2.303   3.259   3.279 -1.0612  0.8060 -1.7125
 2665TIP3   OH229409   1.477   5.090  11.103  0.3739 -0.2407  0.3481
 2665TIP3    H129410   1.557   5.132  11.135  0.0712  0.8796 -0.3146
 2665TIP3    H229411   1.431   5.159  11.056  0.5377 -1.6364 -2.0465
 2666TIP3   OH229412   6.217   2.368   2.059 -0.2801  0.0327 -0.0731
 2666TIP3    H129413   6.209   2.393   1.967  1.7629  0.2240 -0.2598
 2666TIP3    H229414   6.260   2.443   2.100  0.3563 -0.7157  0.6631
 2667TIP3   OH229415   1.531   2.638  13.559  0.5829  0.0828 -0.1351
 2667TIP3    H129416   1.616   2.646  13.602 -0.2753  1.1022  1.4657
 2667TIP3    H229417   1.528   2.711  13.497  0.1079  1.3132  1.2728
 2668TIP3   OH229418   2.023   4.411   1.635 -0.3540  0.2279  0.9323
 2668TIP3    H129419   2.064   4.325   1.635  0.1039  0.4396  1.7734
 2668TIP3    H229420   2.052   4.452   1.554  1.1579  0.4023  1.5441
 2669TIP3   OH229421   0.743   0.264   2.187  0.0417  0.1015 -0.3119
 2669TIP3    H129422   0.704   0.351   2.175 -1.9326 -0.7264 -0.3473
 2669TIP3    H229423   0.753   0.256   2.282 -3.6992 -1.0997  0.1620
 2670TIP3   OH229424   4.476   0.858  14.592  0.3905 -0.2662 -0.0939
 2670TIP3    H129425   4.401   0.818  14.636  1.1258 -1.0567  0.4709
 2670TIP3    H229426   4.548   0.795  14.604  1.0907  0.3749 -0.8001
 2671TIP3   OH229427   5.898   3.201  16.059 -0.1647 -0.6116 -0.2872
 2671TIP3    H129428   5.861   3.113  16.071  0.8011 -0.8893  0.9095
 2671TIP3    H229429   5.987   3.194  16.095  0.2929  0.5923 -1.1342
 2672TIP3   OH229430   2.659   6.718  15.222 -0.5628  0.4039 -0.2227
 2672TIP3    H129431   2.667   6.624  15.205  0.0690  0.4763 -0.3275
 2672TIP3    H229432   2.741   6.756  15.191 -0.7208  0.9661  0.0267
 2673TIP3   OH229433   2.629   0.654   0.246 -0.1131 -0.3924 -0.0015
 2673TIP3    H129434   2.596   0.698   0.168 -0.1531  0.5629  0.5410
 2673TIP3    H229435   2.719   0.630   0.224  0.5963  1.7452  0.3726
 2674TIP3   OH229436   1.422   1.364   3.710 -0.3564  0.5548  0.0428
 2674TIP3    H129437   1.379   1.436   3.756  1.8297  1.7109  0.4291
 2674TIP3    H229438   1.513   1.393   3.700  0.5157 -1.9874 -0.1523
 2675TIP3   OH229439   0.564   1.750   1.965  0.2733  0.2429  0.0184
 2675TIP3    H129440   0.480   1.727   2.005  0.3775  0.6914  0.5057
 2675TIP3    H229441   0.558   1.718   1.875  0.1161 -0.9850  0.4461
 2676TIP3   OH229442   0.930   2.011   2.411 -0.4216  0.3113 -0.2441
 2676TIP3    H129443   1.003   1.949   2.414 -0.5111  0.1745 -0.7550
 2676TIP3    H229444   0.940   2.064   2.490 -0.0934 -0.0740 -0.0254
 2677TIP3   OH229445   4.639   0.056   2.949  0.1207 -0.1054  0.0394
 2677TIP3    H129446   4.697  -0.003   2.902 -1.2622 -0.1355 -1.7460
 2677TIP3    H229447   4.695   0.100   3.013  1.8363 -0.9657 -0.8193
 2678TIP3   OH229448   5.931   6.438   5.719 -0.4112 -0.3485  0.1127
 2678TIP3    H129449   5.905   6.346   5.715  1.1473 -0.8173 -0.3239
 2678TIP3    H229450   6.011   6.437   5.772  1.1522  0.3274 -2.0793
 2679TIP3   OH229451   3.722   3.677   5.465  0.0013  0.5307  0.5354
 2679TIP3    H129452   3.655   3.745   5.461 -1.1691 -0.5781  0.6990
 2679TIP3    H229453   3.745   3.661   5.373  1.8152  2.5680  0.5785
 2680TIP3   OH229454   0.595   6.660   5.298  0.2201  0.3698  0.2231
 2680TIP3    H129455   0.601   6.730   5.234  1.6606 -0.1358 -0.2306
 2680TIP3    H229456   0.649   6.689   5.371  0.2526  0.0432  0.3313
 2681TIP3   OH229457   0.851   4.617   2.407  0.7233  0.6487 -0.3569
 2681TIP3    H129458   0.777   4.674   2.383  0.9894  2.0786  1.9627
 2681TIP3    H229459   0.850   4.548   2.340 -2.5017  0.7867 -0.6193
 2682TIP3   OH229460   5.897   1.790  14.653 -0.1920  0.2141  0.1581
 2682TIP3    H129461   5.945   1.863  14.615 -0.3091 -0.2352 -0.8881
 2682TIP3    H229462   5.806   1.821  14.660 -0.6918 -0.5189 -2.2945
 2683TIP3   OH229463   6.491   0.529   6.088 -0.4846 -0.0699  0.0272
 2683TIP3    H129464   6.442   0.495   6.162  1.7167 -0.4164  1.4275
 2683TIP3    H229465   6.481   0.463   6.020 -0.2396 -1.1526  1.0210
 2684TIP3   OH229466   5.023   0.311  12.892 -0.0292  0.0909  0.0331
 2684TIP3    H129467   5.117   0.317  12.879 -0.1285  0.5369 -0.5506
 2684TIP3    H229468   5.001   0.220  12.875  0.4372 -0.2709  1.2377
 2685TIP3   OH229469   1.802   2.843   3.887  0.5084  0.3170  0.5925
 2685TIP3    H129470   1.741   2.870   3.955  0.7188  0.4364  0.7354
 2685TIP3    H229471   1.886   2.835   3.932  0.4174 -0.7640  0.5910
 2686TIP3   OH229472   5.098   2.942  14.657  0.1270  0.3517  0.0768
 2686TIP3    H129473   5.091   2.849  14.677 -0.8855  0.8290  2.1734
 2686TIP3    H229474   5.008   2.970  14.639 -0.0956  1.4670  2.4495
 2687TIP3   OH229475   2.122   3.925  16.237 -0.0797  1.1969  0.2940
 2687TIP3    H129476   2.094   3.943  16.147 -3.0693  2.0525  1.2945
 2687TIP3    H229477   2.112   4.009  16.282 -1.1856  0.2088  1.9888
 2688TIP3   OH229478   4.527   3.504  13.864  0.0202 -0.8046  0.5406
 2688TIP3    H129479   4.507   3.510  13.771 -1.3405 -0.1370  0.8582
 2688TIP3    H229480   4.505   3.591  13.899  2.4386 -0.3443  1.1554
 2689TIP3   OH229481   4.642   5.303  17.130  0.1084 -0.2752  0.1073
 2689TIP3    H129482   4.704   5.295  17.203 -3.2879  0.3872  3.3779
 2689TIP3    H229483   4.653   5.394  17.100  1.2520 -0.4227  0.0372
 2690TIP3   OH229484   5.311   4.899  15.168  0.4415 -0.4199  0.0498
 2690TIP3    H129485   5.219   4.921  15.156  0.3017 -1.4596 -0.9618
 2690TIP3    H229486   5.320   4.879  15.261  0.0278  1.3016  0.4964
 2691TIP3   OH229487   3.468   4.751  14.304  0.1944  0.1555  0.6637
 2691TIP3    H129488   3.500   4.757  14.215 -0.9078  1.0778  0.3011
 2691TIP3    H229489   3.455   4.657  14.319  3.7823 -0.4084  1.1746
 2692TIP3   OH229490   6.687   4.319  12.261 -0.3974 -0.3339 -0.7496
 2692TIP3    H129491   6.750   4.378  12.301 -0.3100 -0.7126 -0.3195
 2692TIP3    H229492   6.612   4.375  12.240 -0.6668 -0.2020  0.4392
 2693TIP3   OH229493   2.822   4.147   4.132  0.0029 -0.3155  0.0021
 2693TIP3    H129494   2.863   4.174   4.050 -0.2516 -0.0387 -0.0371
 2693TIP3    H229495   2.786   4.061   4.114 -0.7952  0.1015 -0.4416
 2694TIP3   OH229496   2.718   3.012  15.553  0.8555 -0.5098 -0.0024
 2694TIP3    H129497   2.799   3.007  15.604  2.2822 -0.1343 -2.0648
 2694TIP3    H229498   2.696   2.921  15.533 -1.1916 -0.8884  3.2528
 2695TIP3   OH229499   1.375   6.143  13.789  0.0649  0.0464  1.0490
 2695TIP3    H129500   1.437   6.094  13.843  0.9669  1.0970  1.0201
 2695TIP3    H229501   1.384   6.106  13.702  0.4376 -0.0149  1.1103
 2696TIP3   OH229502   0.628   1.992  16.506 -0.1565 -0.0884  0.8453
 2696TIP3    H129503   0.624   1.897  16.504  2.3869 -0.4038  3.7846
 2696TIP3    H229504   0.539   2.019  16.531 -1.1445 -1.5357 -0.8749
 2697TIP3   OH229505   3.188   6.074   0.594  0.1986 -0.0517 -0.3329
 2697TIP3    H129506   3.092   6.074   0.595  0.1892 -0.6678  1.1122
 2697TIP3    H229507   3.211   6.167   0.589 -0.4133  0.0515 -2.9087
 2698TIP3   OH229508   2.187   2.319   6.251 -0.3031 -0.6559 -0.2539
 2698TIP3    H129509   2.281   2.326   6.271 -0.4761  0.5377  0.2207
 2698TIP3    H229510   2.145   2.379   6.313 -1.2216  0.0961 -1.5630
 2699TIP3   OH229511   1.171   5.556  14.582 -0.4044  0.2385  0.4986
 2699TIP3    H129512   1.206   5.581  14.667 -1.5737  0.0608  1.0458
 2699TIP3    H229513   1.136   5.468  14.596 -0.5813  0.1982 -0.1723
 2700TIP3   OH229514   1.691   3.517  16.178  0.2872 -0.2299  0.1330
 2700TIP3    H129515   1.753   3.588  16.194 -0.8585  0.4991  1.4445
 2700TIP3    H229516   1.621   3.558  16.127 -0.8294 -0.1599  1.6794
 2701TIP3   OH229517   5.399   2.550   1.839  0.0743  0.5357 -0.0048
 2701TIP3    H129518   5.416   2.629   1.788 -0.7116  1.5521  1.2318
 2701TIP3    H229519   5.380   2.582   1.927 -0.1025 -1.0511  0.5715
 2702TIP3   OH229520   1.172   4.760  14.259  0.4330 -0.1490  0.0539
 2702TIP3    H129521   1.233   4.719  14.197  0.0041 -0.9839  0.1774
 2702TIP3    H229522   1.134   4.687  14.308 -0.3511  0.3981  0.2786
 2703TIP3   OH229523   6.682   6.612  11.759  0.1066 -0.2451  0.1990
 2703TIP3    H129524   6.742   6.591  11.830  0.0369  1.5842  0.8468
 2703TIP3    H229525   6.692   6.707  11.746  1.2321 -0.6841 -3.2463
 2704TIP3   OH229526   3.670   1.307  12.764 -0.2806 -0.2947 -0.0695
 2704TIP3    H129527   3.663   1.381  12.703 -1.4329 -0.3540 -0.0431
 2704TIP3    H229528   3.694   1.347  12.848  0.0061 -0.0570 -0.2643
 2705TIP3   OH229529   2.169   0.053  13.204  0.2383 -0.3543  0.0577
 2705TIP3    H129530   2.113   0.046  13.281 -0.6411 -1.2827 -0.6356
 2705TIP3    H229531   2.134  -0.012  13.143 -0.5685  1.8747 -2.0334
 2706TIP3   OH229532   3.630   1.547   1.286 -0.3449  0.0519  0.2919
 2706TIP3    H129533   3.724   1.562   1.271 -0.1491 -0.9618  0.4187
 2706TIP3    H229534   3.595   1.634   1.304  0.4945  0.5046 -0.1768
 2707TIP3   OH229535   1.244   2.421   3.338 -0.0061 -0.0962  0.3971
 2707TIP3    H129536   1.290   2.497   3.305 -2.6072  1.2160 -0.5023
 2707TIP3    H229537   1.311   2.354   3.348  2.0345  1.6638 -0.7633
 2708TIP3   OH229538   5.139   2.230   1.022  0.1172 -0.0182  0.7070
 2708TIP3    H129539   5.180   2.244   0.936 -0.9254 -1.0865 -0.0119
 2708TIP3    H229540   5.126   2.317   1.057  1.0783  0.4212  0.0311
 2709TIP3   OH229541   0.600   0.010   0.882  0.1182 -0.1854 -0.0540
 2709TIP3    H129542   0.515  -0.006   0.843 -0.1267 -0.1657  0.4590
 2709TIP3    H229543   0.644   0.071   0.822 -0.5652  0.4928  0.1237
 2710TIP3   OH229544   1.768   2.873   5.417  0.3497  0.5312  0.2268
 2710TIP3    H129545   1.750   2.862   5.511  0.4341  0.6515  0.2572
 2710TIP3    H229546   1.692   2.832   5.374 -0.2329  1.4412  0.3586
 2711TIP3   OH229547   3.993   6.564   5.088  0.0688  0.3273  0.7742
 2711TIP3    H129548   3.958   6.571   5.177  1.0588  2.4885  1.0660
 2711TIP3    H229549   4.087   6.549   5.101  0.3444  1.4005  0.1250
 2712TIP3   OH229550   0.975   3.422  16.448 -0.2254 -0.5714  0.1522
 2712TIP3    H129551   1.051   3.424  16.390 -0.6381  0.4933 -0.3738
 2712TIP3    H229552   0.988   3.498  16.506 -0.3776 -0.9828  0.7374
 2713TIP3   OH229553   4.016   0.995  13.976 -0.6295  0.3425 -0.1696
 2713TIP3    H129554   3.954   1.053  14.020 -0.0553  0.4636  0.4944
 2713TIP3    H229555   3.962   0.941  13.918 -1.5670 -0.6269  1.5254
 2714TIP3   OH229556   1.212   2.834   2.559 -0.2726  0.1505 -0.1080
 2714TIP3    H129557   1.304   2.847   2.538  0.0878 -1.3540  0.4306
 2714TIP3    H229558   1.192   2.745   2.530 -1.7103  0.6217 -0.6892
 2715TIP3   OH229559   5.516   4.958  11.986  0.4834  0.3360  0.1669
 2715TIP3    H129560   5.435   4.924  11.948  1.1674 -0.1568 -0.8701
 2715TIP3    H229561   5.488   5.035  12.036 -0.4553  1.0258 -1.3461
 2716TIP3   OH229562   0.651   3.965   1.284  0.3294 -0.1263  0.2221
 2716TIP3    H129563   0.576   3.906   1.283  0.0257  0.2360  0.7745
 2716TIP3    H229564   0.650   4.003   1.372  2.4630 -1.7701  1.0471
 2717TIP3   OH229565   1.264   1.574   3.826 -0.8384 -0.4259 -0.1969
 2717TIP3    H129566   1.252   1.594   3.733  0.3666  0.3664 -0.2018
 2717TIP3    H229567   1.252   1.659   3.870 -1.0202 -0.7262  0.3432
 2718TIP3   OH229568   3.582   5.746  15.026  0.0550  0.1389  0.2927
 2718TIP3    H129569   3.610   5.803  15.098  0.7570 -0.7659  0.7666
 2718TIP3    H229570   3.641   5.670  15.032 -0.3104 -0.2526 -0.8322
 2719TIP3   OH229571   6.662   5.296   1.988  0.1558  0.2475 -0.1641
 2719TIP3    H129572   6.589   5.353   2.010  0.2841  1.1869 -1.9343
 2719TIP3    H229573   6.622   5.225   1.937  0.5177  1.3030 -2.0332
 2720TIP3   OH229574   3.252   0.493  14.650 -0.8249  0.0977 -0.1754
 2720TIP3    H129575   3.230   0.580  14.616 -1.1092 -0.0172 -0.2915
 2720TIP3    H229576   3.233   0.434  14.578 -1.1676 -0.1186  0.0913
 2721TIP3   OH229577   4.406   0.542  15.223 -0.3983  0.0353 -0.0461
 2721TIP3    H129578   4.379   0.478  15.289  1.7232  0.1784  1.0305
 2721TIP3    H229579   4.469   0.496  15.168 -0.4844  0.5701 -0.6097
 2722TIP3   OH229580   4.856   0.075  16.611  0.1051  0.4963 -0.2711
 2722TIP3    H129581   4.935   0.066  16.666  1.2264 -2.9292 -2.1512
 2722TIP3    H229582   4.886   0.053  16.523 -2.5111  1.6695 -1.5561
 2723TIP3   OH229583   1.621   2.106  15.680  0.0969 -0.2787 -0.3264
 2723TIP3    H129584   1.661   2.036  15.731 -0.3345  1.3025  2.3436
 2723TIP3    H229585   1.542   2.066  15.642  0.1916 -1.3964  0.5996
 2724TIP3   OH229586   1.012   1.843   0.491  0.4097  0.3233 -0.2310
 2724TIP3    H129587   1.050   1.925   0.458 -1.1323  0.6002 -1.4183
 2724TIP3    H229588   1.014   1.784   0.416 -2.6335  0.7757 -0.8109
 2725TIP3   OH229589   2.589   4.062   3.934 -0.1677 -0.7435  0.0540
 2725TIP3    H129590   2.620   4.130   3.874 -2.1599 -0.4606 -0.7600
 2725TIP3    H229591   2.644   3.986   3.916  0.8044  0.0648 -0.4366
 2726TIP3   OH229592   2.471   2.842  16.351 -0.5910  0.2524  0.2036
 2726TIP3    H129593   2.503   2.878  16.268 -0.1961  1.5300  0.8768
 2726TIP3    H229594   2.376   2.845  16.344 -0.5607  0.0797 -0.3104
 2727TIP3   OH229595   2.632   6.068   5.253 -0.1073 -0.1788 -0.1515
 2727TIP3    H129596   2.726   6.068   5.233  0.2177 -0.4246  1.2047
 2727TIP3    H229597   2.620   5.989   5.306 -0.5935  1.0438  1.6576
 2728TIP3   OH229598   0.538   3.506  16.694  0.1984  0.3305 -0.1395
 2728TIP3    H129599   0.592   3.428  16.684  0.1419  0.3643 -0.7002
 2728TIP3    H229600   0.554   3.535  16.784  1.4333  0.5823 -0.4301
 2729TIP3   OH229601   1.907   0.003   5.648 -0.3022 -0.0922 -0.0408
 2729TIP3    H129602   1.857   0.041   5.720 -0.9243  0.5233 -0.7860
 2729TIP3    H229603   1.855   0.019   5.571  0.9180  0.3057 -0.8114
 2730TIP3   OH229604   3.578   0.702  14.021  0.4686  0.8069 -0.5536
 2730TIP3    H129605   3.650   0.765  14.025  0.2392  1.2879 -2.6932
 2730TIP3    H229606   3.617   0.624  13.983  0.4369  0.1206  0.7926
 2731TIP3   OH229607   3.755   6.604  15.555 -0.2085 -0.7070 -0.4403
 2731TIP3    H129608   3.664   6.606  15.528 -0.3348 -0.6903 -0.0209
 2731TIP3    H229609   3.802   6.650  15.485 -0.7398  0.8835  0.2150
 2732TIP3   OH229610   2.627   3.181   2.737 -0.0649  0.7662  0.6898
 2732TIP3    H129611   2.577   3.244   2.685  0.3103  0.0554 -0.5915
 2732TIP3    H229612   2.562   3.120   2.771 -0.1436 -0.0141 -0.7691
 2733TIP3   OH229613   6.046   4.442   0.418  0.2780 -0.7485  0.0868
 2733TIP3    H129614   6.015   4.433   0.508  0.6026 -1.5814  0.1221
 2733TIP3    H229615   6.117   4.378   0.411  0.4037 -0.5293 -0.6949
 2734TIP3   OH229616   5.348   3.816  13.397  0.0023  0.3011  0.0564
 2734TIP3    H129617   5.301   3.734  13.410 -0.0289  0.4233  0.7348
 2734TIP3    H229618   5.427   3.791  13.349 -1.0226  0.1790 -1.6539
 2735TIP3   OH229619   5.334   5.740   5.357 -0.4624 -0.2164  0.3015
 2735TIP3    H129620   5.343   5.780   5.444 -0.4671 -0.6216  0.4923
 2735TIP3    H229621   5.384   5.659   5.363 -1.1791 -0.6734  0.1999
 2736TIP3   OH229622   0.963   5.978   0.616  0.0472 -0.2088 -0.2254
 2736TIP3    H129623   0.874   5.974   0.580  0.6376  0.7793 -1.8823
 2736TIP3    H229624   1.019   5.990   0.540  1.5252  0.2083  0.8928
 2737TIP3   OH229625   0.766   0.281  15.826 -0.0415 -0.2016  0.7517
 2737TIP3    H129626   0.703   0.341  15.865  0.4898  0.5004  0.5356
 2737TIP3    H229627   0.800   0.327  15.749  1.0019 -0.4096  1.0631
 2738TIP3   OH229628   1.953   0.442   4.549 -0.2324  0.3244  0.0424
 2738TIP3    H129629   1.998   0.520   4.516 -0.2417  0.7272  0.9666
 2738TIP3    H229630   1.907   0.407   4.472  2.2342 -0.5363 -1.1233
 2739TIP3   OH229631   4.284   6.165   0.602  0.1187  0.2829 -0.1164
 2739TIP3    H129632   4.299   6.126   0.688  1.2349  0.6934 -0.1092
 2739TIP3    H229633   4.236   6.098   0.553  2.0909 -1.1687 -0.1489
 2740TIP3   OH229634   4.916   1.737  11.542  0.0877  0.2324  0.0657
 2740TIP3    H129635   4.899   1.703  11.630 -0.8465  0.6423  0.0484
 2740TIP3    H229636   4.836   1.784  11.518  1.1668  2.1199 -0.0647
 2741TIP3   OH229637   5.286   6.055  12.420 -0.1206  0.3969 -0.2036
 2741TIP3    H129638   5.191   6.069  12.420 -0.0626  0.7892 -0.9127
 2741TIP3    H229639   5.313   6.078  12.509 -0.7657 -0.2586  0.1772
 2742TIP3   OH229640   6.176   0.812   3.062  0.2280  0.4421 -0.2044
 2742TIP3    H129641   6.269   0.791   3.057  0.5781  1.4322  1.3517
 2742TIP3    H229642   6.173   0.904   3.086 -1.1940  0.7708 -1.4884
 2743TIP3   OH229643   4.197   5.562   4.939 -0.2512  0.5697 -0.0056
 2743TIP3    H129644   4.115   5.514   4.952  0.3211 -0.4100  0.0483
 2743TIP3    H229645   4.214   5.604   5.024  0.2361 -0.7179  0.5585
 2744TIP3   OH229646   1.335   6.524   6.040 -0.1434  0.2992 -0.2245
 2744TIP3    H129647   1.332   6.564   6.127 -0.8339 -0.2226  0.0086
 2744TIP3    H229648   1.423   6.488   6.032 -0.2632 -0.1696  0.5055
 2745TIP3   OH229649   1.270   0.698  14.245 -0.5440  0.7111  0.4121
 2745TIP3    H129650   1.278   0.788  14.276  1.7024  0.4345  0.7682
 2745TIP3    H229651   1.355   0.658  14.264 -1.7163 -1.7159  0.9470
 2746TIP3   OH229652   3.623   6.465   1.685 -0.1011  0.2076  0.1920
 2746TIP3    H129653   3.565   6.399   1.722 -0.2120 -0.3451 -0.9047
 2746TIP3    H229654   3.573   6.501   1.611  1.8922 -2.3068 -2.6681
 2747TIP3   OH229655   6.399   1.150  16.473  0.0239  0.0023 -0.3361
 2747TIP3    H129656   6.453   1.148  16.553 -0.7042  0.2833  0.1694
 2747TIP3    H229657   6.423   1.069  16.426  0.2198 -0.3301  0.3205
 2748TIP3   OH229658   4.425   2.751   3.732 -0.0169  0.5599 -0.5533
 2748TIP3    H129659   4.463   2.758   3.820  0.7776 -0.7598 -0.7616
 2748TIP3    H229660   4.464   2.824   3.684 -1.4706  2.1009  0.5070
 2749TIP3   OH229661   2.227   1.230  16.912  0.0122 -0.7512 -0.0412
 2749TIP3    H129662   2.189   1.216  16.998  0.8249 -2.2787  0.1104
 2749TIP3    H229663   2.257   1.321  16.913 -0.1040 -0.7095  1.2368
 2750TIP3   OH229664   2.255   0.876   5.515  0.6216 -0.1214  0.0301
 2750TIP3    H129665   2.214   0.950   5.559  2.5646  0.4708  0.9576
 2750TIP3    H229666   2.192   0.805   5.522  0.1420  0.4680  2.2342
 2751TIP3   OH229667   5.454   5.746   1.642 -0.1556  0.4558 -0.2856
 2751TIP3    H129668   5.460   5.806   1.717  0.1256  0.1101 -0.0291
 2751TIP3    H229669   5.459   5.659   1.681 -0.4349  0.2640 -0.6709
 2752TIP3   OH229670   2.110   5.650   2.732  0.4717  0.8220 -0.3809
 2752TIP3    H129671   2.078   5.567   2.696 -1.2215  1.2012  0.1542
 2752TIP3    H229672   2.169   5.684   2.664  0.1069 -0.1518 -1.2233
 2753TIP3   OH229673   1.775   4.030   1.171 -0.0392  0.2493 -0.5449
 2753TIP3    H129674   1.736   4.117   1.178 -0.8876 -0.1667  0.1556
 2753TIP3    H229675   1.725   3.977   1.233  0.6431 -0.6739 -0.7689
 2754TIP3   OH229676   2.942   0.470  14.561  0.0436 -0.3155  0.6364
 2754TIP3    H129677   2.922   0.532  14.490  0.6661  0.1655  0.8714
 2754TIP3    H229678   2.859   0.460  14.607 -0.4098 -0.7485 -0.2417
 2755TIP3   OH229679   6.633   1.002  14.173  0.0054  0.1309 -0.4280
 2755TIP3    H129680   6.582   0.928  14.140  0.3032  0.4604 -1.6995
 2755TIP3    H229681   6.693   0.963  14.237 -2.3166 -0.1509  1.7195
 2756TIP3   OH229682   5.046   0.385  16.047 -0.0123 -0.8782 -0.1236
 2756TIP3    H129683   5.075   0.474  16.069 -0.5682 -0.7374  0.0641
 2756TIP3    H229684   5.126   0.338  16.026  0.3285 -0.4347  0.1617
 2757TIP3   OH229685   5.348   1.957  14.676 -0.3155 -0.2529 -0.2119
 2757TIP3    H129686   5.298   1.941  14.757 -2.7131 -0.7325 -1.6912
 2757TIP3    H229687   5.410   2.026  14.700  0.9634 -2.2145  2.7266
 2758TIP3   OH229688   6.550   4.168  12.797  0.5504 -0.0036 -0.5119
 2758TIP3    H129689   6.502   4.148  12.717  2.1273  0.5868 -1.6554
 2758TIP3    H229690   6.574   4.083  12.833  0.0521 -0.2691 -0.8062
 2759TIP3   OH229691   1.571   3.956   2.387 -0.1010 -0.0164  0.1931
 2759TIP3    H129692   1.619   4.009   2.324  0.0808 -1.1285 -0.6417
 2759TIP3    H229693   1.638   3.904   2.432 -0.3110  0.1392  0.6996
 2760TIP3   OH229694   3.981   2.621  13.834  0.1621  0.3853 -0.3387
 2760TIP3    H129695   4.005   2.542  13.883  1.4859  1.2297  0.4169
 2760TIP3    H229696   4.056   2.680  13.844  0.0633  0.9897 -2.5662
 2761TIP3   OH229697   6.755   3.432   2.693 -0.3289  0.1085 -0.3263
 2761TIP3    H129698   6.812   3.392   2.628 -0.8987  0.3115 -0.9641
 2761TIP3    H229699   6.666   3.414   2.662 -0.6167  2.4355 -1.0211
 2762TIP3   OH229700   0.089   3.682  11.888  0.2450  0.4650  0.6039
 2762TIP3    H129701   0.017   3.620  11.880 -0.4854  1.4500 -0.7955
 2762TIP3    H229702   0.049   3.764  11.917  0.3516  1.6816 -2.3556
 2763TIP3   OH229703   1.506   0.165   1.063 -0.1633 -0.9179 -0.2145
 2763TIP3    H129704   1.578   0.124   1.111  0.7114  1.8570  1.0369
 2763TIP3    H229705   1.443   0.191   1.130 -1.5212 -1.6920 -1.1345
 2764TIP3   OH229706   5.833   2.528   0.187 -0.4693  0.2320 -0.1472
 2764TIP3    H129707   5.823   2.438   0.217  1.0581  0.6659  1.9724
 2764TIP3    H229708   5.815   2.525   0.093  0.5791 -2.4687 -0.3498
 2765TIP3   OH229709   0.022   3.382  13.292 -0.1714 -0.8886  0.4930
 2765TIP3    H129710   0.063   3.462  13.323 -0.5833 -0.0979 -0.9150
 2765TIP3    H229711  -0.068   3.407  13.272 -0.3887 -1.7711  0.3114
 2766TIP3   OH229712   3.831   2.064  13.991 -0.8972  0.5047 -0.6547
 2766TIP3    H129713   3.796   2.117  14.062  0.2164  1.0360 -0.4798
 2766TIP3    H229714   3.785   1.981  13.998 -0.6239  0.4581  0.8451
 2767TIP3   OH229715   2.402   1.278  10.819 -0.2763 -0.3845 -0.0837
 2767TIP3    H129716   2.340   1.265  10.748  2.0079 -1.0778 -2.0868
 2767TIP3    H229717   2.485   1.244  10.785  1.3106  0.8355  2.2883
 2768TIP3   OH229718   4.679   0.537   1.578  0.7027 -0.2439  0.6042
 2768TIP3    H129719   4.733   0.514   1.654 -0.9555  0.2403  1.9896
 2768TIP3    H229720   4.661   0.453   1.535  0.1409 -0.7740  1.8261
 2769TIP3   OH229721   2.151   2.250   1.001  0.1027  0.3457  0.1909
 2769TIP3    H129722   2.100   2.320   0.961  0.3665  0.4644  0.0545
 2769TIP3    H229723   2.086   2.190   1.036 -0.1623 -0.3491 -1.4116
 2770TIP3   OH229724   5.405   0.974  16.522  0.1461  0.0149  0.2176
 2770TIP3    H129725   5.390   0.892  16.568 -0.7128 -0.0469 -0.1416
 2770TIP3    H229726   5.345   0.971  16.447 -0.1831  1.1319  0.4074
 2771TIP3   OH229727   0.886   2.467   0.881  0.4471  0.4201  0.6844
 2771TIP3    H129728   0.914   2.537   0.823  1.3954 -1.0974 -0.7841
 2771TIP3    H229729   0.941   2.392   0.856 -0.8552 -0.9833  1.8455
 2772TIP3   OH229730   5.601   4.759   0.216 -0.0410  0.1723  0.1886
 2772TIP3    H129731   5.515   4.796   0.238  0.4345  0.9542  0.7971
 2772TIP3    H229732   5.610   4.682   0.272 -0.6080 -0.2936 -0.3464
 2773TIP3   OH229733   6.616   3.691   1.435  0.0709 -0.1257  0.0407
 2773TIP3    H129734   6.531   3.707   1.395 -0.9317 -0.0734  2.0773
 2773TIP3    H229735   6.629   3.765   1.495  1.3640 -0.3408  0.0659
 2774TIP3   OH229736   3.761   1.538   5.228  0.4616 -0.5234 -0.0306
 2774TIP3    H129737   3.700   1.604   5.262 -0.7295 -0.5686 -1.9175
 2774TIP3    H229738   3.836   1.589   5.197 -0.0139 -0.1376 -0.5664
 2775TIP3   OH229739   0.831   2.173   2.167  0.5407 -0.4493 -0.0381
 2775TIP3    H129740   0.798   2.108   2.104  0.5576  0.3549 -0.8966
 2775TIP3    H229741   0.875   2.121   2.234  0.0574 -1.3582 -0.4058
 2776TIP3   OH229742   5.822   6.738  11.831 -0.1700  0.3871 -0.5011
 2776TIP3    H129743   5.885   6.675  11.797  0.4285  1.0682 -0.6722
 2776TIP3    H229744   5.753   6.684  11.871  0.2964 -0.3687 -0.7034
 2777TIP3   OH229745   0.118   2.767   4.493  0.2956  0.0439 -0.1845
 2777TIP3    H129746   0.141   2.674   4.487 -1.1961 -0.3390 -0.4554
 2777TIP3    H229747   0.145   2.804   4.409  2.2978  0.2272  0.4920
 2778TIP3   OH229748   2.862   5.199  14.453 -0.1711  0.4185  0.5621
 2778TIP3    H129749   2.926   5.197  14.524  1.1112  1.9386 -0.4621
 2778TIP3    H229750   2.896   5.139  14.388 -1.9273 -1.8470  1.6030
 2779TIP3   OH229751   6.505   5.031  11.084  0.6732 -0.1602  0.4493
 2779TIP3    H129752   6.520   5.126  11.076  1.2695 -0.1773  1.2590
 2779TIP3    H229753   6.521   5.012  11.176  0.0784 -0.9770  0.3912
 2780TIP3   OH229754   5.437   4.740   4.591 -0.2829 -0.6636 -0.2720
 2780TIP3    H129755   5.378   4.666   4.578 -0.3510 -0.7234  0.3320
 2780TIP3    H229756   5.411   4.776   4.676  1.0445 -1.1415  0.3598
 2781TIP3   OH229757   0.876   0.924  13.247 -0.0210  0.1809 -0.1948
 2781TIP3    H129758   0.816   0.901  13.318  0.0193 -0.9208 -0.4984
 2781TIP3    H229759   0.821   0.972  13.185  0.2289  2.2898  1.1357
 2782TIP3   OH229760   1.596   4.254  15.506  0.3156  0.1016  0.5333
 2782TIP3    H129761   1.608   4.321  15.574  1.1864 -0.4475  0.9348
 2782TIP3    H229762   1.621   4.172  15.549  0.2034 -0.3500 -0.2478
 2783TIP3   OH229763   5.717   0.428  12.075  0.0428  0.1137  0.6911
 2783TIP3    H129764   5.723   0.430  12.171 -0.4549 -0.7780  0.7572
 2783TIP3    H229765   5.774   0.356  12.049 -0.3726 -0.1099  0.3817
 2784TIP3   OH229766   5.821   1.676  15.932  0.0952  0.1209 -0.1734
 2784TIP3    H129767   5.755   1.613  15.959  0.8339 -0.6955 -0.1884
 2784TIP3    H229768   5.790   1.760  15.963 -0.2872 -0.4385  0.9934
 2785TIP3   OH229769   1.595   5.562   6.336 -0.4715  0.3587  0.0258
 2785TIP3    H129770   1.547   5.643   6.350 -1.9352 -0.8001  2.1968
 2785TIP3    H229771   1.662   5.561   6.404  0.0049  0.0574 -0.4346
 2786TIP3   OH229772   1.083   0.203   3.174 -0.0636 -0.4034 -0.1923
 2786TIP3    H129773   1.130   0.168   3.250 -1.3225 -0.9053  0.3896
 2786TIP3    H229774   1.025   0.270   3.211 -0.3942 -0.3681 -0.7693
 2787TIP3   OH229775   6.773   0.590  15.320  0.9030  0.9929 -0.3940
 2787TIP3    H129776   6.717   0.517  15.291 -0.6194  1.7789  0.4432
 2787TIP3    H229777   6.812   0.624  15.239  0.5686  0.1092 -0.9456
 2788TIP3   OH229778   3.784   0.083   2.040  0.1894  0.0329  0.3489
 2788TIP3    H129779   3.792   0.159   1.983 -1.4614  0.9006  1.2051
 2788TIP3    H229780   3.855   0.093   2.104 -0.8570  1.6989  1.3388
 2789TIP3   OH229781   2.961   3.005   3.830 -0.6129  0.0382 -0.3950
 2789TIP3    H129782   2.877   2.985   3.787 -0.4329 -0.4365 -0.5264
 2789TIP3    H229783   2.983   2.925   3.877 -2.2307  1.3838  2.9896
 2790TIP3   OH229784   0.814   6.720   5.491 -0.3610  0.2198  0.1818
 2790TIP3    H129785   0.799   6.798   5.545 -0.8378 -0.0658  0.4748
 2790TIP3    H229786   0.846   6.654   5.553 -1.8184 -0.4019  0.3269
 2791TIP3   OH229787   3.971   0.801   6.432  0.0325 -0.3637  0.0792
 2791TIP3    H129788   4.033   0.736   6.399  0.2209 -1.3060  2.1550
 2791TIP3    H229789   4.012   0.837   6.511 -0.6020  1.4495 -0.3659
 2792TIP3   OH229790   2.040   5.743   2.070 -0.0686  0.6955 -0.1894
 2792TIP3    H129791   2.093   5.665   2.086 -2.0752 -0.3050  2.4251
 2792TIP3    H229792   2.091   5.815   2.108 -0.0418 -0.0671  1.2833
 2793TIP3   OH229793   3.620   3.440  13.552 -0.2228  0.2294 -0.0490
 2793TIP3    H129794   3.619   3.497  13.474 -0.3453  1.2754  0.6966
 2793TIP3    H229795   3.656   3.496  13.621  0.6540 -0.9380  0.4670
 2794TIP3   OH229796   4.443   5.385   4.978 -0.3477  0.4883  0.3339
 2794TIP3    H129797   4.386   5.444   5.027 -1.5949 -1.3339  1.1724
 2794TIP3    H229798   4.511   5.359   5.040  0.9411  1.9541 -0.4022
 2795TIP3   OH229799   2.698   1.825  10.651 -0.2762  0.6796 -0.0404
 2795TIP3    H129800   2.606   1.831  10.679 -0.5288  1.6317 -0.9971
 2795TIP3    H229801   2.748   1.848  10.729 -0.8730  0.6397  0.3608
 2796TIP3   OH229802   3.117   1.570   5.322 -0.2689  0.1935 -0.2160
 2796TIP3    H129803   3.179   1.628   5.278  0.1753 -0.7010 -0.7964
 2796TIP3    H229804   3.032   1.594   5.286 -0.2419  1.1914  0.3284
 2797TIP3   OH229805   2.643   4.739   0.932  0.1232 -0.2070 -1.0818
 2797TIP3    H129806   2.594   4.787   0.866  0.4626 -2.0408 -2.7430
 2797TIP3    H229807   2.578   4.683   0.974  0.4353 -1.3403 -2.0651
 2798TIP3   OH229808   3.748   5.757  17.003  0.2780  0.2772  0.3311
 2798TIP3    H129809   3.767   5.707  16.924 -1.0965  0.0027  0.1419
 2798TIP3    H229810   3.708   5.838  16.970  0.2357  0.4177  0.7256
 2799TIP3   OH229811   3.821   2.262  12.305  0.2347  0.1175 -0.2821
 2799TIP3    H129812   3.799   2.334  12.246  0.6113  2.2479  2.0203
 2799TIP3    H229813   3.775   2.283  12.386  0.4372 -2.2359  0.5119
 2800TIP3   OH229814   2.761   4.123  14.001  0.4235 -0.0810  0.1814
 2800TIP3    H129815   2.699   4.189  14.032  0.8448  0.4053  0.0033
 2800TIP3    H229816   2.833   4.126  14.064  1.5053  1.2440 -1.0491
 2801TIP3   OH229817   1.379   2.481   1.184  0.4089  0.3151  0.3406
 2801TIP3    H129818   1.374   2.425   1.107 -0.8532  0.4211  0.3247
 2801TIP3    H229819   1.395   2.420   1.257 -1.3599 -0.1542  0.3805
 2802TIP3   OH229820   5.150   1.709  14.539 -0.4405  0.3985  0.1441
 2802TIP3    H129821   5.223   1.746  14.489  0.0727  0.2493  0.7763
 2802TIP3    H229822   5.167   1.735  14.629 -1.9871  1.6820  0.1072
 2803TIP3   OH229823   5.876   6.706   1.626  0.2583 -0.1411  0.2033
 2803TIP3    H129824   5.793   6.658   1.630 -0.7998  1.6101  0.8969
 2803TIP3    H229825   5.867   6.773   1.694  2.6632 -0.4824  0.9461
 2804TIP3   OH229826   2.811   0.273   1.677  0.2768 -0.3897 -0.2216
 2804TIP3    H129827   2.726   0.317   1.683 -0.0356 -0.8395 -1.1946
 2804TIP3    H229828   2.830   0.269   1.584  1.3768 -0.3052 -0.0197
 2805TIP3   OH229829   4.465   2.285   5.159 -0.7608 -0.2202 -0.0538
 2805TIP3    H129830   4.424   2.272   5.244  1.0280  0.8263  1.0261
 2805TIP3    H229831   4.457   2.379   5.143 -0.7335 -0.3506 -0.8689
 2806TIP3   OH229832   2.567   2.055  15.834 -0.0535 -0.0505  0.0386
 2806TIP3    H129833   2.512   1.976  15.833 -0.1863  0.0466 -1.1179
 2806TIP3    H229834   2.652   2.025  15.801  0.0311  0.1979  0.0344
 2807TIP3   OH229835   3.891   2.806  14.559  0.3420  0.1781 -0.4149
 2807TIP3    H129836   3.863   2.874  14.621  0.4166 -0.1898  0.0265
 2807TIP3    H229837   3.969   2.768  14.599  0.4382 -0.0090 -0.7781
 2808TIP3   OH229838   0.691   2.070  13.587  0.1452 -0.0306 -0.6307
 2808TIP3    H129839   0.612   2.044  13.635  2.0392 -3.0164  1.2277
 2808TIP3    H229840   0.695   2.011  13.512  0.2130  0.6542 -1.1758
 2809TIP3   OH229841   4.041   3.155   0.317  0.0932 -0.1166 -0.1067
 2809TIP3    H129842   3.960   3.204   0.304 -0.5157 -0.8918  0.6749
 2809TIP3    H229843   4.105   3.220   0.345  0.4847  0.9839 -3.1687
 2810TIP3   OH229844   6.743   2.388  11.816 -0.3983  0.1968  0.5068
 2810TIP3    H129845   6.772   2.465  11.865  1.0178  0.7283 -1.0723
 2810TIP3    H229846   6.705   2.424  11.736 -0.0337 -0.7427 -0.0961
 2811TIP3   OH229847   1.358   0.064   3.034 -0.2884 -0.5212  0.7563
 2811TIP3    H129848   1.383   0.141   3.084 -3.0279  1.8638 -1.2422
 2811TIP3    H229849   1.308   0.010   3.095 -2.5991  1.7713  1.0437
 2812TIP3   OH229850   6.580   2.298  13.438 -0.0847  0.0507 -0.0573
 2812TIP3    H129851   6.495   2.255  13.435  0.0430 -0.1484 -1.0819
 2812TIP3    H229852   6.597   2.311  13.531 -2.2422  2.1363  0.1099
 2813TIP3   OH229853   6.670   2.388  14.317  0.7331 -0.1076  0.2323
 2813TIP3    H129854   6.635   2.392  14.405 -0.2169 -3.1767  0.1069
 2813TIP3    H229855   6.605   2.433  14.263 -1.2916 -2.4601  0.5277
 2814TIP3   OH229856   4.637   5.646   2.611  0.2246  0.1496  0.4755
 2814TIP3    H129857   4.689   5.723   2.587  1.7677 -0.0986  2.7291
 2814TIP3    H229858   4.566   5.681   2.664  0.6786  0.0924  1.1356
 2815TIP3   OH229859   0.200   0.431  11.807  0.4600 -0.0636  0.5099
 2815TIP3    H129860   0.134   0.411  11.740  0.1502 -0.0223  0.7998
 2815TIP3    H229861   0.156   0.413  11.890  0.0005  2.2126  0.8291
 2816TIP3   OH229862   2.164   4.165  10.779  0.7980 -0.8331 -0.5462
 2816TIP3    H129863   2.091   4.103  10.775  0.9764 -1.1600  0.9326
 2816TIP3    H229864   2.136   4.239  10.725 -1.1103 -0.4554  0.8954
 2817TIP3   OH229865   0.401   1.079   2.931 -0.2434 -0.2904  0.3042
 2817TIP3    H129866   0.426   1.105   2.843  1.7670  2.4503  1.5423
 2817TIP3    H229867   0.446   0.996   2.945  2.0796  0.7923 -0.2249
 2818TIP3   OH229868   3.599   5.873  15.254 -0.0172  0.1854  0.1514
 2818TIP3    H129869   3.572   5.872  15.345 -2.9081 -1.3096 -0.5919
 2818TIP3    H229870   3.562   5.954  15.219 -1.7456 -0.7713 -0.3500
 2819TIP3   OH229871   5.998   5.414  11.418 -0.0659 -0.1134 -0.1157
 2819TIP3    H129872   6.091   5.417  11.395 -0.1903  2.0012 -0.5471
 2819TIP3    H229873   5.988   5.478  11.489 -1.0885 -0.7412  0.3313
 2820TIP3   OH229874   1.846   3.428   4.907  0.1842 -0.3766 -0.1938
 2820TIP3    H129875   1.770   3.390   4.952  1.2063 -0.8267  1.2290
 2820TIP3    H229876   1.808   3.483   4.838 -1.4492 -0.1680  0.8053
 2821TIP3   OH229877   4.534   4.643   2.573  0.2748 -0.8862  0.3694
 2821TIP3    H129878   4.555   4.578   2.506  1.2543 -1.0836  0.8448
 2821TIP3    H229879   4.574   4.724   2.542 -1.8625 -0.1969 -0.7533
 2822TIP3   OH229880   1.078   2.032   1.701  0.1149 -0.2702  0.1660
 2822TIP3    H129881   1.002   2.074   1.742 -0.2610 -1.7338  1.0333
 2822TIP3    H229882   1.103   1.962   1.762  0.8185 -1.1954 -1.1420
 2823TIP3   OH229883   3.042   1.119  17.293 -0.5566  0.3633 -0.1205
 2823TIP3    H129884   2.974   1.180  17.322  0.0831  0.9976  0.0715
 2823TIP3    H229885   3.121   1.148  17.339 -0.2426 -0.6134 -0.0320
 2824TIP3   OH229886   5.134   6.641   5.741 -0.3929 -0.4958  0.2550
 2824TIP3    H129887   5.095   6.655   5.827  2.7383 -1.2816  1.9449
 2824TIP3    H229888   5.228   6.639   5.757  0.2519 -3.0079 -2.8421
 2825TIP3   OH229889   1.624   6.347   2.004  0.3550  0.0639 -0.0300
 2825TIP3    H129890   1.540   6.373   2.040 -0.4452 -1.4532 -0.7205
 2825TIP3    H229891   1.607   6.332   1.911  1.7538  1.2271 -0.5268
 2826TIP3   OH229892   1.607   2.729  15.706 -0.3690 -0.0432 -0.0898
 2826TIP3    H129893   1.682   2.770  15.749 -0.1015 -1.0482  0.4371
 2826TIP3    H229894   1.610   2.762  15.616 -0.4867  1.4863  0.4407
 2827TIP3   OH229895   0.839   4.479   3.851  0.8870 -0.0784  0.0598
 2827TIP3    H129896   0.850   4.560   3.900  1.5599 -0.6315  0.8463
 2827TIP3    H229897   0.750   4.484   3.816  0.4266  0.3578  1.2659
 2828TIP3   OH229898   5.715   5.406  14.869  0.0903 -0.0979  0.3392
 2828TIP3    H129899   5.803   5.438  14.891 -0.0495  0.5132  0.0282
 2828TIP3    H229900   5.673   5.480  14.827  0.1142 -1.0272 -1.4203
 2829TIP3   OH229901   0.550   2.084   2.840 -0.5967  0.5411 -0.1978
 2829TIP3    H129902   0.496   2.008   2.862 -0.2636  0.0526 -1.0293
 2829TIP3    H229903   0.531   2.148   2.909 -0.0964 -0.6742  1.1053
 2830TIP3   OH229904   4.590   4.936  14.147 -0.3911 -0.3056  0.2360
 2830TIP3    H129905   4.638   4.874  14.202  0.4560 -0.5866 -0.7721
 2830TIP3    H229906   4.502   4.939  14.184  0.6371  0.9693  2.7728
 2831TIP3   OH229907   1.846   1.072  17.344 -0.0169  0.2797  0.7207
 2831TIP3    H129908   1.851   0.977  17.332  0.9250  0.2861  0.9785
 2831TIP3    H229909   1.925   1.094  17.393 -0.6618  1.0869  1.4197
 2832TIP3   OH229910   4.584   5.228  12.028  0.5935 -0.3368  0.0645
 2832TIP3    H129911   4.652   5.281  12.069  0.9688 -1.3991  0.8480
 2832TIP3    H229912   4.625   5.192  11.950  1.2247 -1.6304  0.9619
 2833TIP3   OH229913   3.176   4.821  16.394  0.1946 -0.4936 -0.1310
 2833TIP3    H129914   3.262   4.780  16.386  0.4863 -0.2079  1.2313
 2833TIP3    H229915   3.175   4.858  16.483 -1.2201 -0.2338 -0.2226
 2834TIP3   OH229916   1.757   3.977   5.755  0.3097  0.6473 -0.4110
 2834TIP3    H129917   1.756   3.987   5.850 -1.1394 -1.7239 -0.0923
 2834TIP3    H229918   1.668   4.002   5.727 -0.6140 -2.4082 -0.5538
 2835TIP3   OH229919   2.964   6.301  16.786  0.3264 -0.3802  0.3135
 2835TIP3    H129920   3.006   6.220  16.756  0.3251 -0.0908 -0.5180
 2835TIP3    H229921   2.990   6.367  16.721  0.9929  0.4834  1.4150
 2836TIP3   OH229922   5.192   5.413  15.669  0.0552  0.4398 -0.2510
 2836TIP3    H129923   5.146   5.497  15.667  0.1323  0.4734 -0.9973
 2836TIP3    H229924   5.248   5.418  15.747  0.3764  1.2600 -0.5190
 2837TIP3   OH229925   0.800   2.766  12.781 -0.3860 -0.2735  0.2315
 2837TIP3    H129926   0.743   2.777  12.857  0.3247  0.8834  0.6118
 2837TIP3    H229927   0.781   2.843  12.726 -0.5017 -0.8221 -0.5176
 2838TIP3   OH229928   0.298   3.272  15.643  0.1262  0.2838  0.5518
 2838TIP3    H129929   0.310   3.180  15.618 -0.7390  0.0780  0.8612
 2838TIP3    H229930   0.226   3.271  15.705  0.7657  1.0635  1.3429
 2839TIP3   OH229931   2.865   2.985  13.089  0.1185  0.0440 -0.0886
 2839TIP3    H129932   2.871   2.894  13.059  0.9036  0.7299 -2.2114
 2839TIP3    H229933   2.890   2.982  13.181  4.2900 -1.4337 -1.0301
 2840TIP3   OH229934   6.291   4.973  17.303 -0.0471 -0.4068 -0.0188
 2840TIP3    H129935   6.254   5.061  17.293  1.9975  0.5706  0.3408
 2840TIP3    H229936   6.313   4.968  17.396 -0.0397 -1.2670 -0.0641
 2841TIP3   OH229937   4.114   3.906  15.389 -0.0004 -0.0308 -0.5496
 2841TIP3    H129938   4.125   3.812  15.403 -0.3547 -0.4936 -2.9021
 2841TIP3    H229939   4.025   3.924  15.418  0.5010 -0.1139  1.1386
 2842TIP3   OH229940   5.048   2.714  16.447  0.1773 -0.5205  0.1835
 2842TIP3    H129941   5.142   2.697  16.451 -0.0418 -1.6288  1.0522
 2842TIP3    H229942   5.041   2.809  16.450  1.2270 -0.4577  1.5151
 2843TIP3   OH229943   3.369   2.112  11.678  0.4109  0.5383 -0.0400
 2843TIP3    H129944   3.397   2.190  11.630  0.1174  0.0354 -1.0470
 2843TIP3    H229945   3.451   2.074  11.712  0.7998  0.0623 -1.4481
 2844TIP3   OH229946   4.036   4.846   0.974  0.1888 -0.5698  0.3687
 2844TIP3    H129947   3.995   4.933   0.979  1.0435 -0.1440  0.2156
 2844TIP3    H229948   3.989   4.802   0.903  0.9858  0.4635 -0.8526
 2845TIP3   OH229949   2.643   4.524  12.446  0.5264  0.2406 -0.5575
 2845TIP3    H129950   2.589   4.560  12.375  0.8278  1.5638 -0.1451
 2845TIP3    H229951   2.596   4.446  12.474  0.5913 -0.5470 -2.4666
 2846TIP3   OH229952   3.270   0.459  12.213  0.0051 -0.2998  0.6089
 2846TIP3    H129953   3.265   0.536  12.270  0.1380  0.7537 -0.7478
 2846TIP3    H229954   3.357   0.422  12.231  1.0368  1.4125 -0.5829
 2847TIP3   OH229955   2.437   3.794   2.873  0.0182  0.1275 -0.6238
 2847TIP3    H129956   2.476   3.853   2.938 -2.1414  2.3998 -1.2171
 2847TIP3    H229957   2.445   3.707   2.912 -0.1504  1.2383  2.1766
 2848TIP3   OH229958   5.565   0.111  12.684 -0.3321 -0.2633 -0.0930
 2848TIP3    H129959   5.559   0.043  12.752 -0.0546  0.3925  0.6062
 2848TIP3    H229960   5.481   0.156  12.687 -0.0529  0.2425  0.3399
 2849TIP3   OH229961   4.357   3.252   5.897  0.4423  0.1785 -0.5616
 2849TIP3    H129962   4.394   3.205   5.972 -0.1787  2.2935  1.1470
 2849TIP3    H229963   4.404   3.335   5.895 -0.6850  0.8111 -1.5377
 2850TIP3   OH229964   4.205   3.692  12.587  0.2154 -0.2934 -0.1495
 2850TIP3    H129965   4.243   3.610  12.557 -0.7421 -0.9736  0.4482
 2850TIP3    H229966   4.175   3.673  12.676  1.5462  1.2087  0.6708
 2851TIP3   OH229967   3.659   5.873  12.530 -0.2837 -0.0148  0.1035
 2851TIP3    H129968   3.715   5.855  12.454 -1.9699  0.0413 -1.2015
 2851TIP3    H229969   3.708   5.939  12.580  0.6697  0.2802 -1.1546
 2852TIP3   OH229970   6.553   1.456  16.549  0.1058  0.4530 -0.4715
 2852TIP3    H129971   6.505   1.422  16.625 -0.9561  1.4797 -0.6336
 2852TIP3    H229972   6.575   1.379  16.497  1.5330 -0.3511  1.2294
 2853TIP3   OH229973   6.770   1.668   1.428  0.0475 -0.3040  0.3608
 2853TIP3    H129974   6.742   1.682   1.518 -0.7063  0.8716 -0.0306
 2853TIP3    H229975   6.701   1.707   1.375 -0.5405 -2.7261 -0.8123
 2854TIP3   OH229976   4.557   2.095   1.377  0.5844  0.2455  0.4882
 2854TIP3    H129977   4.474   2.121   1.338  0.7489  0.7635  0.4735
 2854TIP3    H229978   4.578   2.166   1.438  0.5981 -0.2850  1.1213
 2855TIP3   OH229979   5.944   6.464  11.107 -0.0791  0.5668  0.4512
 2855TIP3    H129980   6.038   6.474  11.098 -0.0017  1.1259  1.5765
 2855TIP3    H229981   5.915   6.422  11.026  0.7160  3.0895 -1.2680
 2856TIP3   OH229982   3.945   5.561  13.871  0.3128 -0.6533 -0.6055
 2856TIP3    H129983   3.870   5.502  13.858  0.0016 -0.3965 -0.0115
 2856TIP3    H229984   3.913   5.627  13.933  1.0715 -0.6140 -0.2476
 2857TIP3   OH229985   3.074   6.626   5.671 -0.3274  0.6639 -0.2618
 2857TIP3    H129986   3.117   6.697   5.624 -1.0147  0.9999 -0.3928
 2857TIP3    H229987   2.980   6.642   5.659 -0.5451  1.0076  1.5681
 2858TIP3   OH229988   6.459   3.060  15.758  0.4174  0.2740 -0.0804
 2858TIP3    H129989   6.525   3.061  15.828 -0.3376 -2.6101  0.8194
 2858TIP3    H229990   6.379   3.091  15.801 -0.0381 -1.4657  0.4147
 2859TIP3   OH229991   4.609   4.437  16.707 -0.2524 -0.5778  0.4718
 2859TIP3    H129992   4.538   4.426  16.644 -1.5226  2.9457  1.0798
 2859TIP3    H229993   4.591   4.372  16.775 -0.6343 -2.3034 -1.1718
 2860TIP3   OH229994   5.833   0.428   6.249 -0.0563 -0.3622  0.4627
 2860TIP3    H129995   5.810   0.391   6.163 -1.6058  2.4878 -0.4977
 2860TIP3    H229996   5.926   0.450   6.241 -0.2788  0.2654 -0.6864
 2861TIP3   OH229997   1.599   1.862  14.340 -0.1970  0.0054 -0.1800
 2861TIP3    H129998   1.668   1.912  14.295  1.6378 -1.5146  0.7832
 2861TIP3    H229999   1.562   1.922  14.403 -0.7297  1.2628 -1.6267
 2862TIP3   OH230000   4.366   6.418   0.564 -0.0302 -0.2279 -0.1440
 2862TIP3    H130001   4.389   6.442   0.654 -1.2682 -0.8673  0.3629
 2862TIP3    H230002   4.340   6.326   0.570  0.3565 -0.4195 -1.2568
 2863TIP3   OH230003   5.150   2.429  16.425 -0.0842 -0.1996 -0.0602
 2863TIP3    H130004   5.146   2.346  16.473  0.7186 -0.6252 -0.6978
 2863TIP3    H230005   5.059   2.457  16.416 -0.2755 -0.2754  1.4086
 2864TIP3   OH230006   5.513   4.727   4.197  0.2343  0.2471  0.3470
 2864TIP3    H130007   5.449   4.728   4.268  0.3430 -0.5148  0.4680
 2864TIP3    H230008   5.592   4.688   4.237  0.3824  0.0637 -0.1172
 2865TIP3   OH230009   6.707   2.085   1.795 -0.1885 -0.2584  0.3566
 2865TIP3    H130010   6.664   2.023   1.854 -1.2227  0.2441  0.1486
 2865TIP3    H230011   6.655   2.165   1.801  0.1670  0.0661 -0.6129
 2866TIP3   OH230012   0.162   1.889   1.002 -0.1013  0.5065 -0.2430
 2866TIP3    H130013   0.231   1.845   1.052  0.1830 -0.2925 -1.2999
 2866TIP3    H230014   0.206   1.965   0.963  0.2065 -0.0099 -0.9279
 2867TIP3   OH230015   1.676   0.133  11.760  0.1078  0.0929 -0.5308
 2867TIP3    H130016   1.716   0.061  11.710 -0.0270  0.2283 -0.8349
 2867TIP3    H230017   1.674   0.206  11.699 -3.2100 -0.6654 -1.5298
 2868TIP3   OH230018   6.392   5.564  14.359 -0.3887 -0.8729  0.3108
 2868TIP3    H130019   6.306   5.553  14.399 -0.5815 -0.9489 -0.1130
 2868TIP3    H230020   6.454   5.535  14.426 -0.6244  0.2526  1.0386
 2869TIP3   OH230021   4.402   3.610   6.294  0.2249 -0.2331  0.1689
 2869TIP3    H130022   4.477   3.654   6.255  0.2274 -0.3235  0.0704
 2869TIP3    H230023   4.346   3.588   6.220  0.3149 -0.5657  0.1978
 2870TIP3   OH230024   2.457   0.556   2.660 -0.7883  0.4300  0.5327
 2870TIP3    H130025   2.443   0.612   2.737 -0.7537 -0.4714  1.2070
 2870TIP3    H230026   2.507   0.611   2.600  3.4351 -0.2869  3.0164
 2871TIP3   OH230027   0.953   6.678   0.409 -0.0940 -0.2159  0.3659
 2871TIP3    H130028   1.044   6.704   0.414 -0.3121  0.3987  1.4738
 2871TIP3    H230029   0.929   6.656   0.499 -1.0287 -0.3993  0.0875
 2872TIP3   OH230030   1.697   2.098  14.745 -0.0198  0.0727  0.0741
 2872TIP3    H130031   1.682   2.168  14.809  0.3300 -0.2638  0.5299
 2872TIP3    H230032   1.792   2.098  14.731  0.3922 -2.0891  2.1767
 2873TIP3   OH230033   1.879   3.253   5.746 -0.6222  0.1269 -0.4211
 2873TIP3    H130034   1.964   3.222   5.778 -1.3434 -0.7750  0.6894
 2873TIP3    H230035   1.899   3.293   5.661  0.7051 -1.3468 -0.8590
 2874TIP3   OH230036   4.944   6.460   3.714 -0.0676  0.2271  0.0694
 2874TIP3    H130037   4.853   6.459   3.743  0.3201  0.4144  1.3610
 2874TIP3    H230038   4.986   6.391   3.766  0.5584  0.2529 -0.3916
 2875TIP3   OH230039   5.290   5.991  13.675 -0.2751  0.6952 -0.0526
 2875TIP3    H130040   5.241   5.991  13.593  1.6601  0.6694 -1.2817
 2875TIP3    H230041   5.315   6.082  13.689 -1.6991  0.9302  1.2707
 2876TIP3   OH230042   6.480   0.441   1.787  0.0676  0.1179  0.2205
 2876TIP3    H130043   6.497   0.491   1.867  1.2079  0.1217 -0.0158
 2876TIP3    H230044   6.479   0.350   1.815  1.5296  0.0454  0.0765
 2877TIP3   OH230045   3.103   6.074   4.239  0.1252 -0.5385 -0.2151
 2877TIP3    H130046   3.015   6.055   4.207  0.2639 -1.1022 -0.2734
 2877TIP3    H230047   3.138   6.139   4.177  0.0101 -0.8420 -0.6004
 2878TIP3   OH230048   1.615   3.990   1.547  0.2222  0.2249  0.7602
 2878TIP3    H130049   1.690   4.047   1.565  0.8367 -0.1805 -0.4168
 2878TIP3    H230050   1.645   3.902   1.569  0.7103 -0.1719 -1.2560
 2879TIP3   OH230051   3.143   0.820  14.257 -0.5265  0.0035 -0.4050
 2879TIP3    H130052   3.238   0.824  14.254 -0.4713 -0.8423 -0.0706
 2879TIP3    H230053   3.114   0.911  14.246  0.3108  0.2537 -0.5603
 2880TIP3   OH230054   4.553   0.842   2.959 -0.4011  0.1770 -0.3016
 2880TIP3    H130055   4.648   0.845   2.949 -0.3390  1.2173  0.4700
 2880TIP3    H230056   4.523   0.788   2.885  0.6896  0.7693 -1.2104
 2881TIP3   OH230057   3.197   3.553   1.062  0.0748 -0.6551  0.3541
 2881TIP3    H130058   3.140   3.563   0.986  1.6107  1.1878 -0.6429
 2881TIP3    H230059   3.139   3.526   1.133 -2.0093  0.9395 -0.6495
 2882TIP3   OH230060   4.309   0.061  11.711 -0.7465 -0.0774  0.2784
 2882TIP3    H130061   4.366   0.136  11.726 -2.3419  0.6153  3.8716
 2882TIP3    H230062   4.239   0.095  11.656 -1.8627  1.4057  2.4968
 2883TIP3   OH230063   2.236   5.636  16.222  0.4053 -0.4979 -0.3016
 2883TIP3    H130064   2.188   5.559  16.192  1.4518 -0.4235 -2.3347
 2883TIP3    H230065   2.312   5.601  16.267  2.3190 -0.8630 -3.4868
 2884TIP3   OH230066   2.631   2.965   5.236  0.1129 -0.3179  0.0329
 2884TIP3    H130067   2.663   2.944   5.148  0.0178 -1.0109  0.1632
 2884TIP3    H230068   2.645   2.886   5.287 -0.4334 -0.1374  0.4793
 2885TIP3   OH230069   2.016   6.696  11.721 -0.1056 -0.1202  0.0340
 2885TIP3    H130070   1.940   6.644  11.745 -0.6787  1.1305  1.0364
 2885TIP3    H230071   2.022   6.688  11.625  0.0159 -2.2242  0.1780
 2886TIP3   OH230072   1.731   4.066   4.234 -0.0814 -0.0925  0.2168
 2886TIP3    H130073   1.677   4.036   4.306  1.7247 -0.6284  1.4135
 2886TIP3    H230074   1.752   3.986   4.185 -2.7353  0.4375 -2.0799
 2887TIP3   OH230075   0.929   0.011   2.308  0.4786  0.1424  0.4171
 2887TIP3    H130076   0.935   0.044   2.219  0.6779  0.0899  0.4105
 2887TIP3    H230077   0.836  -0.007   2.321  0.2679  1.3215  0.6352
 2888TIP3   OH230078   2.416   1.428   5.291 -0.1894 -0.0704 -0.5813
 2888TIP3    H130079   2.329   1.398   5.320 -0.2362 -0.4291 -1.0933
 2888TIP3    H230080   2.412   1.427   5.196  0.0944  0.7563 -0.6108
 2889TIP3   OH230081   4.408   5.448   5.780  0.3831 -0.1310 -0.2710
 2889TIP3    H130082   4.348   5.507   5.733  0.6499 -0.7161 -1.3845
 2889TIP3    H230083   4.375   5.448   5.870  0.3486  1.6618 -0.2512
 2890TIP3   OH230084   1.589   5.676  16.691  0.0120  0.3559 -0.1165
 2890TIP3    H130085   1.493   5.681  16.688 -0.2241 -2.6523  0.2487
 2890TIP3    H230086   1.611   5.685  16.784  0.0514  0.5364 -0.1434
 2891TIP3   OH230087   3.185   3.925   6.334 -0.1216 -0.1102  0.3613
 2891TIP3    H130088   3.276   3.955   6.331 -0.3093  0.4543  0.1053
 2891TIP3    H230089   3.152   3.958   6.418  0.0115 -0.6232  0.6171
 2892TIP3   OH230090   2.812   2.047   0.113  0.9261  0.1698 -0.4779
 2892TIP3    H130091   2.785   1.968   0.160  0.8963  0.8170  0.6156
 2892TIP3    H230092   2.908   2.044   0.114  0.9325  0.4347  0.0777
 2893TIP3   OH230093   6.101   3.183   1.224  0.0398 -0.5816  0.3356
 2893TIP3    H130094   6.010   3.155   1.237  0.1624 -1.0805  0.1566
 2893TIP3    H230095   6.149   3.101   1.211  0.2828 -0.2505 -1.0058
 2894TIP3   OH230096   5.031   3.594  12.091  0.2332  0.4121 -0.0803
 2894TIP3    H130097   5.102   3.534  12.068  0.5299  0.7155  0.0278
 2894TIP3    H230098   5.075   3.666  12.137  0.1035  1.4964 -1.5793
 2895TIP3   OH230099   3.861   0.740  14.919  1.0519 -0.2322  0.5209
 2895TIP3    H130100   3.845   0.708  14.830 -0.4242 -0.9047  0.9816
 2895TIP3    H230101   3.898   0.665  14.965 -1.3531 -1.0519  1.3063
 2896TIP3   OH230102   0.659   2.091   4.192  0.2728 -0.3886  1.0248
 2896TIP3    H130103   0.646   2.125   4.104  0.0303  0.6844  1.4647
 2896TIP3    H230104   0.657   1.995   4.181  2.1857 -0.3231 -0.4189
 2897TIP3   OH230105   1.433   5.475  15.949 -0.4868  0.2889 -0.2222
 2897TIP3    H130106   1.515   5.425  15.945  0.2595  1.4899 -0.8440
 2897TIP3    H230107   1.378   5.438  15.880  0.0109  0.2465 -0.6049
 2898TIP3   OH230108   1.686   1.432   4.413  0.2063 -0.1682 -0.4913
 2898TIP3    H130109   1.611   1.447   4.355 -0.2604  1.6666  0.5085
 2898TIP3    H230110   1.664   1.351   4.459 -0.8160 -0.0771 -0.7879
 2899TIP3   OH230111   3.868   2.056  11.660  0.6956 -0.6649 -0.1351
 2899TIP3    H130112   3.869   2.099  11.574 -4.2508  3.1084  1.2276
 2899TIP3    H230113   3.938   2.097  11.709  1.0168  0.0886 -1.1897
 2900TIP3   OH230114   1.469   5.900   1.159 -0.1666 -0.1362  0.5041
 2900TIP3    H130115   1.423   5.983   1.173 -0.6774 -0.0201 -1.5256
 2900TIP3    H230116   1.537   5.898   1.227 -0.2870  1.8351  0.7303
 2901TIP3   OH230117   1.998   3.888   2.644 -0.4206 -0.0313  0.2948
 2901TIP3    H130118   2.057   3.812   2.646  0.7614  0.6810 -2.3361
 2901TIP3    H230119   1.926   3.860   2.587 -1.6883 -0.2168  1.9229
 2902TIP3   OH230120   3.628   3.586  13.315 -0.1035 -0.0534 -0.3357
 2902TIP3    H130121   3.720   3.584  13.286  0.3059 -1.0154  0.9279
 2902TIP3    H230122   3.585   3.645  13.253  1.2643  0.0446 -1.2522
 2903TIP3   OH230123   5.141   5.488   6.426 -0.3450  0.0087  0.1974
 2903TIP3    H130124   5.163   5.533   6.345 -0.1294  0.1354  0.3244
 2903TIP3    H230125   5.189   5.405   6.421 -1.1265 -0.4245 -0.2557
 2904TIP3   OH230126   6.144   2.078  13.970  0.3676 -0.3872 -0.4719
 2904TIP3    H130127   6.123   2.019  14.043  1.2154 -0.8042 -0.5498
 2904TIP3    H230128   6.216   2.131  14.003  0.5239 -0.3394 -0.8875
 2905TIP3   OH230129   6.261   2.916   3.294 -0.3497  0.1697  0.0191
 2905TIP3    H130130   6.269   2.949   3.204 -2.0179  2.9846  0.7969
 2905TIP3    H230131   6.352   2.906   3.323  0.2406  1.6285 -1.1743
 2906TIP3   OH230132   1.167   3.821   6.178 -0.3243  0.5495 -0.5178
 2906TIP3    H130133   1.262   3.809   6.182 -0.0877  1.5951 -1.9753
 2906TIP3    H230134   1.146   3.875   6.255  0.0220 -0.8004  0.5658
 2907TIP3   OH230135   5.619   1.838   2.248  0.0468 -0.0959 -0.0638
 2907TIP3    H130136   5.657   1.925   2.244 -0.0994  0.0256  0.9720
 2907TIP3    H230137   5.630   1.803   2.159  0.5091  0.7942 -0.3692
 2908TIP3   OH230138   6.434   1.034   1.442  0.6116 -0.4190  0.1563
 2908TIP3    H130139   6.382   1.010   1.365 -0.1963  0.4656  0.4045
 2908TIP3    H230140   6.400   0.979   1.512  0.0365  0.1139  0.3035
 2909TIP3   OH230141   0.795   1.123   1.366 -0.0502 -0.2785  0.1412
 2909TIP3    H130142   0.809   1.092   1.456  0.3354 -1.6890 -0.3740
 2909TIP3    H230143   0.871   1.178   1.348  1.2261 -2.0565 -0.1626
 2910TIP3   OH230144   6.619   4.878  16.449 -0.4030  0.6081 -0.0204
 2910TIP3    H130145   6.673   4.864  16.372 -0.2492  1.3582 -0.0544
 2910TIP3    H230146   6.529   4.883  16.415 -0.9502 -3.6340  0.3241
 2911TIP3   OH230147   2.875   5.356  17.328 -0.4397 -0.0184  0.1494
 2911TIP3    H130148   2.952   5.374  17.381 -0.1764  0.7354 -0.4675
 2911TIP3    H230149   2.892   5.271  17.287 -0.3976 -0.3349  0.8214
 2912TIP3   OH230150   0.386   5.358  11.567  0.0045  0.1924 -0.5745
 2912TIP3    H130151   0.305   5.384  11.523 -0.4925  0.5940  0.5304
 2912TIP3    H230152   0.442   5.436  11.564  0.2552 -0.0047 -1.1125
 2913TIP3   OH230153   1.665   6.341  13.139  0.3999  0.1036  0.4168
 2913TIP3    H130154   1.673   6.378  13.051  0.5450 -0.8804 -0.0022
 2913TIP3    H230155   1.639   6.414  13.194  1.0260  0.8988 -0.3150
 2914TIP3   OH230156   0.293   6.113   0.862 -0.0963 -0.2383 -0.0713
 2914TIP3    H130157   0.381   6.144   0.882 -1.2075  2.5842  0.8611
 2914TIP3    H230158   0.301   6.076   0.774  1.9095  0.3879 -0.2135
 2915TIP3   OH230159   3.890   6.677   3.479  0.0875 -0.0438 -0.0013
 2915TIP3    H130160   3.858   6.628   3.403 -0.4838 -0.6526  0.6132
 2915TIP3    H230161   3.812   6.721   3.512  0.1306 -0.5580  0.7964
 2916TIP3   OH230162   0.757   0.014   6.803  0.2060  0.2347 -0.6536
 2916TIP3    H130163   0.774  -0.050   6.734  0.0272  0.6467 -1.0826
 2916TIP3    H230164   0.836   0.068   6.805  1.0268 -0.9448  0.7736
 2917TIP3   OH230165   4.371   2.934   4.216 -0.0168  0.2134  0.5974
 2917TIP3    H130166   4.357   2.867   4.283 -0.5434  1.4991  1.8163
 2917TIP3    H230167   4.304   2.915   4.149 -1.0570  0.3010  1.5742
 2918TIP3   OH230168   1.102   5.633  11.502 -0.0883  0.0639  0.1219
 2918TIP3    H130169   1.104   5.599  11.592 -0.6578  0.2246  0.1992
 2918TIP3    H230170   1.060   5.719  11.510 -1.2627 -0.4298 -0.4499
 2919TIP3   OH230171   6.140   0.796  11.948 -0.0962  0.2955  0.1494
 2919TIP3    H130172   6.075   0.748  11.897  1.1384  1.1391 -2.4131
 2919TIP3    H230173   6.096   0.817  12.030 -2.4634 -0.5998 -0.8127
 2920TIP3   OH230174   0.686   6.013   3.239  0.1640 -0.0159  0.0582
 2920TIP3    H130175   0.675   5.918   3.236  0.2982 -0.0719  0.9523
 2920TIP3    H230176   0.677   6.042   3.149 -0.5800 -0.8034 -0.1279
 2921TIP3   OH230177   4.363   0.756  12.859 -0.6285  0.3189 -0.6224
 2921TIP3    H130178   4.430   0.710  12.909  0.3161  1.9917 -0.3032
 2921TIP3    H230179   4.282   0.741  12.909 -0.9768 -3.1949 -1.9326
 2922TIP3   OH230180   2.289   5.658   5.927 -0.0831 -0.2682  0.6470
 2922TIP3    H130181   2.193   5.663   5.925 -0.1708 -1.6128  0.4505
 2922TIP3    H230182   2.312   5.612   5.846  0.7001 -0.3642  0.9168
 2923TIP3   OH230183   2.622   4.813   1.778 -0.4523  0.5521 -0.3326
 2923TIP3    H130184   2.708   4.774   1.761  0.2256  1.3896  1.0067
 2923TIP3    H230185   2.586   4.760   1.849 -1.4188 -0.2832 -1.4035
 2924TIP3   OH230186   1.384   2.809  16.317 -0.1430 -0.4003 -0.2239
 2924TIP3    H130187   1.386   2.834  16.224 -0.1591  1.4838  0.2560
 2924TIP3    H230188   1.304   2.849  16.351 -0.5446 -1.7177  0.4698
 2925TIP3   OH230189   4.909   0.946   2.460  0.3440  0.1115 -0.3971
 2925TIP3    H130190   4.921   0.872   2.519  0.2470 -0.0424 -0.5725
 2925TIP3    H230191   4.996   0.985   2.453  0.2366  0.4924  0.3284
 2926TIP3   OH230192   4.441   2.372  13.557 -0.9773  0.5289 -0.4996
 2926TIP3    H130193   4.434   2.455  13.603  3.0955  1.8451 -1.7988
 2926TIP3    H230194   4.506   2.322  13.607  0.0691  0.1173 -2.1688
 2927TIP3   OH230195   0.164   4.724  15.504  0.2370 -0.2078 -0.2318
 2927TIP3    H130196   0.215   4.769  15.436  1.6084 -0.8786  0.3034
 2927TIP3    H230197   0.087   4.779  15.517  0.0135  0.0194 -2.2065
 2928TIP3   OH230198   4.835   4.285   4.336  0.1584 -0.1556  0.0555
 2928TIP3    H130199   4.854   4.228   4.262  0.3993  0.2770 -0.2219
 2928TIP3    H230200   4.754   4.330   4.312  2.1297  2.8236 -1.7177
 2929TIP3   OH230201   0.813   5.146   4.119 -0.3611  0.4891 -0.2067
 2929TIP3    H130202   0.832   5.225   4.169  1.9811  0.1726 -0.5183
 2929TIP3    H230203   0.894   5.126   4.072 -0.8293 -2.2007 -0.0315
 2930TIP3   OH230204   5.400   5.119   2.285  0.0347  0.0070  0.0262
 2930TIP3    H130205   5.386   5.203   2.242  0.6898 -0.6994 -1.6722
 2930TIP3    H230206   5.363   5.054   2.225  0.4466 -1.0012  0.8157
 2931TIP3   OH230207   4.793   5.429  12.116 -0.2520 -0.2666 -0.5712
 2931TIP3    H130208   4.807   5.505  12.171 -0.6953  0.4684 -1.4417
 2931TIP3    H230209   4.880   5.402  12.088 -0.1702  0.6966 -1.2684
 2932TIP3   OH230210   3.877   5.387   0.270  0.5250  0.0546 -0.3437
 2932TIP3    H130211   3.926   5.306   0.263  0.0516 -0.5141  2.0886
 2932TIP3    H230212   3.944   5.456   0.269  1.1558 -0.5383  0.3001
 2933TIP3   OH230213   0.861   2.165   1.828  0.3473 -0.0988 -0.0548
 2933TIP3    H130214   0.900   2.237   1.877 -1.0878  0.3753  0.4307
 2933TIP3    H230215   0.768   2.170   1.847 -0.3094  0.1424 -2.8551
 2934TIP3   OH230216   0.768   4.209   3.813  0.0960 -0.0997 -0.1911
 2934TIP3    H130217   0.747   4.209   3.719 -1.4519 -1.7311  0.1114
 2934TIP3    H230218   0.741   4.296   3.843 -1.8023 -0.4453 -0.7918
 2935TIP3   OH230219   4.408   0.864   5.402 -0.1438 -0.2935 -0.0322
 2935TIP3    H130220   4.430   0.934   5.340 -1.1867 -1.3546 -1.6577
 2935TIP3    H230221   4.492   0.838   5.439  0.4643  0.6012 -0.7310
 2936TIP3   OH230222   1.727   0.587   1.019  0.2301  0.6993 -0.0647
 2936TIP3    H130223   1.752   0.501   1.052 -0.4780  0.5363  0.0646
 2936TIP3    H230224   1.741   0.582   0.924  0.2558  0.4671 -0.0490
 2937TIP3   OH230225   5.620   5.608   4.107  0.1368  0.0881  0.0332
 2937TIP3    H130226   5.557   5.569   4.047 -1.9019  2.2470  0.6061
 2937TIP3    H230227   5.610   5.561   4.189  1.8393 -1.8521 -0.7841
 2938TIP3   OH230228   6.082   0.189   2.378 -0.0093 -0.4428 -0.3297
 2938TIP3    H130229   6.021   0.248   2.424  1.5604  0.5500  0.5701
 2938TIP3    H230230   6.163   0.194   2.429  0.6311 -2.2905 -1.0772
 2939TIP3   OH230231   1.123   1.324  14.167  0.2749  0.1481 -0.2657
 2939TIP3    H130232   1.122   1.413  14.132  1.4757  0.5679  0.6651
 2939TIP3    H230233   1.103   1.268  14.093  0.3722  1.1431 -1.0647
 2940TIP3   OH230234   0.354   2.204   1.091  0.0576  0.0974  0.5166
 2940TIP3    H130235   0.290   2.275   1.082  0.0167 -0.0217 -0.1937
 2940TIP3    H230236   0.360   2.166   1.003  1.1363  0.1457  0.5475
 2941TIP3   OH230237   1.681   4.537   3.751  0.1665 -0.0195  0.5327
 2941TIP3    H130238   1.649   4.526   3.841 -1.5422  1.1325  0.1254
 2941TIP3    H230239   1.605   4.520   3.696  1.1278 -0.4858 -0.7034
 2942TIP3   OH230240   2.945   0.928  13.625 -0.0780  0.2138 -0.4306
 2942TIP3    H130241   2.989   0.846  13.649  0.8630  1.0808  0.9236
 2942TIP3    H230242   2.898   0.907  13.544  0.7554 -1.4489 -0.5238
 2943TIP3   OH230243   3.579   3.064  11.257 -0.2280 -0.0613 -0.9999
 2943TIP3    H130244   3.571   2.987  11.313 -2.6411  0.1089 -0.9933
 2943TIP3    H230245   3.568   3.138  11.316  0.2692  0.2436 -1.2766
 2944TIP3   OH230246   5.945   5.727  11.199 -0.2299 -0.2414  0.2277
 2944TIP3    H130247   5.894   5.798  11.160  0.0966  0.4696  1.0757
 2944TIP3    H230248   6.034   5.762  11.207 -0.1782 -0.5606  1.1215
 2945TIP3   OH230249   1.323   2.805   3.905 -0.4358  0.0613 -0.5582
 2945TIP3    H130250   1.243   2.755   3.886 -1.9015  1.5693  1.2727
 2945TIP3    H230251   1.322   2.877   3.842  0.2112 -0.6095 -1.3701
 2946TIP3   OH230252   6.263   5.254   4.909 -0.1069 -0.6582 -0.1468
 2946TIP3    H130253   6.273   5.281   4.818  0.5656 -0.9767 -0.1735
 2946TIP3    H230254   6.349   5.270   4.948 -0.7394  0.6631  0.7554
 2947TIP3   OH230255   4.413   4.557   4.179  0.2734  0.0670  0.1865
 2947TIP3    H130256   4.399   4.479   4.124  1.1324 -0.5235  0.7906
 2947TIP3    H230257   4.508   4.560   4.193  0.3426  1.5960 -0.3475
 2948TIP3   OH230258   0.709   5.303   5.143 -0.2311 -0.6341  0.7488
 2948TIP3    H130259   0.653   5.348   5.080  0.5762  0.2180  0.6244
 2948TIP3    H230260   0.787   5.357   5.150  0.0871 -1.1865  1.8063
 2949TIP3   OH230261   3.602   6.765   6.103  0.4893  0.2207 -0.2185
 2949TIP3    H130262   3.639   6.679   6.124 -1.4076 -0.5626  0.1308
 2949TIP3    H230263   3.629   6.821   6.177 -0.4881 -0.7961  0.9553
 2950TIP3   OH230264   0.283   5.507  14.266  0.6359 -0.0898  0.1936
 2950TIP3    H130265   0.350   5.441  14.246  1.4981  0.8543 -0.1168
 2950TIP3    H230266   0.324   5.590  14.243 -0.5367  0.5384  0.3198
 2951TIP3   OH230267   6.603   2.786   4.516 -0.3630  0.3937 -0.3396
 2951TIP3    H130268   6.587   2.880   4.512  0.9422  0.6297 -0.2568
 2951TIP3    H230269   6.646   2.765   4.434 -2.6180 -0.5640 -1.3563
 2952TIP3   OH230270   0.127   5.438  13.106  0.0094 -0.0446  0.1264
 2952TIP3    H130271   0.215   5.401  13.099  0.0407 -0.1283  0.9014
 2952TIP3    H230272   0.124   5.479  13.193 -0.7951 -0.2550  0.2136
 2953TIP3   OH230273   1.957   5.483   2.354 -0.4110  0.2106  0.5524
 2953TIP3    H130274   1.973   5.577   2.357  1.4167 -0.0288 -0.2271
 2953TIP3    H230275   2.040   5.444   2.379 -0.1184 -1.1759 -2.1716
 2954TIP3   OH230276   1.109   4.132  11.771  0.3503  0.1966  0.7242
 2954TIP3    H130277   1.173   4.131  11.700 -1.0058  1.0838 -0.5862
 2954TIP3    H230278   1.078   4.041  11.776 -1.7025  0.6134 -1.9972
 2955TIP3   OH230279   4.844   3.510  12.805 -0.7468  0.2610 -0.1284
 2955TIP3    H130280   4.819   3.533  12.716  0.0797  1.2168 -0.1437
 2955TIP3    H230281   4.761   3.502  12.853 -1.1708  0.3104 -0.8501
 2956TIP3   OH230282   4.835   1.375  14.367  0.1873  0.1817  0.4952
 2956TIP3    H130283   4.838   1.288  14.406 -1.1830 -0.3122 -0.4259
 2956TIP3    H230284   4.879   1.431  14.431  2.3664 -1.3789  0.4860
 2957TIP3   OH230285   4.090   2.072  13.313  0.0673 -0.1689  0.0322
 2957TIP3    H130286   4.154   2.126  13.266  1.0678 -0.3862  1.0843
 2957TIP3    H230287   4.140   1.996  13.342 -0.6237 -0.2566  1.0472
 2958TIP3   OH230288   3.459   4.616  10.955 -0.0778 -0.5269 -0.4364
 2958TIP3    H130289   3.421   4.531  10.932  0.0838 -1.0691  1.1878
 2958TIP3    H230290   3.384   4.672  10.973 -0.1839 -1.1158  1.1028
 2959TIP3   OH230291   1.859   0.939   5.205  0.2767 -0.7452  0.1237
 2959TIP3    H130292   1.953   0.948   5.221  0.6833 -2.1119 -1.2223
 2959TIP3    H230293   1.842   0.995   5.129  0.2361 -1.2931 -0.2804
 2960TIP3   OH230294   1.101   5.531  10.431 -0.5324 -0.3398  0.5677
 2960TIP3    H130295   1.043   5.579  10.490 -0.4960  0.6851 -0.2047
 2960TIP3    H230296   1.045   5.464  10.391 -1.1693  0.5203 -0.0317
 2961TIP3   OH230297   0.252   1.473   4.785 -0.4787  0.2161  0.3124
 2961TIP3    H130298   0.262   1.387   4.827  0.6542  0.7197  1.1091
 2961TIP3    H230299   0.185   1.458   4.717 -1.3154 -0.9561  1.3383
 2962TIP3   OH230300   1.487   3.257  10.467  0.1663 -0.6101  0.1802
 2962TIP3    H130301   1.568   3.245  10.516  0.9439  1.1082 -0.5996
 2962TIP3    H230302   1.472   3.352  10.468 -0.1247 -0.5658 -2.3056
 2963TIP3   OH230303   1.635   2.041   2.874  0.0451 -0.7088  0.0500
 2963TIP3    H130304   1.660   2.085   2.955 -0.1303  0.5319 -0.5436
 2963TIP3    H230305   1.717   2.029   2.826 -0.1434  1.0060 -0.7547
 2964TIP3   OH230306   1.306   3.693  16.966 -0.5597 -0.8204  0.2387
 2964TIP3    H130307   1.259   3.683  17.048 -0.4472 -1.3225  0.2429
 2964TIP3    H230308   1.386   3.642  16.977  0.0021  0.0413  0.2375
 2965TIP3   OH230309   3.187   1.978   3.839 -0.4304  0.1124  0.0408
 2965TIP3    H130310   3.240   1.999   3.762 -1.7416  0.5027 -0.7690
 2965TIP3    H230311   3.100   1.960   3.805 -0.7497 -0.9248  1.3145
 2966TIP3   OH230312   2.453   5.560  13.239 -0.8003 -0.0985  0.7289
 2966TIP3    H130313   2.480   5.511  13.162 -1.8483 -0.0465  0.3134
 2966TIP3    H230314   2.472   5.651  13.218 -1.2929 -0.0607  0.4275
 2967TIP3   OH230315   4.548   0.505   0.687  0.3173  0.3912  0.2790
 2967TIP3    H130316   4.630   0.473   0.724  0.2790 -0.1354 -0.0692
 2967TIP3    H230317   4.482   0.442   0.718  0.1424  0.4742  0.0766
 2968TIP3   OH230318   5.220   5.798  14.675  0.0191  0.9833 -0.3473
 2968TIP3    H130319   5.193   5.886  14.648 -0.5872  0.6023 -1.0022
 2968TIP3    H230320   5.299   5.781  14.623 -0.5064  0.6955 -1.0559
 2969TIP3   OH230321   3.155   0.414   4.034  0.2990  0.2034 -0.1005
 2969TIP3    H130322   3.077   0.469   4.040 -0.0054  0.0912 -2.1951
 2969TIP3    H230323   3.128   0.329   4.070 -0.2248  0.4850  0.1751
 2970TIP3   OH230324   1.314   2.150  12.149  0.1314  0.2853 -0.6124
 2970TIP3    H130325   1.356   2.232  12.174 -1.2145  0.9737 -0.4871
 2970TIP3    H230326   1.370   2.113  12.081  0.2097  1.8457 -1.4354
 2971TIP3   OH230327   1.207   2.478  12.829  0.0315 -0.4962  0.3272
 2971TIP3    H130328   1.138   2.519  12.776  1.6981  0.1221 -1.4930
 2971TIP3    H230329   1.226   2.396  12.785  1.5543  0.0921 -0.1739
 2972TIP3   OH230330   5.348   6.162   4.350 -0.2095  0.3689 -0.1174
 2972TIP3    H130331   5.381   6.189   4.264 -1.4913  0.7261 -0.5145
 2972TIP3    H230332   5.394   6.080   4.368  0.3256  0.4588 -0.9874
 2973TIP3   OH230333   2.584   5.390  11.215 -0.0921 -0.1325 -0.0570
 2973TIP3    H130334   2.536   5.457  11.166  0.7048 -0.2859 -1.0825
 2973TIP3    H230335   2.523   5.316  11.222 -0.5557  0.2594  0.0531
 2974TIP3   OH230336   5.928   1.246  16.293  0.3393 -0.4340  0.4460
 2974TIP3    H130337   5.977   1.251  16.374  0.3701  0.9366  0.3617
 2974TIP3    H230338   5.889   1.333  16.282 -0.4108 -0.8640 -0.5373
 2975TIP3   OH230339   6.288   5.117  13.842  0.0833 -0.0521  0.2379
 2975TIP3    H130340   6.230   5.190  13.864 -2.3323 -1.6286 -0.4987
 2975TIP3    H230341   6.369   5.159  13.812 -0.8538  2.2758  0.7426
 2976TIP3   OH230342   1.250   1.603   2.414 -0.6370  0.0086 -0.3160
 2976TIP3    H130343   1.228   1.686   2.372  0.1842  0.4949  0.1700
 2976TIP3    H230344   1.213   1.536   2.357 -0.0859  0.6652 -1.4735
 2977TIP3   OH230345   4.097   1.632   0.071 -0.1263  0.6920 -0.4963
 2977TIP3    H130346   4.156   1.567   0.109 -0.2921  0.2421 -0.9789
 2977TIP3    H230347   4.064   1.682   0.146 -1.3685 -0.9375  0.1107
 2978TIP3   OH230348   5.872   3.749   4.385 -0.3485  0.6923  0.8504
 2978TIP3    H130349   5.902   3.722   4.298  0.9713  2.0770  0.8317
 2978TIP3    H230350   5.801   3.811   4.368  0.2201  1.3178  0.7381
 2979TIP3   OH230351   6.379   4.002  15.914  0.3891  0.0051  0.2817
 2979TIP3    H130352   6.334   4.046  15.842  0.5741  1.0440  0.7790
 2979TIP3    H230353   6.356   3.910  15.904 -1.7553  0.4684  0.4365
 2980TIP3   OH230354   3.694   2.656   2.970 -0.3159 -0.0283  0.2495
 2980TIP3    H130355   3.734   2.646   3.057  0.4530 -0.8105 -0.1702
 2980TIP3    H230356   3.688   2.750   2.957 -0.7385  0.1003  1.2799
 2981TIP3   OH230357   4.334   3.181   5.347 -0.2734  0.5300  0.1167
 2981TIP3    H130358   4.253   3.222   5.317  0.6683  1.1035 -1.8195
 2981TIP3    H230359   4.400   3.250   5.338  1.3088 -1.1758 -2.9397
 2982TIP3   OH230360   1.514   5.255  12.008  0.2733  0.0822 -0.2930
 2982TIP3    H130361   1.540   5.180  12.062 -0.1688 -0.1026 -0.3298
 2982TIP3    H230362   1.528   5.225  11.918  1.3598  0.5185 -0.2866
 2983TIP3   OH230363   5.454   6.281   4.108 -0.2479  0.1071  0.1486
 2983TIP3    H130364   5.543   6.279   4.072  0.5923 -0.5974  2.1187
 2983TIP3    H230365   5.461   6.333   4.188 -1.4965 -0.3889  0.6134
 2984TIP3   OH230366   4.391   4.442  13.108  0.2174  0.0676  0.2325
 2984TIP3    H130367   4.425   4.352  13.108 -1.5751 -0.6530  1.1421
 2984TIP3    H230368   4.440   4.485  13.179  1.5114  0.0163 -0.5926
 2985TIP3   OH230369   4.603   0.189  16.136  0.0515  0.1850 -0.1406
 2985TIP3    H130370   4.521   0.155  16.098 -1.3383  3.6731 -0.6520
 2985TIP3    H230371   4.589   0.183  16.230  0.3135 -1.4797 -0.1677
 2986TIP3   OH230372   4.914   6.091   3.578 -0.0782 -0.4229 -0.2649
 2986TIP3    H130373   4.846   6.035   3.616  0.1292 -1.3360 -1.1824
 2986TIP3    H230374   4.945   6.144   3.651  0.2207 -2.0357  0.8289
 2987TIP3   OH230375   0.031   2.291   4.384  0.3653  0.0647 -0.2375
 2987TIP3    H130376   0.072   2.376   4.404  1.1464  0.2282 -2.2820
 2987TIP3    H230377  -0.062   2.306   4.398  0.6232  0.8200  0.8405
 2988TIP3   OH230378   2.003   4.017  14.849  0.2199 -0.2505 -0.3176
 2988TIP3    H130379   2.019   4.104  14.886 -0.7577 -0.9533  1.9676
 2988TIP3    H230380   2.058   3.959  14.901 -0.0505 -1.1402 -1.0071
 2989TIP3   OH230381   2.848   0.174   5.076 -0.5262 -0.1492  0.2537
 2989TIP3    H130382   2.810   0.154   4.990  2.2751 -0.7766 -0.9644
 2989TIP3    H230383   2.925   0.228   5.055 -0.0354  0.0631  2.4325
 2990TIP3   OH230384   3.348   3.827   4.096 -0.1748  0.4570 -0.3479
 2990TIP3    H130385   3.420   3.801   4.153 -0.4140  0.4814 -0.0333
 2990TIP3    H230386   3.298   3.747   4.081 -0.6046  0.6230  0.1822
 2991TIP3   OH230387   6.256   0.755  15.530  0.2001  0.5487  0.1681
 2991TIP3    H130388   6.342   0.729  15.498  0.4327  2.7311 -1.2582
 2991TIP3    H230389   6.197   0.684  15.504  1.1796  0.1778 -1.0938
 2992TIP3   OH230390   4.151   4.819   3.299 -0.3011  0.5967  0.1151
 2992TIP3    H130391   4.168   4.730   3.270 -0.5584  0.2630  0.9780
 2992TIP3    H230392   4.078   4.849   3.244 -0.5596  0.0902  0.1800
 2993TIP3   OH230393   3.916   4.505  15.772 -0.0368  0.9652 -0.2536
 2993TIP3    H130394   3.907   4.503  15.676  1.4069 -0.9088 -0.4156
 2993TIP3    H230395   4.005   4.535  15.787 -0.7175  2.6548  0.6019
 2994TIP3   OH230396   4.740   1.024  11.628  0.2125 -0.1760  0.2790
 2994TIP3    H130397   4.812   0.984  11.677  1.7056  1.6157 -0.3671
 2994TIP3    H230398   4.776   1.040  11.541 -1.2626 -0.0374 -0.3319
 2995TIP3   OH230399   6.225   4.287  12.842  0.6196 -0.1168  0.0393
 2995TIP3    H130400   6.270   4.287  12.758 -1.1970 -1.0864 -0.9883
 2995TIP3    H230401   6.253   4.206  12.885  0.2852 -0.4593 -0.3759
 2996TIP3   OH230402   1.436   1.866   4.222  0.2746  0.5872 -0.1246
 2996TIP3    H130403   1.458   1.774   4.204 -1.2878 -0.4035  2.4423
 2996TIP3    H230404   1.519   1.912   4.213  1.2752 -1.2097 -0.7064
 2997TIP3   OH230405   4.254   2.196   0.864  0.1180 -0.0701 -0.0525
 2997TIP3    H130406   4.176   2.157   0.823 -0.1422 -1.8874  2.0221
 2997TIP3    H230407   4.326   2.172   0.806 -0.2885 -2.2721  0.2798
 2998TIP3   OH230408   5.015   1.599   2.284 -0.3097  0.8639 -0.3095
 2998TIP3    H130409   5.110   1.614   2.279  0.8296 -4.6242 -0.9336
 2998TIP3    H230410   4.994   1.618   2.376  0.9003  3.7750 -0.5251
 2999TIP3   OH230411   0.414   3.586   2.417 -0.1240 -0.1546  0.3390
 2999TIP3    H130412   0.481   3.519   2.430 -0.4742 -0.2825  1.6110
 2999TIP3    H230413   0.361   3.553   2.345 -0.0434 -1.0406  0.6780
 3000TIP3   OH230414   0.426   0.082  14.762 -0.5243  0.3374  0.9382
 3000TIP3    H130415   0.399  -0.010  14.769 -1.7492  0.5494 -0.6525
 3000TIP3    H230416   0.457   0.103  14.851 -2.0805 -1.0300  1.8760
 3001TIP3   OH230417   0.409   4.187   2.781 -0.2724 -0.8250  0.0829
 3001TIP3    H130418   0.414   4.182   2.686  0.7520 -0.0751  0.0753
 3001TIP3    H230419   0.345   4.121   2.806  0.0591 -1.6074 -1.0686
 3002TIP3   OH230420   6.752   6.007  15.960 -0.2198  0.2183 -0.5619
 3002TIP3    H130421   6.779   6.077  16.019  0.7895 -1.5454  1.1612
 3002TIP3    H230422   6.813   5.935  15.977  1.2758  0.1006 -4.9562
 3003TIP3   OH230423   2.791   0.139  14.673 -0.7488 -0.3284  0.3813
 3003TIP3    H130424   2.782   0.046  14.696  0.0308  0.1979  3.1757
 3003TIP3    H230425   2.702   0.167  14.654 -1.4551 -1.0404  2.3421
 3004TIP3   OH230426   5.868   5.161   5.309  0.3935 -0.6339 -0.7491
 3004TIP3    H130427   5.954   5.135   5.276  0.8389  0.5435 -0.5656
 3004TIP3    H230428   5.823   5.196   5.232  0.3843 -0.4990 -0.6826
 3005TIP3   OH230429   3.537   2.487   4.924 -0.0606 -0.1937 -0.6011
 3005TIP3    H130430   3.491   2.565   4.894 -1.6326 -0.4454  0.9993
 3005TIP3    H230431   3.494   2.415   4.879  1.0042 -0.2317 -1.6236
 3006TIP3   OH230432   2.733   1.838   2.608  0.2934 -0.3968  0.3980
 3006TIP3    H130433   2.788   1.881   2.543  0.6135  1.5243  1.8477
 3006TIP3    H230434   2.693   1.765   2.561  2.0238 -0.2760 -1.4036
 3007TIP3   OH230435   6.571   6.764   1.627 -0.3409  0.3816 -0.0087
 3007TIP3    H130436   6.575   6.855   1.657  3.0878  0.4922 -0.3957
 3007TIP3    H230437   6.573   6.712   1.707 -3.4653  0.5079  0.2794
 3008TIP3   OH230438   0.372   6.169   5.906 -0.7649  0.1473 -0.3528
 3008TIP3    H130439   0.348   6.082   5.874 -0.8637  0.7203 -1.9722
 3008TIP3    H230440   0.310   6.228   5.861  0.9428  1.2725 -1.3428
 3009TIP3   OH230441   0.717   1.835   2.512 -0.4628 -0.3765 -0.1328
 3009TIP3    H130442   0.809   1.859   2.505 -0.4519 -0.8412 -2.3112
 3009TIP3    H230443   0.670   1.918   2.518 -0.0634 -0.0153 -1.7632
 3010TIP3   OH230444   2.218   6.585  16.110  0.6259  0.3865 -0.8693
 3010TIP3    H130445   2.238   6.617  16.022 -1.1402  1.7694 -0.8140
 3010TIP3    H230446   2.287   6.622  16.165 -0.2326  2.4800 -1.1342
 3011TIP3   OH230447   2.125   0.135  14.277 -0.2329  0.2272 -0.8662
 3011TIP3    H130448   2.037   0.124  14.313 -0.7519  1.2566 -1.7399
 3011TIP3    H230449   2.144   0.052  14.233  0.1216 -0.7843  1.0568
 3012TIP3   OH230450   5.485   1.589  11.406 -0.1260  0.0701  0.8922
 3012TIP3    H130451   5.565   1.538  11.411 -0.0404  0.2515  1.4570
 3012TIP3    H230452   5.493   1.638  11.324  0.1161 -0.2834  0.7052
 3013TIP3   OH230453   2.758   3.330  15.436  0.5362  0.4164  0.3312
 3013TIP3    H130454   2.830   3.268  15.451  1.1074  1.1579  0.7485
 3013TIP3    H230455   2.759   3.387  15.513  0.8058  1.6835 -0.5615
 3014TIP3   OH230456   5.032   5.451   4.076  0.3748  0.9150 -0.2361
 3014TIP3    H130457   5.098   5.387   4.102 -0.9501 -0.5774 -0.3813
 3014TIP3    H230458   4.984   5.408   4.005 -0.1878  2.3220 -0.7476
 3015TIP3   OH230459   5.599   5.770   5.090  0.3315 -0.0640 -0.3199
 3015TIP3    H130460   5.682   5.735   5.057  0.0228 -0.3048 -0.8552
 3015TIP3    H230461   5.550   5.793   5.011 -0.4221 -0.6365 -0.0284
 3016TIP3   OH230462   3.482   6.252  13.101 -0.5386 -0.2500 -0.4623
 3016TIP3    H130463   3.405   6.196  13.102  0.3018 -1.4620  1.4672
 3016TIP3    H230464   3.523   6.235  13.016 -2.5721  0.7680 -1.7151
 3017TIP3   OH230465   4.168   5.349  11.654  0.2126 -0.0682 -0.1040
 3017TIP3    H130466   4.074   5.330  11.662 -0.0116  0.9520 -0.1680
 3017TIP3    H230467   4.182   5.423  11.713  0.4145  1.5210 -2.0347
 3018TIP3   OH230468   1.496   6.702   1.356  0.6124 -0.1039  0.4158
 3018TIP3    H130469   1.443   6.665   1.286  0.5897  0.1303  0.3079
 3018TIP3    H230470   1.580   6.722   1.314  0.0338  1.6564  0.0141
 3019TIP3   OH230471   2.015   1.033  13.995  0.4227  0.5065  0.5348
 3019TIP3    H130472   1.997   0.950  13.951 -0.0037  0.9973 -0.2497
 3019TIP3    H230473   1.943   1.090  13.968  1.5572  1.6318 -0.2707
 3020TIP3   OH230474   1.164   4.111  14.528 -0.2715  0.6731 -0.1403
 3020TIP3    H130475   1.084   4.120  14.580  0.6894 -1.4064  1.8976
 3020TIP3    H230476   1.224   4.063  14.585  0.5674 -2.7061 -3.4679
 3021TIP3   OH230477   4.407   4.862  12.199 -0.2328  0.5085 -0.1517
 3021TIP3    H130478   4.386   4.858  12.106  1.6874  1.6728 -0.6926
 3021TIP3    H230479   4.502   4.871  12.201 -0.1965  0.0412  1.9553
 3022TIP3   OH230480   0.564   2.894  16.127 -0.2152  0.2025  0.1474
 3022TIP3    H130481   0.481   2.941  16.113  0.5048  1.7125  0.7982
 3022TIP3    H230482   0.573   2.889  16.222 -0.0837 -0.9661  0.0951
 3023TIP3   OH230483   1.406   0.427  12.349 -0.0942 -0.1716 -0.9102
 3023TIP3    H130484   1.448   0.350  12.309 -0.4388 -0.4081 -0.8251
 3023TIP3    H230485   1.447   0.502  12.306  1.5664 -0.3348  0.2838
 3024TIP3   OH230486   5.473   5.361   6.512 -0.2284  0.7343  0.8938
 3024TIP3    H130487   5.558   5.329   6.542 -0.3636  0.9613  1.5369
 3024TIP3    H230488   5.448   5.427   6.577 -1.4451 -0.1767  1.3826
 3025TIP3   OH230489   4.130   0.875   6.644  0.4951  0.4304  0.3881
 3025TIP3    H130490   4.150   0.958   6.687  2.2558 -0.2081  0.8937
 3025TIP3    H230491   4.213   0.846   6.608 -0.4400 -0.3060 -1.2814
 3026TIP3   OH230492   1.353   0.978   2.735 -0.0390  0.0237  0.2448
 3026TIP3    H130493   1.324   0.982   2.643  0.1971  1.4524  0.2172
 3026TIP3    H230494   1.283   0.930   2.779 -0.6923  0.2682 -0.4888
 3027TIP3   OH230495   0.545   0.901   5.689  0.2461  0.4643  0.7492
 3027TIP3    H130496   0.529   0.886   5.782 -0.7361  1.2459  0.7238
 3027TIP3    H230497   0.458   0.920   5.652  0.6079  0.0997 -0.3391
 3028TIP3   OH230498   0.664   3.306  13.413  0.1991 -0.1071  0.2534
 3028TIP3    H130499   0.721   3.340  13.482 -0.7496 -0.2890  1.1517
 3028TIP3    H230500   0.576   3.318  13.447 -0.2609 -0.8561 -0.6337
 3029TIP3   OH230501   0.748   0.569   0.735 -0.3045 -0.3903  0.3462
 3029TIP3    H130502   0.823   0.588   0.791  0.2134 -0.5512 -0.2904
 3029TIP3    H230503   0.741   0.646   0.678 -1.6674  0.4092  1.5026
 3030TIP3   OH230504   1.535   1.616  14.456  0.2714  0.2730 -0.4819
 3030TIP3    H130505   1.572   1.655  14.535 -0.1644  1.4815 -0.8578
 3030TIP3    H230506   1.575   1.665  14.384  0.5979 -0.7573 -1.0260
 3031TIP3   OH230507   4.236   2.421  13.384 -0.0262  0.3786  0.1458
 3031TIP3    H130508   4.308   2.405  13.446  0.0596  1.9315  0.5021
 3031TIP3    H230509   4.246   2.353  13.318  1.1963 -0.0190  0.6959
 3032TIP3   OH230510   2.128   5.816  14.547 -0.6933  0.3737 -0.6729
 3032TIP3    H130511   2.168   5.730  14.555 -0.3285  0.5511 -0.5697
 3032TIP3    H230512   2.166   5.853  14.467  1.0430  1.4197  0.5749
 3033TIP3   OH230513   1.018   2.864  16.395 -0.1776 -0.1904  0.3688
 3033TIP3    H130514   0.959   2.826  16.459  0.9036 -1.1993  0.8139
 3033TIP3    H230515   1.025   2.957  16.419 -1.9917  0.0828 -0.0577
 3034TIP3   OH230516   2.322   6.150   4.348  0.0410  0.0628 -0.0509
 3034TIP3    H130517   2.312   6.173   4.255 -0.7761  0.9646  0.2502
 3034TIP3    H230518   2.258   6.204   4.393  0.5699 -0.2284  1.0724
 3035TIP3   OH230519   4.230   1.285   0.882  0.1020 -0.0515  0.8241
 3035TIP3    H130520   4.167   1.214   0.871 -1.0630  1.2702 -2.0378
 3035TIP3    H230521   4.315   1.244   0.866 -0.4432 -1.0322  0.3374
 3036TIP3   OH230522   0.544   5.340   0.551 -0.7122  0.3158  0.4958
 3036TIP3    H130523   0.478   5.314   0.615 -0.3756 -0.4842  0.5338
 3036TIP3    H230524   0.494   5.359   0.471 -1.0976  0.9699  0.8898
 3037TIP3   OH230525   2.725   6.711  14.443 -0.0460 -0.1241  0.0128
 3037TIP3    H130526   2.744   6.741  14.354 -2.2522 -0.1930 -0.5382
 3037TIP3    H230527   2.648   6.762  14.469 -0.1721 -0.9988  1.3995
 3038TIP3   OH230528   2.883   1.748   1.209 -0.4428  0.4499  0.0439
 3038TIP3    H130529   2.937   1.728   1.133  0.1905  0.0059  0.6018
 3038TIP3    H230530   2.848   1.835   1.191  0.1813  0.6022 -0.4833
 3039TIP3   OH230531   1.338   0.691   1.458 -0.3390 -0.0890 -0.2660
 3039TIP3    H130532   1.367   0.740   1.381 -1.8579 -0.4782 -1.1309
 3039TIP3    H230533   1.380   0.735   1.531  0.8843  0.5018 -1.2781
 3040TIP3   OH230534   4.394   0.432  16.000  0.0424 -0.5565  0.0098
 3040TIP3    H130535   4.462   0.413  15.935  0.3003  1.2118 -0.3055
 3040TIP3    H230536   4.422   0.515  16.039 -0.4297 -1.2722  1.9673
 3041TIP3   OH230537   3.499   0.741  11.558  0.0982 -0.2654  0.5128
 3041TIP3    H130538   3.469   0.808  11.620 -0.9884  1.9607 -2.1851
 3041TIP3    H230539   3.421   0.720  11.507  1.7864  2.0721 -3.5365
 3042TIP3   OH230540   4.521   6.531   3.415 -0.2989  0.3992 -0.2314
 3042TIP3    H130541   4.577   6.568   3.347 -1.8242  0.8940 -1.2694
 3042TIP3    H230542   4.432   6.559   3.392 -0.9757 -0.1546  1.4856
 3043TIP3   OH230543   0.050   1.383   5.411  0.4640 -0.1656  0.2817
 3043TIP3    H130544  -0.019   1.398   5.475  0.7534  1.1962  0.3115
 3043TIP3    H230545   0.129   1.417   5.453  0.6739  0.6652 -0.7436
 3044TIP3   OH230546   3.413   2.250   0.782  0.2515 -0.3988  0.0360
 3044TIP3    H130547   3.440   2.165   0.746 -0.4120 -1.1592  1.2542
 3044TIP3    H230548   3.493   2.286   0.820  0.3464 -0.9319  0.3593
 3045TIP3   OH230549   5.861   0.289   6.000  0.4657 -0.5298 -0.2180
 3045TIP3    H130550   5.869   0.340   5.920  0.5685  1.0619  0.7681
 3045TIP3    H230551   5.781   0.238   5.989 -0.4012  0.8955 -0.6690
 3046TIP3   OH230552   5.169   3.775  14.271 -0.2163 -0.3528 -0.7707
 3046TIP3    H130553   5.080   3.771  14.236 -0.2062 -0.2693 -0.8042
 3046TIP3    H230554   5.161   3.829  14.350 -0.4429 -1.4155 -0.0368
 3047TIP3   OH230555   3.454   4.924   1.782  0.2477 -0.3292  0.0422
 3047TIP3    H130556   3.471   4.876   1.702  0.5430 -1.1527  0.5920
 3047TIP3    H230557   3.389   4.872   1.829  0.5356 -0.1700  0.6263
 3048TIP3   OH230558   5.577   0.060  16.896  0.2504 -0.1091 -0.3653
 3048TIP3    H130559   5.554   0.120  16.967  1.6013 -0.5240  0.4787
 3048TIP3    H230560   5.635  -0.004  16.938  0.1635 -1.0314 -1.6098
 3049TIP3   OH230561   4.724   0.114   4.380 -0.0688 -0.1458  0.2081
 3049TIP3    H130562   4.739   0.204   4.407  0.1862 -0.2326  0.3550
 3049TIP3    H230563   4.779   0.102   4.303 -0.6282  0.0337 -0.2285
 3050TIP3   OH230564   0.994   4.993   2.484 -0.4605  0.4840 -0.2364
 3050TIP3    H130565   0.954   4.954   2.561 -1.0709  0.4931 -0.5492
 3050TIP3    H230566   0.923   5.002   2.420 -0.0452  0.8279 -0.6659
 3051TIP3   OH230567   2.957   2.951   2.439  0.1382  0.7302  0.0226
 3051TIP3    H130568   2.952   2.932   2.345  0.4384  1.4317 -0.1377
 3051TIP3    H230569   3.020   2.888   2.472 -0.1193  0.3434 -0.2075
 3052TIP3   OH230570   1.824   2.660  13.592 -0.3729 -0.5142  0.5042
 3052TIP3    H130571   1.863   2.748  13.585 -1.7670  0.1115  0.3521
 3052TIP3    H230572   1.882   2.614  13.653 -0.4956  1.0185  1.8408
 3053TIP3   OH230573   0.184   2.435   5.504  0.2926 -0.4192  0.1533
 3053TIP3    H130574   0.097   2.398   5.488  0.1707  0.4544 -1.4124
 3053TIP3    H230575   0.244   2.366   5.477  0.1995 -1.8409  3.1415
 3054TIP3   OH230576   1.131   3.856   3.360 -0.1391 -0.4691  0.5926
 3054TIP3    H130577   1.148   3.942   3.397 -2.0394 -1.1972  3.4950
 3054TIP3    H230578   1.052   3.867   3.308  0.0403 -0.3045  0.3570
 3055TIP3   OH230579   2.650   4.241   2.869 -0.0702 -0.0241 -0.4008
 3055TIP3    H130580   2.640   4.146   2.883  1.9669 -0.0688  1.2940
 3055TIP3    H230581   2.570   4.278   2.906 -2.4077 -1.1295 -3.8550
 3056TIP3   OH230582   2.448   4.691   5.783 -0.3826 -0.2140 -0.1181
 3056TIP3    H130583   2.364   4.692   5.829 -1.7069 -1.0165 -2.3596
 3056TIP3    H230584   2.487   4.607   5.807  1.0151  1.1160  2.8086
 3057TIP3   OH230585   4.990   4.578   4.783 -0.0641 -0.1237  0.1425
 3057TIP3    H130586   4.905   4.543   4.810  0.7618 -0.5439  2.4821
 3057TIP3    H230587   5.016   4.524   4.709 -1.0162 -1.2284  0.5751
 3058TIP3   OH230588   3.261   6.094  16.234  0.2833 -0.4841  0.1298
 3058TIP3    H130589   3.303   6.036  16.170  1.6913  1.4791 -0.8529
 3058TIP3    H230590   3.169   6.093  16.211  0.7310  0.0386 -1.8935
 3059TIP3   OH230591   2.628   0.621  12.903 -0.5256  0.0094 -0.6530
 3059TIP3    H130592   2.625   0.548  12.841 -3.3704 -1.0918  0.5976
 3059TIP3    H230593   2.693   0.594  12.968 -0.3967 -0.6880 -1.0566
 3060TIP3   OH230594   3.575   4.941  13.586  0.4623 -0.1650  0.0312
 3060TIP3    H130595   3.589   4.892  13.505 -1.0533  1.8522 -1.5678
 3060TIP3    H230596   3.650   5.000  13.592 -0.2596  0.8842 -0.8944
 3061TIP3   OH230597   0.138   2.956   3.924  0.3908  0.2286  0.0976
 3061TIP3    H130598   0.138   2.938   4.018 -1.3616  0.7158  0.2262
 3061TIP3    H230599   0.222   3.000   3.908  1.9327 -2.2562  0.8957
 3062TIP3   OH230600   0.575   0.429  13.200  0.1341 -0.7587 -0.2512
 3062TIP3    H130601   0.585   0.428  13.295  0.3352 -0.6836 -0.2703
 3062TIP3    H230602   0.662   0.406  13.167  0.3920  0.4166 -0.4359
 3063TIP3   OH230603   4.321   6.089   1.668  0.2814 -0.4068  0.3035
 3063TIP3    H130604   4.245   6.121   1.716  0.7929  1.3345  0.0251
 3063TIP3    H230605   4.285   6.055   1.585 -0.0920  1.9817 -0.5899
 3064TIP3   OH230606   5.091   1.264  11.339 -0.0995 -0.1303  0.1354
 3064TIP3    H130607   5.170   1.309  11.368 -0.9743  1.2892  0.4350
 3064TIP3    H230608   5.051   1.231  11.420  0.5091 -1.4455 -0.0769
 3065TIP3   OH230609   5.947   0.054  14.626 -0.1301 -0.1562 -0.4151
 3065TIP3    H130610   6.004   0.091  14.558 -2.8583  0.5843 -2.4734
 3065TIP3    H230611   5.921  -0.032  14.592 -1.2954  0.0970 -0.2188
 3066TIP3   OH230612   4.806   6.191  12.504 -0.0007 -0.6214  0.2830
 3066TIP3    H130613   4.806   6.151  12.416 -0.3704 -0.8962  0.4054
 3066TIP3    H230614   4.781   6.120  12.562  1.4222 -0.7522  0.7653
 3067TIP3   OH230615   5.757   2.925  15.598 -0.0123  0.0971 -0.2100
 3067TIP3    H130616   5.717   2.860  15.539  0.3406 -0.7656  0.4758
 3067TIP3    H230617   5.836   2.953  15.552  1.2046 -1.8648  0.5444
 3068TIP3   OH230618   2.160   3.073   4.413  0.1851 -0.4591  0.3413
 3068TIP3    H130619   2.252   3.068   4.440  0.2135 -2.0255  0.0543
 3068TIP3    H230620   2.135   3.164   4.430  1.5529 -0.2069  1.1700
 3069TIP3   OH230621   6.131   3.021  17.142 -0.1994  0.4056 -0.0070
 3069TIP3    H130622   6.217   3.011  17.183 -0.0942 -0.4512 -0.4245
 3069TIP3    H230623   6.131   3.111  17.108  0.9780  0.0374 -1.0258
 3070TIP3   OH230624   3.139   6.687   3.834  0.2301  0.2184  0.4078
 3070TIP3    H130625   3.108   6.603   3.799 -0.8557  0.3994  0.8972
 3070TIP3    H230626   3.222   6.666   3.877  1.3118 -0.1152 -1.7131
 3071TIP3   OH230627   2.490   4.408   4.611  0.0206  0.2117 -0.5117
 3071TIP3    H130628   2.520   4.458   4.686  0.1242 -1.0112  0.2927
 3071TIP3    H230629   2.472   4.321   4.646 -0.3192 -0.2715 -1.8273
 3072TIP3   OH230630   4.524   1.254   3.372 -0.3053  0.3571  0.4360
 3072TIP3    H130631   4.449   1.248   3.312 -2.5896  2.0736  2.8870
 3072TIP3    H230632   4.577   1.326   3.338 -0.5774  0.1170 -0.5096
 3073TIP3   OH230633   2.420   6.670  11.456 -0.2425 -0.6518 -0.4298
 3073TIP3    H130634   2.505   6.626  11.457 -0.7246 -1.6104  0.1461
 3073TIP3    H230635   2.390   6.661  11.365  0.7005  0.6041 -0.8968
 3074TIP3   OH230636   3.644   4.765   5.896 -0.4329  0.0497  0.1099
 3074TIP3    H130637   3.707   4.766   5.824  2.1118 -0.8316  2.1479
 3074TIP3    H230638   3.598   4.681   5.886  0.0921 -0.1900 -0.3402
 3075TIP3   OH230639   5.517   0.272   0.648 -0.1927  0.0143 -0.4754
 3075TIP3    H130640   5.558   0.278   0.733  0.2492  0.1862 -0.6984
 3075TIP3    H230641   5.448   0.206   0.658  0.6480 -0.8537 -0.3152
 3076TIP3   OH230642   2.186   0.104   5.792  0.0413 -0.4942 -0.4604
 3076TIP3    H130643   2.226   0.029   5.749 -0.8654 -1.6147  0.5846
 3076TIP3    H230644   2.246   0.177   5.775  0.5184 -1.2487 -2.1974
 3077TIP3   OH230645   2.746   5.250  13.337 -0.9383  0.2430  0.0109
 3077TIP3    H130646   2.666   5.206  13.367 -0.4817  0.3902  1.5206
 3077TIP3    H230647   2.763   5.212  13.251  0.1668 -3.6172  1.7308
 3078TIP3   OH230648   6.710   0.334  12.285 -0.2950  0.3355 -0.1010
 3078TIP3    H130649   6.782   0.352  12.345  0.2947  0.8246 -0.9213
 3078TIP3    H230650   6.717   0.240  12.266 -0.5616  0.1570  0.6801
 3079TIP3   OH230651   5.078   0.945  14.652 -0.3803 -0.6108  0.6562
 3079TIP3    H130652   5.144   0.883  14.682 -0.5240 -1.2814 -0.3757
 3079TIP3    H230653   5.014   0.892  14.605 -1.0662  0.1839  0.6600
 3080TIP3   OH230654   6.390   5.221  15.080  0.3827  0.3562 -0.3649
 3080TIP3    H130655   6.331   5.277  15.130  2.4897  0.7570  1.8658
 3080TIP3    H230656   6.457   5.281  15.046  1.1849 -0.4498 -0.2499
 3081TIP3   OH230657   0.196   3.811  13.906 -0.3163 -0.0291  0.4715
 3081TIP3    H130658   0.165   3.772  13.988 -0.2885 -0.9771  0.0501
 3081TIP3    H230659   0.201   3.905  13.924 -1.2239 -0.1157  1.2600
 3082TIP3   OH230660   6.144   0.586   5.035 -0.1820 -0.1111  0.1937
 3082TIP3    H130661   6.088   0.567   4.960  0.0690 -0.7001  0.1499
 3082TIP3    H230662   6.231   0.553   5.010 -0.0376 -0.0840  0.6361
 3083TIP3   OH230663   4.653   0.195   0.801  0.0898 -0.2220  0.0744
 3083TIP3    H130664   4.559   0.204   0.781 -0.5742 -0.0448  2.8345
 3083TIP3    H230665   4.660   0.109   0.843  0.9174  0.2514  0.9452
 3084TIP3   OH230666   3.474   2.356   5.636  0.3523  0.2570  0.5697
 3084TIP3    H130667   3.392   2.323   5.600  0.3966  0.6417  0.1031
 3084TIP3    H230668   3.528   2.278   5.650 -0.9340 -0.2782  3.1284
 3085TIP3   OH230669   3.466   5.285   2.463  0.4218 -0.3946  0.3943
 3085TIP3    H130670   3.486   5.283   2.556  1.0707  1.0723  0.3079
 3085TIP3    H230671   3.467   5.193   2.436 -1.2999 -0.9707  2.1198
 3086TIP3   OH230672   1.102   1.955  15.289  0.4936  0.0894 -0.3421
 3086TIP3    H130673   1.110   1.993  15.376  0.9285 -0.2068 -0.2484
 3086TIP3    H230674   1.030   1.892  15.296  0.0555  0.5801 -0.3872
 3087TIP3   OH230675   1.987   2.160   6.537 -0.3905 -0.6312  0.3030
 3087TIP3    H130676   1.955   2.097   6.601 -2.9054 -0.6737 -0.8861
 3087TIP3    H230677   2.006   2.239   6.588  0.5783 -1.5780  1.4700
 3088TIP3   OH230678   1.843   0.386  15.921  0.1501  0.2931 -0.1471
 3088TIP3    H130679   1.906   0.323  15.957  0.3113  0.9981  0.8363
 3088TIP3    H230680   1.770   0.385  15.983 -0.4639  0.0597 -0.8674
 3089TIP3   OH230681   2.134   2.038  12.352  0.8605  0.2976 -0.4312
 3089TIP3    H130682   2.219   2.078  12.372  0.2599  0.8209  1.2497
 3089TIP3    H230683   2.073   2.111  12.353  0.2411 -0.2145 -0.6288
 3090TIP3   OH230684   1.122   4.343  17.238 -0.0369  0.3074 -0.0947
 3090TIP3    H130685   1.129   4.292  17.157 -0.0536  1.0315 -0.5621
 3090TIP3    H230686   1.121   4.277  17.307  0.3603 -0.3066 -0.6571
 3091TIP3   OH230687   2.975   6.714  11.308 -0.0640 -0.3521 -0.4828
 3091TIP3    H130688   2.990   6.665  11.227  0.6754  0.3439 -0.7877
 3091TIP3    H230689   2.895   6.763  11.292 -0.6316 -1.2027 -0.2961
 3092TIP3   OH230690   4.509   6.757   4.491 -0.1517  0.2459  0.2425
 3092TIP3    H130691   4.571   6.810   4.441  1.0481 -1.9290 -0.7576
 3092TIP3    H230692   4.563   6.691   4.533 -1.5367 -0.0112  1.6955
 3093TIP3   OH230693   3.987   1.032  12.093 -0.6549  0.1181 -0.4607
 3093TIP3    H130694   3.918   1.079  12.045  0.3888  2.0340 -0.1930
 3093TIP3    H230695   3.970   1.053  12.185 -0.8132 -0.9847 -0.2238
 3094TIP3   OH230696   4.378   2.377  11.535 -0.0253  0.3167 -0.3576
 3094TIP3    H130697   4.453   2.341  11.582 -1.1365 -0.6501  0.7622
 3094TIP3    H230698   4.390   2.349  11.445 -0.0327 -1.5679  0.1803
 3095TIP3   OH230699   0.256   0.892  12.624  0.0602  0.1204 -0.0825
 3095TIP3    H130700   0.161   0.902  12.617  0.1765  0.3754 -1.7150
 3095TIP3    H230701   0.290   0.981  12.616  0.4917 -0.1264 -1.2033
 3096TIP3   OH230702   4.740   2.358  12.148 -0.2178  0.3882 -0.4110
 3096TIP3    H130703   4.679   2.352  12.074  0.3407 -0.1952 -0.8240
 3096TIP3    H230704   4.822   2.386  12.109 -0.4351  2.0843  0.2719
 3097TIP3   OH230705   5.046   4.431  13.334  0.4775  0.0106 -0.0925
 3097TIP3    H130706   4.968   4.400  13.287 -0.4636 -1.4605  2.2092
 3097TIP3    H230707   5.094   4.483  13.270 -1.6518 -0.2471 -2.0467
 3098TIP3   OH230708   5.702   0.720   4.495 -0.0286  0.4109 -0.1348
 3098TIP3    H130709   5.648   0.765   4.429 -0.6588  1.5187  1.0937
 3098TIP3    H230710   5.766   0.786   4.523 -0.4816  0.3249  1.1507
 3099TIP3   OH230711   3.195   3.163  12.666 -0.1166 -0.2354 -0.1128
 3099TIP3    H130712   3.236   3.112  12.597  1.1191  0.1644  0.2985
 3099TIP3    H230713   3.183   3.100  12.738  1.6066  0.0546  0.4751
 3100TIP3   OH230714   2.081   2.456  14.647 -0.4167  0.3558 -0.5209
 3100TIP3    H130715   2.101   2.376  14.599 -2.9130 -0.2502 -0.6804
 3100TIP3    H230716   2.079   2.525  14.581 -0.7695  0.0860 -0.7911
 3101TIP3   OH230717   2.361   5.241   6.200  0.3420  0.5844  0.6790
 3101TIP3    H130718   2.453   5.266   6.208  0.1048  2.3819 -1.2823
 3101TIP3    H230719   2.324   5.306   6.139 -2.5233  0.6892  2.3674
 3102TIP3   OH230720   6.242   6.253   1.315 -0.0756  0.2237  0.3687
 3102TIP3    H130721   6.255   6.257   1.410 -0.9339  1.1823  0.4659
 3102TIP3    H230722   6.187   6.175   1.303  1.4407 -0.8913  0.4622
 3103TIP3   OH230723   0.568   6.008   0.239  0.3272  0.2245 -0.1744
 3103TIP3    H130724   0.575   6.026   0.145  0.4293 -0.7130 -0.3549
 3103TIP3    H230725   0.476   5.983   0.252  0.1532  0.9761  0.0973
 3104TIP3   OH230726   2.040   4.280  13.217 -0.2127 -0.3915 -0.3146
 3104TIP3    H130727   2.102   4.218  13.255 -0.2599  0.3207  0.9678
 3104TIP3    H230728   2.011   4.334  13.291 -1.3898  0.1178 -1.1131
 3105TIP3   OH230729   6.033   2.520  14.668 -0.7210  0.7693  0.3906
 3105TIP3    H130730   6.101   2.560  14.614  0.1528 -0.5157  0.4928
 3105TIP3    H230731   5.993   2.594  14.714 -0.3288  1.7002 -0.6972
 3106TIP3   OH230732   5.671   6.391   0.377 -0.5881  0.1059  0.3217
 3106TIP3    H130733   5.632   6.477   0.360 -0.2189  0.1651 -0.2522
 3106TIP3    H230734   5.760   6.410   0.405 -0.7208 -0.0659  0.8754
 3107TIP3   OH230735   1.778   3.962   4.507  0.2654 -0.0049 -0.2875
 3107TIP3    H130736   1.686   3.975   4.528  0.3669 -0.4749  0.5113
 3107TIP3    H230737   1.779   3.893   4.441 -0.0738  1.5785 -2.0138
 3108TIP3   OH230738   4.543   0.298   5.091 -0.5425 -0.8549  0.8421
 3108TIP3    H130739   4.632   0.335   5.085 -1.5215  1.5855  0.0465
 3108TIP3    H230740   4.535   0.241   5.015 -0.2063  0.3420 -0.1357
 3109TIP3   OH230741   0.519   0.539  12.640  0.0699  0.0341  0.4778
 3109TIP3    H130742   0.606   0.568  12.612 -0.1164  1.1953  1.0361
 3109TIP3    H230743   0.493   0.602  12.707 -0.3323 -1.5125  1.8484
 3110TIP3   OH230744   1.529   3.865  14.921 -0.2974  0.4206 -0.5338
 3110TIP3    H130745   1.534   3.877  15.015 -0.4253  1.1838 -0.6226
 3110TIP3    H230746   1.573   3.941  14.884 -0.8378  0.4697 -1.1001
 3111TIP3   OH230747   0.078   0.343   5.113  0.0928 -0.1732 -0.4926
 3111TIP3    H130748   0.080   0.298   5.198  1.3065 -1.4608 -1.1718
 3111TIP3    H230749   0.074   0.273   5.048 -0.1566  0.7779 -1.5388
 3112TIP3   OH230750   1.511   1.077  14.949  0.6275  0.1604 -0.0673
 3112TIP3    H130751   1.524   1.071  15.044 -0.4350  2.4365  0.2806
 3112TIP3    H230752   1.545   0.994  14.915  0.4983 -0.9659  2.3460
 3113TIP3   OH230753   5.851   0.212  17.079 -0.2374 -0.6441  0.5890
 3113TIP3    H130754   5.915   0.142  17.065  0.2211  0.2217 -2.1203
 3113TIP3    H230755   5.781   0.170  17.130  0.2789 -2.9488 -0.4538
 3114TIP3   OH230756   4.950   0.629  14.957  0.0703 -0.4725  0.1137
 3114TIP3    H130757   4.963   0.648  15.049  0.0528 -0.6713  0.1580
 3114TIP3    H230758   4.885   0.694  14.928  2.0186  1.3491 -0.4262
 3115TIP3   OH230759   2.746   5.016   1.921 -0.2047 -0.2879  0.1185
 3115TIP3    H130760   2.726   5.109   1.925 -0.7611 -0.4308  0.8116
 3115TIP3    H230761   2.685   4.980   1.856 -0.8730 -0.3862  0.7942
 3116TIP3   OH230762   2.163   6.043   0.932  0.0331  1.1325 -0.2899
 3116TIP3    H130763   2.141   5.969   0.989  0.9365  0.3847 -0.8741
 3116TIP3    H230764   2.103   6.113   0.959 -0.3617  0.4205  0.7578
 3117TIP3   OH230765   6.495   5.090   1.920 -0.1659 -0.1494 -0.4855
 3117TIP3    H130766   6.421   5.049   1.965 -0.3989 -0.3292 -1.0265
 3117TIP3    H230767   6.481   5.071   1.828 -0.0316  0.7610 -0.7037
 3118TIP3   OH230768   5.578   2.508   2.362 -0.3880  0.3572 -0.3849
 3118TIP3    H130769   5.667   2.484   2.389  0.4954  1.6046 -2.0055
 3118TIP3    H230770   5.590   2.553   2.278 -2.4855  1.2148 -0.2765
 3119TIP3   OH230771   0.935   2.784   1.581 -0.5534 -0.1641 -0.0470
 3119TIP3    H130772   0.955   2.795   1.488 -1.0249 -0.3490 -0.1772
 3119TIP3    H230773   0.990   2.848   1.626 -0.4308  0.0280 -0.4660
 3120TIP3   OH230774   5.726   4.161   0.291 -0.5001 -0.1534 -0.7130
 3120TIP3    H130775   5.694   4.083   0.336  1.1342 -0.0902  0.6341
 3120TIP3    H230776   5.714   4.142   0.198 -2.5049 -0.9323 -0.3372
 3121TIP3   OH230777   0.273   4.293  15.839 -0.2399 -0.5442 -0.3857
 3121TIP3    H130778   0.252   4.204  15.810  1.2054  0.0208 -3.5663
 3121TIP3    H230779   0.208   4.312  15.907 -2.3142 -3.0341 -1.5063
 3122TIP3   OH230780   1.040   5.868   4.746 -0.4853  0.0769  0.0366
 3122TIP3    H130781   1.048   5.861   4.651  0.0370  0.7898  0.0178
 3122TIP3    H230782   0.988   5.947   4.760 -0.4689  0.0330  0.3458
 3123TIP3   OH230783   1.258   5.341  14.931 -0.0303 -0.1913  0.9498
 3123TIP3    H130784   1.345   5.376  14.950  1.1666 -2.4709  0.0308
 3123TIP3    H230785   1.208   5.417  14.899  0.9710  1.5637  3.2778
 3124TIP3   OH230786   5.539   0.059  14.075  0.4384 -0.2659 -0.2149
 3124TIP3    H130787   5.626   0.021  14.089  0.1459 -1.4540 -1.4627
 3124TIP3    H230788   5.548   0.150  14.105  1.4573 -0.9690  1.8553
 3125TIP3   OH230789   0.467   3.254   3.045 -0.8368 -0.1844 -0.3547
 3125TIP3    H130790   0.438   3.163   3.058  2.5325 -1.3179  0.3994
 3125TIP3    H230791   0.424   3.282   2.965 -2.4069 -2.2365 -0.3161
 3126TIP3   OH230792   5.770   5.685  16.721 -0.2680  0.5900  0.0213
 3126TIP3    H130793   5.692   5.633  16.741  0.7417  0.0002  3.0040
 3126TIP3    H230794   5.769   5.755  16.786 -0.6687  3.4185 -2.8147
 3127TIP3   OH230795   2.832   1.627  15.758 -0.2109  0.0820  0.4202
 3127TIP3    H130796   2.769   1.597  15.823 -1.4150  1.2637 -0.1425
 3127TIP3    H230797   2.778   1.663  15.687  1.0803  1.6288  0.1489
 3128TIP3   OH230798   0.968   2.793  11.783 -0.1680 -0.1414 -0.5127
 3128TIP3    H130799   1.052   2.768  11.819 -0.1106 -1.0686 -1.2550
 3128TIP3    H230800   0.906   2.782  11.855 -0.0936 -2.1726 -0.7147
 3129TIP3   OH230801   1.645   4.572  12.345  0.3988  0.1988 -0.7700
 3129TIP3    H130802   1.564   4.601  12.303  0.8303  1.2315 -0.9443
 3129TIP3    H230803   1.709   4.639  12.319  0.7823  0.6362  1.1723
 3130TIP3   OH230804   4.364   0.355   2.964  0.0122  0.0070 -0.3700
 3130TIP3    H130805   4.334   0.325   2.879 -1.9333 -1.1815  0.6436
 3130TIP3    H230806   4.307   0.429   2.985 -0.9619 -0.9861  0.7045
 3131TIP3   OH230807   0.039   2.363   0.552 -0.1470  0.3549 -0.2262
 3131TIP3    H130808   0.096   2.439   0.540 -0.9693  1.3304  1.6584
 3131TIP3    H230809   0.083   2.312   0.621  0.7765 -1.3285 -1.9589
 3132TIP3   OH230810   4.089   4.872  17.345  0.0996 -0.6686  0.1401
 3132TIP3    H130811   4.145   4.795  17.358  1.7680  0.5811  0.7843
 3132TIP3    H230812   4.136   4.925  17.280 -2.1608 -1.1793 -2.0673
 3133TIP3   OH230813   6.266   3.436   3.913  0.7272 -0.0074  0.3924
 3133TIP3    H130814   6.281   3.368   3.978  3.3819 -0.0035 -0.0988
 3133TIP3    H230815   6.187   3.407   3.867  1.8590 -2.9473  0.0313
 3134TIP3   OH230816   2.251   5.370   3.404  0.1019  0.1251  0.3401
 3134TIP3    H130817   2.258   5.321   3.486 -0.2564  0.1096  0.3613
 3134TIP3    H230818   2.208   5.309   3.343  0.9801 -0.1091 -0.0583
 3135TIP3   OH230819   5.613   0.588  16.618  0.2564 -0.4985  0.1704
 3135TIP3    H130820   5.566   0.576  16.535 -1.7942  0.5381  1.1020
 3135TIP3    H230821   5.593   0.510  16.669  2.1026 -1.4723 -0.5131
 3136TIP3   OH230822   5.594   5.802  15.115 -0.0001 -0.6164  0.6798
 3136TIP3    H130823   5.621   5.885  15.076 -0.8228 -0.4949  0.3617
 3136TIP3    H230824   5.675   5.766  15.153  1.3174 -1.5749 -2.6066
 3137TIP3   OH230825   1.825   6.176  14.041 -0.1873  0.4711  0.4128
 3137TIP3    H130826   1.882   6.218  13.976  1.1447 -1.4965  0.2274
 3137TIP3    H230827   1.878   6.173  14.121 -0.5807 -0.0308  0.6615
 3138TIP3   OH230828   1.992   3.453   3.350 -0.0167 -1.0559 -0.4187
 3138TIP3    H130829   1.922   3.414   3.298 -0.6279 -1.9852  1.0418
 3138TIP3    H230830   2.002   3.394   3.426 -0.4625  1.1911  1.4991
 3139TIP3   OH230831   0.590   3.892  15.849 -0.3049  0.2290  0.2252
 3139TIP3    H130832   0.556   3.920  15.934  1.6158 -1.0922  1.5120
 3139TIP3    H230833   0.670   3.845  15.870  1.4417  1.7258 -2.4834
 3140TIP3   OH230834   5.466   3.200  15.740  0.0570  0.0509  0.0921
 3140TIP3    H130835   5.467   3.275  15.800 -1.7849  0.2003 -0.0029
 3140TIP3    H230836   5.522   3.135  15.782  1.7467  1.4532  0.1639
 3141TIP3   OH230837   2.603   3.302  15.205 -0.2413  0.0967 -0.0245
 3141TIP3    H130838   2.682   3.319  15.256 -1.3719 -1.2266  2.3406
 3141TIP3    H230839   2.597   3.207  15.200 -0.6123  0.1798 -2.0311
 3142TIP3   OH230840   2.262   0.168   3.249  0.0342 -0.2094  0.8027
 3142TIP3    H130841   2.194   0.118   3.204 -0.0420  1.5171 -1.1287
 3142TIP3    H230842   2.343   0.124   3.226  0.0902  1.0732 -1.8644
 3143TIP3   OH230843   6.655   2.360  12.561  0.0567  0.0176  0.1361
 3143TIP3    H130844   6.648   2.267  12.579 -0.1995 -0.0567 -0.3392
 3143TIP3    H230845   6.569   2.396  12.581  1.0290  0.7649  3.6534
 3144TIP3   OH230846   3.915   1.664   2.246 -0.3500 -0.7113  0.1136
 3144TIP3    H130847   3.828   1.677   2.282 -0.2122 -2.5983  1.2403
 3144TIP3    H230848   3.934   1.571   2.259  2.6327 -0.0142  1.7664
 3145TIP3   OH230849   3.781   2.809   2.630 -0.6844 -0.3180 -0.3118
 3145TIP3    H130850   3.724   2.741   2.666 -0.8319 -0.8698 -1.5224
 3145TIP3    H230851   3.778   2.794   2.535  2.0126 -0.7714 -0.3833
 3146TIP3   OH230852   3.961   6.658  16.818  0.9956  0.0314  0.0632
 3146TIP3    H130853   3.993   6.704  16.895 -0.0050 -1.2047  1.2771
 3146TIP3    H230854   4.030   6.594  16.798  1.0876  0.0948  0.1781
 3147TIP3   OH230855   2.770   4.183   4.469 -0.3530  0.1410 -0.4871
 3147TIP3    H130856   2.706   4.221   4.409  0.0479 -0.2896 -1.2035
 3147TIP3    H230857   2.754   4.089   4.464 -0.0795  0.0781 -0.1982
 3148TIP3   OH230858   0.686   3.794  11.941  0.3741 -0.2412 -0.0769
 3148TIP3    H130859   0.693   3.701  11.961 -1.6311 -0.7476 -1.4843
 3148TIP3    H230860   0.594   3.808  11.919  0.6370  2.0668  0.0143
 3149TIP3   OH230861   3.433   0.561  12.432 -0.1261  0.4679 -0.3032
 3149TIP3    H130862   3.511   0.616  12.438 -0.3344  0.6324  4.1570
 3149TIP3    H230863   3.360   0.623  12.431 -0.2818  0.2884  0.0048
 3150TIP3   OH230864   4.708   2.464   5.312  0.0113 -0.1066 -0.0058
 3150TIP3    H130865   4.655   2.420   5.378 -2.1179 -1.9626 -2.7129
 3150TIP3    H230866   4.686   2.556   5.321  0.7219 -0.1000  2.5405
 3151TIP3   OH230867   6.751   1.380  11.092 -0.0274  0.1700 -0.4778
 3151TIP3    H130868   6.661   1.378  11.123  0.6331 -1.1442  1.4834
 3151TIP3    H230869   6.762   1.469  11.059 -1.6652  0.7597  0.4432
 3152TIP3   OH230870   4.255   0.152   1.291 -0.4559 -0.8415  0.2227
 3152TIP3    H130871   4.296   0.220   1.238  1.1855 -1.5880  0.4579
 3152TIP3    H230872   4.203   0.199   1.356 -2.3195  0.0979 -1.8081
 3153TIP3   OH230873   0.457   5.162   1.948 -0.1788  0.1877  0.1436
 3153TIP3    H130874   0.448   5.072   1.979  0.0173 -0.3867 -1.4096
 3153TIP3    H230875   0.465   5.155   1.853 -1.4522  1.9254 -0.1618
 3154TIP3   OH230876   0.761   1.922   6.009  0.1384  0.0774  0.0351
 3154TIP3    H130877   0.685   1.968   6.045  0.5708  1.6715 -1.0133
 3154TIP3    H230878   0.786   1.861   6.078  0.0819  2.0368  1.8895
 3155TIP3   OH230879   5.680   2.466   5.752  0.2968 -0.1402 -0.0916
 3155TIP3    H130880   5.590   2.488   5.775  0.6033  0.6576  0.3812
 3155TIP3    H230881   5.673   2.418   5.669 -1.0029 -4.4411  2.1574
 3156TIP3   OH230882   2.610   2.984  14.114  0.2877 -0.1858 -0.4492
 3156TIP3    H130883   2.690   3.004  14.066 -0.7103  1.3270 -1.5667
 3156TIP3    H230884   2.580   3.068  14.147 -0.6832 -0.7811  0.2462
 3157TIP3   OH230885   2.527   4.272  14.105  0.6521  0.4558  0.3100
 3157TIP3    H130886   2.457   4.257  14.042 -0.0557 -0.6014  1.3191
 3157TIP3    H230887   2.496   4.344  14.160  0.3831  0.0397  0.7077
 3158TIP3   OH230888   5.992   0.076   3.600 -0.0356  0.0909 -0.0668
 3158TIP3    H130889   6.072   0.104   3.557  0.7019  1.1499  1.8551
 3158TIP3    H230890   5.924   0.135   3.567  0.3498  0.3723 -0.3606
 3159TIP3   OH230891   2.379   5.157   3.023 -0.2028  0.0180 -0.2765
 3159TIP3    H130892   2.403   5.134   3.112 -1.1609 -0.1255 -0.0427
 3159TIP3    H230893   2.284   5.141   3.019 -0.4022  1.2824 -0.9244
 3160TIP3   OH230894   5.692   3.909   3.472 -0.3752 -0.0824 -0.1333
 3160TIP3    H130895   5.719   3.999   3.451  0.0789 -0.2906 -0.4618
 3160TIP3    H230896   5.677   3.868   3.386  1.2179 -0.8612 -0.0734
 3161TIP3   OH230897   5.540   2.901  16.842 -0.9288 -0.3308  0.5936
 3161TIP3    H130898   5.585   2.953  16.775 -0.8007 -1.5276 -0.2897
 3161TIP3    H230899   5.473   2.960  16.877 -2.4798 -0.2696 -2.1556
 3162TIP3   OH230900   3.275   4.712  13.462  0.2217 -0.2150 -0.3572
 3162TIP3    H130901   3.294   4.679  13.374 -1.5691 -2.5671  0.0329
 3162TIP3    H230902   3.204   4.774  13.449  0.2601 -0.2203 -0.6019
 3163TIP3   OH230903   0.573   6.056  15.012 -0.0643  0.2999 -0.0006
 3163TIP3    H130904   0.654   6.082  15.055 -0.6402  1.6774  0.3069
 3163TIP3    H230905   0.504   6.079  15.074 -1.0593  3.8530 -2.1397
 3164TIP3   OH230906   3.565   4.196   6.678  0.1336  0.2995  0.1440
 3164TIP3    H130907   3.639   4.188   6.739  2.1549  0.7916 -2.0754
 3164TIP3    H230908   3.555   4.290   6.665 -0.5303  0.2112  0.0014
 3165TIP3   OH230909   0.921   5.267  14.860 -0.1558  0.0523 -0.5094
 3165TIP3    H130910   0.923   5.332  14.790  0.1644 -0.8834 -1.3958
 3165TIP3    H230911   0.857   5.301  14.923  0.0483  1.2397 -0.9196
 3166TIP3   OH230912   3.815   0.622   2.893 -0.2969  0.5955  0.1415
 3166TIP3    H130913   3.890   0.677   2.915 -0.9021  1.9612 -1.0219
 3166TIP3    H230914   3.739   0.679   2.906 -1.0513 -0.4054  0.2199
 3167TIP3   OH230915   1.806   0.363   6.475  0.0932  0.4923  0.2315
 3167TIP3    H130916   1.847   0.309   6.407  0.1897 -0.3917  0.9765
 3167TIP3    H230917   1.717   0.329   6.482 -0.3350  1.4574 -0.3666
 3168TIP3   OH230918   5.567   2.774  12.566 -0.1775  0.2619  0.4022
 3168TIP3    H130919   5.531   2.685  12.562  3.5864 -1.4632 -0.1285
 3168TIP3    H230920   5.557   2.800  12.657 -0.7552 -1.0164  0.7335
 3169TIP3   OH230921   4.491   5.620   3.114  0.0768  0.2127  1.2082
 3169TIP3    H130922   4.567   5.662   3.073  0.2139 -0.9807  0.1881
 3169TIP3    H230923   4.450   5.690   3.165  1.1632  1.1852  0.7950
 3170TIP3   OH230924   1.492   4.037   5.810 -0.1459 -0.1444  0.6216
 3170TIP3    H130925   1.412   4.014   5.764  0.3880 -1.5860  0.3849
 3170TIP3    H230926   1.462   4.061   5.898 -0.9038  0.2010  0.2867
 3171TIP3   OH230927   1.674   1.821  15.689  0.1407 -0.1488  0.1773
 3171TIP3    H130928   1.761   1.833  15.725  0.1547 -1.4710  0.6105
 3171TIP3    H230929   1.679   1.857  15.600  1.1223 -0.2541  0.1885
 3172TIP3   OH230930   4.385   2.095  15.225  0.2457 -0.0513  0.4083
 3172TIP3    H130931   4.321   2.157  15.260 -1.4722 -1.1903 -0.5300
 3172TIP3    H230932   4.404   2.036  15.298 -0.5877 -0.3070  0.4296
 3173TIP3   OH230933   4.184   0.993   5.834  0.1835 -0.3381 -0.3582
 3173TIP3    H130934   4.173   1.056   5.762 -0.1323 -0.7071 -0.6384
 3173TIP3    H230935   4.278   0.973   5.833  0.4139  0.6746  0.2060
 3174TIP3   OH230936   3.901   1.827   5.577  0.4218  0.5798  0.1813
 3174TIP3    H130937   3.851   1.894   5.624 -0.0020  0.4619 -0.1041
 3174TIP3    H230938   3.939   1.773   5.647 -0.4001  0.2605  0.3948
 3175TIP3   OH230939   2.784   6.578   3.397  0.6407  0.0219 -0.8820
 3175TIP3    H130940   2.703   6.534   3.372  0.6132  0.7959 -2.2924
 3175TIP3    H230941   2.849   6.547   3.333  0.6955  1.7222 -1.7084
 3176TIP3   OH230942   3.521   2.565  15.528 -0.0224  0.2286 -0.6420
 3176TIP3    H130943   3.524   2.480  15.571 -1.6010  0.8415  0.8056
 3176TIP3    H230944   3.528   2.545  15.434  0.6500 -1.3840 -0.2798
 3177TIP3   OH230945   5.979   3.333  11.538 -0.1280 -0.0880 -0.5325
 3177TIP3    H130946   6.012   3.311  11.451  1.1389 -1.3836  0.2428
 3177TIP3    H230947   5.964   3.428  11.534  2.0511  0.2719 -1.4887
 3178TIP3   OH230948   2.771   1.782  13.562 -0.4538  0.6244  0.3286
 3178TIP3    H130949   2.861   1.795  13.591 -0.4063  0.7178  0.1379
 3178TIP3    H230950   2.718   1.825  13.629 -0.2734  2.9173 -0.8944
 3179TIP3   OH230951   6.706   6.431  17.085 -0.0084  0.1454 -0.1662
 3179TIP3    H130952   6.773   6.372  17.120 -1.2384 -1.8482 -1.0555
 3179TIP3    H230953   6.737   6.452  16.996 -0.8801 -1.3990 -0.8704
 3180TIP3   OH230954   5.607   2.565   5.376  0.0757  0.1075  0.3098
 3180TIP3    H130955   5.535   2.541   5.318  0.6520  0.6882 -0.6684
 3180TIP3    H230956   5.565   2.607   5.451 -0.5850  1.1287 -0.6004
 3181TIP3   OH230957   4.276   2.715   2.580 -0.2250  0.1415 -0.2729
 3181TIP3    H130958   4.258   2.730   2.488  1.6288 -0.0283 -0.6919
 3181TIP3    H230959   4.256   2.798   2.623 -0.7955  0.3084 -0.8511
 3182TIP3   OH230960   0.934   0.346   5.365  0.2693 -0.2644 -0.8849
 3182TIP3    H130961   0.955   0.440   5.358 -0.1102  0.0116  1.0085
 3182TIP3    H230962   0.839   0.342   5.354  0.0121 -0.1340  0.9985
 3183TIP3   OH230963   2.312   0.076   0.706 -0.1522 -0.2242  0.3367
 3183TIP3    H130964   2.398   0.094   0.744 -0.0572  0.1786 -0.0576
 3183TIP3    H230965   2.327   0.004   0.645 -0.1991 -0.4977  0.6409
 3184TIP3   OH230966   6.592   1.621   3.004 -0.5029 -0.0186  0.0830
 3184TIP3    H130967   6.580   1.574   2.921 -1.6010 -2.0892  1.3542
 3184TIP3    H230968   6.652   1.692   2.981  0.2024 -1.2321 -2.2355
 3185TIP3   OH230969   6.386   0.735   0.757 -0.5098 -0.5637  0.6133
 3185TIP3    H130970   6.339   0.805   0.712 -0.4211 -0.2481  1.0100
 3185TIP3    H230971   6.344   0.655   0.726  0.0798 -0.4086 -0.6604
 3186TIP3   OH230972   0.427   4.528   5.645 -0.2026 -0.4556 -0.9953
 3186TIP3    H130973   0.512   4.518   5.689 -0.6166  1.0955  0.2236
 3186TIP3    H230974   0.437   4.605   5.590 -0.6102 -0.7106 -1.4399
 3187TIP3   OH230975   2.481   3.845   5.039 -0.0472 -0.1330  0.0394
 3187TIP3    H130976   2.414   3.810   4.980  0.2468  0.4003 -0.6381
 3187TIP3    H230977   2.544   3.888   4.980  1.4948 -1.5806  0.5425
 3188TIP3   OH230978   1.656   1.451  12.950 -0.4705 -0.1763 -0.0508
 3188TIP3    H130979   1.601   1.510  13.001 -0.6817 -0.8653  0.5302
 3188TIP3    H230980   1.609   1.440  12.867 -0.5444  0.2711 -0.0749
 3189TIP3   OH230981   5.289   6.029   4.077  0.1565  0.4422 -0.1112
 3189TIP3    H130982   5.293   5.984   3.993  0.4076  0.3233 -0.0371
 3189TIP3    H230983   5.351   6.102   4.069  0.3157  0.3237  0.0337
 3190TIP3   OH230984   2.509   1.620   3.436 -0.2896  0.2203  0.5683
 3190TIP3    H130985   2.539   1.559   3.503 -0.5089  1.1676  1.5625
 3190TIP3    H230986   2.570   1.693   3.441 -0.2346  0.2546 -0.3736
 3191TIP3   OH230987   3.790   3.409   6.046  0.5042 -0.1606  0.1321
 3191TIP3    H130988   3.759   3.324   6.014 -1.2711  1.5629 -3.1595
 3191TIP3    H230989   3.731   3.429   6.119  0.8336 -1.6030  0.8398
 3192TIP3   OH230990   2.006   4.215  16.281 -0.5217  0.0426 -0.0840
 3192TIP3    H130991   1.978   4.181  16.366  0.8705  2.1436  1.3275
 3192TIP3    H230992   1.925   4.226  16.232 -1.3464 -1.4242  0.8674
 3193TIP3   OH230993   2.994   3.224  15.551 -0.2224 -0.1660  0.3297
 3193TIP3    H130994   3.000   3.245  15.458 -1.1347 -0.8293  0.1062
 3193TIP3    H230995   3.004   3.129  15.555 -1.6400 -0.3203  0.7423
 3194TIP3   OH230996   0.385   1.537  16.114  0.1253  0.0228 -0.1098
 3194TIP3    H130997   0.320   1.553  16.045  0.0047 -1.9214 -0.4898
 3194TIP3    H230998   0.365   1.602  16.182 -1.8214 -0.1504 -0.4855
 3195TIP3   OH230999   5.325   3.086  14.249 -0.2591 -0.0438 -0.1756
 3195TIP3    H131000   5.271   3.007  14.242 -0.0102 -0.3969  1.4416
 3195TIP3    H231001   5.415   3.054  14.245 -0.1564  0.1425  0.4346
 3196TIP3   OH231002   2.800   2.063   6.223  0.8041  0.8970  0.0544
 3196TIP3    H131003   2.778   2.018   6.305  1.0003 -0.3886 -0.5637
 3196TIP3    H231004   2.743   2.139   6.221 -3.8154 -2.1857 -1.4136
 3197TIP3   OH231005   5.494   1.125   1.383 -0.3817 -0.1373 -0.5693
 3197TIP3    H131006   5.465   1.036   1.404 -1.5093  0.3049 -0.1637
 3197TIP3    H231007   5.587   1.116   1.361 -0.3344 -1.3200  0.0577
 3198TIP3   OH231008   5.473   5.358   4.798 -0.1326 -0.2941 -0.1812
 3198TIP3    H131009   5.451   5.326   4.886 -0.2576  3.7607  1.4624
 3198TIP3    H231010   5.566   5.381   4.804 -0.9731  3.5531  0.2959
 3199TIP3   OH231011   5.962   1.885  16.623 -0.2016 -0.3240 -0.1035
 3199TIP3    H131012   5.980   1.799  16.661 -0.5430 -0.7689 -0.9037
 3199TIP3    H231013   5.999   1.947  16.685 -0.7489 -1.0109  0.9643
 3200TIP3   OH231014   6.613   3.818  10.818  0.2512  0.5839  0.3927
 3200TIP3    H131015   6.578   3.774  10.740 -2.5543 -0.6539  2.1823
 3200TIP3    H231016   6.704   3.787  10.824 -0.2252 -1.2681 -1.0286
 3201TIP3   OH231017   2.108   4.674   1.730 -0.6075  0.0178  0.1620
 3201TIP3    H131018   2.171   4.706   1.666 -2.1876  2.4237 -0.3119
 3201TIP3    H231019   2.069   4.597   1.689 -0.8433  0.9042 -1.3520
 3202TIP3   OH231020   1.391   1.393  15.538  0.8087 -0.3805  0.3657
 3202TIP3    H131021   1.359   1.383  15.628  0.6001 -0.9408  0.2293
 3202TIP3    H231022   1.464   1.455  15.546  0.1411  0.3799  0.7733
 3203TIP3   OH231023   6.341   1.009   2.864  0.7242  0.1529 -0.1342
 3203TIP3    H131024   6.387   0.937   2.909 -1.1967 -2.0828 -1.5272
 3203TIP3    H231025   6.321   1.071   2.934  2.2508 -0.7386  1.1797
 3204TIP3   OH231026   6.035   2.253  16.607 -0.0250  0.4442 -0.3009
 3204TIP3    H131027   5.972   2.306  16.558  1.6564  2.2993 -0.6085
 3204TIP3    H231028   6.117   2.301  16.600  1.4521 -1.8433  0.1090
 3205TIP3   OH231029   0.043   1.463   3.918  0.1703 -0.0188 -0.2091
 3205TIP3    H131030  -0.017   1.512   3.974  1.6358 -0.0009  1.4517
 3205TIP3    H231031  -0.002   1.456   3.834 -1.7917  0.6537  0.7251
 3206TIP3   OH231032   4.672   6.231  15.840  0.5594 -0.0239  0.4089
 3206TIP3    H131033   4.622   6.311  15.827 -0.6609 -0.8093  0.0221
 3206TIP3    H231034   4.651   6.204  15.929  0.9675  0.0897  0.5390
 3207TIP3   OH231035   5.043   1.766  15.637 -0.2783 -0.8476  0.2260
 3207TIP3    H131036   4.983   1.719  15.578  0.4896 -0.0350 -1.2608
 3207TIP3    H231037   5.130   1.749  15.601  0.0353  1.5253 -0.2825
 3208TIP3   OH231038   0.298   2.760   1.831  0.5433 -0.2290 -0.1632
 3208TIP3    H131039   0.283   2.819   1.905  0.4521  0.5681 -0.7932
 3208TIP3    H231040   0.374   2.708   1.856 -0.6236 -1.3144  1.2855
 3209TIP3   OH231041   3.640   5.863   4.710  0.3142 -0.7895 -0.2531
 3209TIP3    H131042   3.699   5.804   4.758  1.2137  1.0197  0.9657
 3209TIP3    H231043   3.605   5.922   4.777 -0.3673  0.2264 -1.4550
 3210TIP3   OH231044   0.376   3.890  11.501 -0.2565  0.3549 -0.3030
 3210TIP3    H131045   0.325   3.833  11.560 -0.6245 -0.0059 -0.9582
 3210TIP3    H231046   0.311   3.924  11.439  0.2423  0.1518 -0.9467
 3211TIP3   OH231047   0.587   0.047   3.925  0.2388 -0.2189 -0.6530
 3211TIP3    H131048   0.678   0.061   3.899  0.8084  2.0612  2.0859
 3211TIP3    H231049   0.551   0.136   3.934 -1.1802 -0.9518  1.6618
 3212TIP3   OH231050   6.018   6.453   1.339 -0.1952  0.4335 -0.4957
 3212TIP3    H131051   6.101   6.409   1.359  1.0081  2.4560 -0.7032
 3212TIP3    H231052   5.967   6.446   1.419  0.9369  0.7432  0.2692
 3213TIP3   OH231053   3.205   5.367   3.703  0.1266 -0.3646  0.5400
 3213TIP3    H131054   3.237   5.423   3.632 -2.1595 -1.1069 -1.2001
 3213TIP3    H231055   3.176   5.428   3.771  1.8446  0.3693  0.6675
 3214TIP3   OH231056   4.297   0.197   2.722 -0.6204 -0.0077 -0.6739
 3214TIP3    H131057   4.284   0.204   2.628  1.7609 -2.2561 -1.2792
 3214TIP3    H231058   4.392   0.195   2.734 -0.8397 -1.7756  1.5370
 3215TIP3   OH231059   3.696   3.230  11.918  0.5102  0.1211 -0.3503
 3215TIP3    H131060   3.710   3.306  11.861  0.9026  1.1493  1.0784
 3215TIP3    H231061   3.782   3.209  11.953  0.4646 -1.2129 -0.9699
 3216TIP3   OH231062   0.140   0.055   2.943 -0.0909 -0.0106  0.4468
 3216TIP3    H131063   0.075   0.120   2.914 -0.2181  0.2142  1.2009
 3216TIP3    H231064   0.123   0.045   3.037  1.7431  0.9585  0.9297
 3217TIP3   OH231065   1.783   4.344   4.296 -0.7030  0.9789  0.6589
 3217TIP3    H131066   1.805   4.358   4.388 -1.3375  2.3622  0.6254
 3217TIP3    H231067   1.776   4.249   4.288 -0.4525  0.8202  1.9938
 3218TIP3   OH231068   0.060   1.429   1.306  0.3961 -0.1487 -0.3067
 3218TIP3    H131069   0.022   1.496   1.363  0.6794 -0.6269  0.4714
 3218TIP3    H231070   0.153   1.449   1.304  0.3129  0.2036 -1.0864
 3219TIP3   OH231071   3.103   5.771  11.838 -0.1929  0.1108 -0.2220
 3219TIP3    H131072   3.137   5.814  11.760  1.3323 -0.1289  0.2845
 3219TIP3    H231073   3.178   5.766  11.897 -1.2870  0.1726  1.2135
 3220TIP3   OH231074   4.310   2.823  12.404 -0.0102  0.3217 -0.0471
 3220TIP3    H131075   4.368   2.863  12.469 -0.9420  0.8698  0.4747
 3220TIP3    H231076   4.227   2.809  12.451 -0.7669  0.9146 -1.1591
 3221TIP3   OH231077   5.343   3.854  13.705  0.4515 -0.0255 -0.3543
 3221TIP3    H131078   5.364   3.846  13.612 -0.4649  0.5393 -0.6249
 3221TIP3    H231079   5.361   3.768  13.741  1.2309 -0.1304 -0.9679
 3222TIP3   OH231080   5.181   2.635  16.713 -0.0545 -0.3266  0.2054
 3222TIP3    H131081   5.190   2.721  16.754  1.3016 -0.2218 -0.2417
 3222TIP3    H231082   5.122   2.587  16.770 -1.7950  1.2619 -0.1490
 3223TIP3   OH231083   6.150   1.794   5.888 -0.3670 -0.3289  0.1151
 3223TIP3    H131084   6.058   1.798   5.914 -0.0226 -2.7658  2.1019
 3223TIP3    H231085   6.193   1.863   5.938 -0.7566 -0.8423  1.1920
 3224TIP3   OH231086   3.314   1.671   4.608 -0.4324  0.2103 -0.0692
 3224TIP3    H131087   3.400   1.673   4.649  0.1745  0.5668 -1.3050
 3224TIP3    H231088   3.253   1.665   4.681  0.6202  0.2090  0.8461
 3225TIP3   OH231089   4.328   5.510   3.340 -0.5164 -0.1269  0.1797
 3225TIP3    H131090   4.332   5.588   3.284 -1.8495  0.3158  0.6744
 3225TIP3    H231091   4.326   5.544   3.429 -1.3013 -0.7114  0.3971
 3226TIP3   OH231092   0.797   2.358  13.785 -0.7477 -0.0294 -0.0092
 3226TIP3    H131093   0.852   2.372  13.708 -1.8723  1.1013 -0.6317
 3226TIP3    H231094   0.709   2.343  13.749 -1.1230 -0.3807  1.0256
 3227TIP3   OH231095   2.148   4.370   3.719  0.6711  0.7728  0.1535
 3227TIP3    H131096   2.070   4.411   3.756 -0.9324 -1.7257 -0.2530
 3227TIP3    H231097   2.154   4.404   3.630 -0.4606  0.3984 -0.0807
 3228TIP3   OH231098   2.682   2.015  11.909 -0.1014  0.2901 -0.2047
 3228TIP3    H131099   2.657   1.950  11.975  1.3074 -1.4861 -1.3185
 3228TIP3    H231100   2.632   2.093  11.932  0.9012  0.0581  3.4578
 3229TIP3   OH231101   6.677   3.030   4.945  0.4927  0.4648 -0.3046
 3229TIP3    H131102   6.601   3.000   4.894  0.1865 -1.0909  0.9894
 3229TIP3    H231103   6.648   3.112   4.984 -0.4445  0.0277 -0.0464
 3230TIP3   OH231104   4.034   3.566  16.922 -0.3911 -0.2214  0.0385
 3230TIP3    H131105   4.062   3.519  16.844 -0.2851  1.1382 -0.7825
 3230TIP3    H231106   4.104   3.553  16.986  0.2547 -0.0736 -0.6380
 3231TIP3   OH231107   4.294   0.693  14.721 -0.1964 -0.5517 -0.4525
 3231TIP3    H131108   4.307   0.690  14.816  0.7501 -0.4733 -0.5616
 3231TIP3    H231109   4.204   0.664  14.708 -0.2076 -0.9599  0.4379
 3232TIP3   OH231110   2.119   5.347   1.816  0.8441  0.7571  0.0959
 3232TIP3    H131111   2.178   5.275   1.793  2.0550  1.6125  0.3868
 3232TIP3    H231112   2.038   5.304   1.843  0.5678 -0.3790 -2.3518
 3233TIP3   OH231113   5.994   5.505  17.003 -0.4789  0.4084 -0.1496
 3233TIP3    H131114   5.928   5.436  16.998 -0.2690  0.1850  0.1128
 3233TIP3    H231115   6.000   5.539  16.913  0.4720 -0.9142 -0.6234
 3234TIP3   OH231116   6.713   1.630   3.682 -0.2053 -0.2925  0.1308
 3234TIP3    H131117   6.629   1.635   3.636 -0.6787 -0.4579  0.9633
 3234TIP3    H231118   6.690   1.629   3.775  0.6463 -1.5531  0.3571
 3235TIP3   OH231119   1.858   5.906  16.974 -0.2534 -0.2997  0.7451
 3235TIP3    H131120   1.869   5.849  16.898 -0.8746 -0.4354  0.7548
 3235TIP3    H231121   1.778   5.955  16.956  0.2136  0.4942  0.7908
 3236TIP3   OH231122   4.587   3.748  12.813  0.2135 -0.2079  0.5068
 3236TIP3    H131123   4.582   3.743  12.909  0.9114 -3.2206  0.4928
 3236TIP3    H231124   4.562   3.660  12.784 -0.5287  0.7999 -2.1387
 3237TIP3   OH231125   4.495   0.725   5.636  0.2995  0.1959  0.0669
 3237TIP3    H131126   4.524   0.798   5.691  0.2925  1.1618 -1.1539
 3237TIP3    H231127   4.510   0.647   5.689 -0.8982  1.1552  1.9463
 3238TIP3   OH231128   5.543   6.672   4.112 -0.2275  0.5832  0.5017
 3238TIP3    H131129   5.470   6.663   4.173 -0.0960 -0.3534  0.5350
 3238TIP3    H231130   5.508   6.724   4.039 -1.5489 -1.4841 -0.4254
 3239TIP3   OH231131   6.240   3.993   4.115  0.4237  0.5737  0.2618
 3239TIP3    H131132   6.267   4.079   4.082 -2.4508  1.4226 -0.1806
 3239TIP3    H231133   6.266   3.993   4.207 -1.0346  2.7121  0.7563
 3240TIP3   OH231134   2.295   4.398   0.111 -0.2013  0.3003  0.1843
 3240TIP3    H131135   2.306   4.406   0.016  1.7467 -0.0976  0.3448
 3240TIP3    H231136   2.237   4.324   0.122 -1.7116  1.2915 -0.7163
 3241TIP3   OH231137   0.600   6.401  15.839  0.5205  0.0090  0.0455
 3241TIP3    H131138   0.518   6.353  15.836  0.1297  0.7052 -1.6082
 3241TIP3    H231139   0.647   6.365  15.915 -0.8957 -1.0440  0.4530
 3242TIP3   OH231140   5.925   2.777  12.825  0.3807 -0.7588  1.1002
 3242TIP3    H131141   5.909   2.683  12.821  1.0072 -0.8526  0.6527
 3242TIP3    H231142   6.005   2.786  12.877  1.3080 -0.6156 -0.2717
 3243TIP3   OH231143   1.016   2.136  11.652  0.0597 -0.2278  0.1329
 3243TIP3    H131144   0.981   2.224  11.670 -0.2867 -0.1679 -0.7982
 3243TIP3    H231145   1.099   2.134  11.700 -0.5981  0.0852  1.3337
 3244TIP3   OH231146   6.426   0.089  13.161 -0.3218  0.7773 -0.7355
 3244TIP3    H131147   6.348   0.122  13.206 -0.7312  0.1884 -1.0055
 3244TIP3    H231148   6.397   0.009  13.117  0.8277 -0.4242  0.5767
 3245TIP3   OH231149   4.176   3.948  15.907  0.3354  0.2592 -0.2747
 3245TIP3    H131150   4.211   4.019  15.854 -0.8105 -1.3287 -3.4430
 3245TIP3    H231151   4.252   3.894  15.929  1.1145  2.0232  1.6251
 3246TIP3   OH231152   0.782   2.953   6.570  0.3331 -0.3225  0.0122
 3246TIP3    H131153   0.705   3.007   6.552  0.6808  1.2110  2.6398
 3246TIP3    H231154   0.855   3.014   6.568  1.2489 -1.3991 -0.4804
 3247TIP3   OH231155   5.292   2.046  14.034  0.1674 -0.0681 -0.3784
 3247TIP3    H131156   5.385   2.064  14.053  0.2592 -0.2691 -0.6301
 3247TIP3    H231157   5.290   2.029  13.940  0.0095 -0.9255 -0.2283
 3248TIP3   OH231158   2.400   3.777  17.211  1.0985  0.1855 -0.4358
 3248TIP3    H131159   2.399   3.854  17.269 -1.4612  0.4280 -0.6772
 3248TIP3    H231160   2.404   3.814  17.123  0.7237  0.0128 -0.5265
 3249TIP3   OH231161   3.555   2.775   3.532 -0.1198 -0.3671 -0.0109
 3249TIP3    H131162   3.466   2.793   3.562 -0.5583 -0.2380 -1.3352
 3249TIP3    H231163   3.586   2.858   3.495  0.7247 -0.2878  0.8383
 3250TIP3   OH231164   0.232   5.986  11.872  0.1275 -0.5060  0.3674
 3250TIP3    H131165   0.237   5.908  11.817 -1.4870  1.1137 -2.2916
 3250TIP3    H231166   0.266   6.056  11.818 -1.3505  1.1770  1.4777
 3251TIP3   OH231167   3.333   5.295   6.551  0.2105 -0.6858  0.8972
 3251TIP3    H131168   3.330   5.209   6.509  1.1934  0.2070 -1.1805
 3251TIP3    H231169   3.251   5.338   6.525  1.2188  0.2142 -1.1122
 3252TIP3   OH231170   3.700   2.951  14.714 -0.1809 -0.6607 -0.0198
 3252TIP3    H131171   3.772   3.009  14.740 -0.7258  0.1518 -0.2671
 3252TIP3    H231172   3.663   2.921  14.797 -0.0373 -0.4735  0.1141
 3253TIP3   OH231173   4.758   2.892   0.088  0.4524  0.2813 -0.5965
 3253TIP3    H131174   4.762   2.965   0.026  1.6863  0.6751 -0.0963
 3253TIP3    H231175   4.679   2.844   0.064  0.5079  0.8408 -1.9877
 3254TIP3   OH231176   2.660   5.864  11.437  0.1774  0.0827  0.3860
 3254TIP3    H131177   2.710   5.873  11.356  1.2216  0.6307  1.0614
 3254TIP3    H231178   2.701   5.926  11.497 -1.9801  1.2970  0.6839
 3255TIP3   OH231179   4.646   2.652  13.725 -0.0834 -0.2593  0.0928
 3255TIP3    H131180   4.693   2.733  13.746 -1.6397  0.7286 -0.1003
 3255TIP3    H231181   4.716   2.588  13.709  1.3646  1.8550 -3.2053
 3256TIP3   OH231182   3.392   3.904  11.289  0.0995 -0.5243  0.3621
 3256TIP3    H131183   3.459   3.837  11.300  0.0574 -0.5823  0.2686
 3256TIP3    H231184   3.365   3.927  11.378  2.2053  1.4742  0.5993
 3257TIP3   OH231185   3.840   4.718   4.848  0.1880 -0.4959  0.0290
 3257TIP3    H131186   3.824   4.795   4.903  0.4068 -0.3115 -0.1639
 3257TIP3    H231187   3.841   4.752   4.758  2.2534 -0.3731  0.0373
 3258TIP3   OH231188   0.135   1.398   3.587  0.0131  0.0545  0.3160
 3258TIP3    H131189   0.106   1.489   3.574  0.4635  0.3259  1.1626
 3258TIP3    H231190   0.214   1.390   3.534  0.4324  0.4078  0.8783
 3259TIP3   OH231191   1.674   3.430  12.020 -0.2275 -1.1545  0.5554
 3259TIP3    H131192   1.656   3.520  11.993  1.0693 -1.0180  0.0609
 3259TIP3    H231193   1.647   3.427  12.112 -0.0903 -0.1946  0.6437
 3260TIP3   OH231194   2.816   4.423  16.118  0.3439  0.0598  0.1024
 3260TIP3    H131195   2.851   4.372  16.044  1.5487 -1.1145  1.4101
 3260TIP3    H231196   2.742   4.371  16.150 -0.1609  0.5548 -0.2435
 3261TIP3   OH231197   4.917   6.468  16.712  0.0541 -0.5296  0.3792
 3261TIP3    H131198   4.878   6.483  16.798  0.1571  1.2614  0.1569
 3261TIP3    H231199   4.842   6.463  16.652  0.0244  2.5887 -0.0004
 3262TIP3   OH231200   1.290   4.076  14.834 -0.8040  0.3464 -0.0515
 3262TIP3    H131201   1.344   4.155  14.826  2.2364 -1.4769  0.6583
 3262TIP3    H231202   1.323   4.032  14.913 -1.6607 -2.1148 -0.9546
 3263TIP3   OH231203   6.270   5.966   2.421  0.0251 -0.1575  0.6283
 3263TIP3    H131204   6.264   6.056   2.390  0.6595  0.2449  1.6085
 3263TIP3    H231205   6.181   5.931   2.412 -0.1029  0.3774 -0.2900
 3264TIP3   OH231206   0.827   0.884   3.025  0.7160  0.0752  0.1460
 3264TIP3    H131207   0.789   0.800   3.053  0.7672  0.5602  1.7707
 3264TIP3    H231208   0.860   0.867   2.937  0.9973 -1.7085  0.5588
 3265TIP3   OH231209   4.462   4.960  15.489  0.2009  0.1930  0.0599
 3265TIP3    H131210   4.383   4.985  15.440  0.2649  1.9928  0.8012
 3265TIP3    H231211   4.429   4.929  15.573  0.2051 -0.8965 -0.3254
 3266TIP3   OH231212   6.121   2.262   0.083  0.3855 -0.1723  0.3774
 3266TIP3    H131213   6.073   2.259   0.000 -0.5811 -0.2000  0.9262
 3266TIP3    H231214   6.152   2.172   0.096 -1.0083 -0.5986  0.9183
 3267TIP3   OH231215   2.941   0.948   3.392  0.2079  0.2545  0.0031
 3267TIP3    H131216   2.983   0.990   3.317  0.9825 -2.3713 -1.1759
 3267TIP3    H231217   2.848   0.971   3.384  0.5183  1.2630 -0.8692
 3268TIP3   OH231218   6.149   0.172   0.250  0.8728  0.3171  0.2138
 3268TIP3    H131219   6.198   0.133   0.177  1.1376  0.3092  0.3938
 3268TIP3    H231220   6.213   0.178   0.321  0.8249  1.0631  0.1992
 3269TIP3   OH231221   2.181   3.576   2.920  0.1952  0.4294 -0.3463
 3269TIP3    H131222   2.125   3.653   2.932  1.0033  1.3601 -2.1257
 3269TIP3    H231223   2.235   3.572   2.998 -2.7901 -0.9666  1.8376
 3270TIP3   OH231224   2.190   0.156  15.958  0.4251  0.2723 -0.0967
 3270TIP3    H131225   2.213   0.070  15.922 -0.0453  0.3886 -0.6979
 3270TIP3    H231226   2.211   0.217  15.887 -2.6687  0.3051 -1.1562
 3271TIP3   OH231227   0.085   0.454  10.908  0.6244  0.0314 -0.1034
 3271TIP3    H131228   0.003   0.405  10.900 -0.2081  0.7976  2.7464
 3271TIP3    H231229   0.099   0.462  11.002  1.6380  3.7696 -0.4327
 3272TIP3   OH231230   6.120   1.085   5.035  0.1556  0.2881 -0.0225
 3272TIP3    H131231   6.184   1.015   5.020  0.8352  0.8358  0.3106
 3272TIP3    H231232   6.171   1.158   5.069 -0.5991  0.8494 -0.0720
 3273TIP3   OH231233   1.212   1.026  15.451 -0.2643 -0.0272 -0.4130
 3273TIP3    H131234   1.154   1.042  15.525 -0.1924 -0.6991 -0.1994
 3273TIP3    H231235   1.162   1.054  15.374 -0.2812  0.8163 -0.1034
 3274TIP3   OH231236   0.695   5.034  12.180  0.2495 -0.8013 -0.4242
 3274TIP3    H131237   0.781   4.993  12.172  0.5456 -0.2972  0.1263
 3274TIP3    H231238   0.671   5.022  12.272 -0.4408 -1.2645 -0.6536
 3275TIP3   OH231239   6.234   3.529  16.282  0.2317  0.5661  0.4589
 3275TIP3    H131240   6.298   3.501  16.348  1.8290  0.0289 -1.2560
 3275TIP3    H231241   6.212   3.619  16.306  2.4616  1.1501  0.4939
 3276TIP3   OH231242   0.589   2.396   5.855 -0.2413  0.1123  0.6727
 3276TIP3    H131243   0.622   2.306   5.860 -0.0530  0.1664  0.3924
 3276TIP3    H231244   0.506   2.388   5.808 -0.6097 -0.0155  1.3277
 3277TIP3   OH231245   3.929   1.258   5.987  0.4581 -0.1100  0.7151
 3277TIP3    H131246   3.977   1.184   5.949  0.6216 -0.6175  1.8822
 3277TIP3    H231247   3.859   1.219   6.038  0.1591  0.5613  0.8337
 3278TIP3   OH231248   6.518   3.790  11.644  0.6230 -0.9273  0.1428
 3278TIP3    H131249   6.586   3.851  11.672  0.7349 -1.1100  0.2739
 3278TIP3    H231250   6.499   3.815  11.554  0.3395 -0.4066  0.3451
 3279TIP3   OH231251   1.129   2.952  11.632  0.1022 -0.4890  0.4109
 3279TIP3    H131252   1.105   2.863  11.656  0.3694 -0.3423  1.2277
 3279TIP3    H231253   1.089   3.007  11.699 -2.0428  0.2278 -1.3112
 3280TIP3   OH231254   0.262   5.985  17.231  0.1238 -0.1624 -0.6237
 3280TIP3    H131255   0.233   6.055  17.290  0.6528  0.0627 -0.6197
 3280TIP3    H231256   0.340   6.021  17.188 -0.0471 -0.4652 -1.1916
 3281TIP3   OH231257   3.609   5.617  15.882 -0.2760 -0.2019 -0.0800
 3281TIP3    H131258   3.620   5.599  15.975  0.0244 -0.4305 -0.1559
 3281TIP3    H231259   3.515   5.630  15.870 -0.2238  0.6807  0.4015
 3282TIP3   OH231260   1.618   0.164  16.539 -0.8805 -0.3818 -0.1698
 3282TIP3    H131261   1.607   0.204  16.626 -0.2365  0.3694 -0.4270
 3282TIP3    H231262   1.687   0.215  16.498 -0.2315 -1.5957 -0.6278
 3283TIP3   OH231263   2.222   6.181   2.012  0.0169  0.4046 -0.2649
 3283TIP3    H131264   2.185   6.111   2.065 -0.6886  0.0907 -1.1327
 3283TIP3    H231265   2.315   6.182   2.034  0.0871 -0.9780 -0.4048
 3284TIP3   OH231266   4.413   1.414   5.083  0.0983  0.2621 -0.2703
 3284TIP3    H131267   4.446   1.335   5.040 -0.9652 -0.5216  0.3179
 3284TIP3    H231268   4.455   1.413   5.169 -1.2375 -0.6087  0.3892
 3285TIP3   OH231269   0.619   0.529  15.184 -0.1288 -0.4348 -0.0727
 3285TIP3    H131270   0.587   0.546  15.096  0.2583  4.2120  0.4188
 3285TIP3    H231271   0.542   0.545  15.240  0.3952 -0.0155  0.5407
 3286TIP3   OH231272   4.272   1.534  11.284  0.1696 -0.4110 -0.2997
 3286TIP3    H131273   4.182   1.501  11.283  0.3609 -1.0925 -2.9910
 3286TIP3    H231274   4.295   1.544  11.192  2.5561  0.6558  0.3293
 3287TIP3   OH231275   1.938   1.843  15.001  0.0986 -0.5767  0.4280
 3287TIP3    H131276   2.017   1.895  14.987  0.3431 -0.6845  1.3193
 3287TIP3    H231277   1.877   1.871  14.933  0.6972 -0.0666  0.1041
 3288TIP3   OH231278   2.829   6.096   0.964 -0.2391 -0.6566 -0.2393
 3288TIP3    H131279   2.816   6.001   0.971 -1.1752 -0.5850 -0.8967
 3288TIP3    H231280   2.862   6.109   0.875  2.6076 -0.6152  0.7026
 3289TIP3   OH231281   1.720   1.267   0.179  0.3654 -0.9241 -0.3085
 3289TIP3    H131282   1.734   1.343   0.122  1.9359  0.7507  2.1199
 3289TIP3    H231283   1.805   1.225   0.184  0.0084 -1.6232  0.0434
 3290TIP3   OH231284   2.283   2.433   3.044  0.2276  0.1505  0.0924
 3290TIP3    H131285   2.254   2.524   3.034  0.3929  0.0424 -1.7945
 3290TIP3    H231286   2.214   2.392   3.095 -1.3742  0.6761 -1.5296
 3291TIP3   OH231287   2.198   0.066   1.436 -0.2464 -0.4974  0.6977
 3291TIP3    H131288   2.233   0.141   1.389 -1.4906  0.7862  1.7224
 3291TIP3    H231289   2.276   0.019   1.467  0.5586  0.2987 -0.0552
 3292TIP3   OH231290   1.465   3.717   5.589 -0.1027 -0.1014 -0.7660
 3292TIP3    H131291   1.433   3.726   5.500 -1.9473  0.6872 -0.0681
 3292TIP3    H231292   1.391   3.741   5.644  0.2376 -2.6920  1.0398
 3293TIP3   OH231293   4.438   1.025   2.435 -0.3437  0.4454 -0.1171
 3293TIP3    H131294   4.526   1.053   2.461  0.4805  0.7144 -2.8390
 3293TIP3    H231295   4.380   1.086   2.479  0.8608  0.6654  1.2430
 3294TIP3   OH231296   0.524   5.392  11.964 -0.1888  0.1120 -0.1035
 3294TIP3    H131297   0.453   5.349  11.916  0.0431  0.4498 -0.7721
 3294TIP3    H231298   0.509   5.485  11.950  0.5536  0.1822 -0.5246
 3295TIP3   OH231299   3.912   4.569   3.344  0.7938 -0.3801 -0.7412
 3295TIP3    H131300   3.997   4.555   3.302  2.0598 -0.6351  1.6940
 3295TIP3    H231301   3.907   4.502   3.412 -0.8521  0.3403 -0.0806
 3296TIP3   OH231302   2.385   2.223  15.303 -0.3113  0.2942  0.2399
 3296TIP3    H131303   2.329   2.289  15.343  1.5781  3.1142 -1.4334
 3296TIP3    H231304   2.456   2.210  15.365  0.2628  1.2741 -0.1860
 3297TIP3   OH231305   6.730   2.213  16.135 -0.5686 -0.3524 -0.0284
 3297TIP3    H131306   6.642   2.200  16.099 -0.6273 -1.4819  0.4926
 3297TIP3    H231307   6.717   2.273  16.208 -0.9528 -0.7292  0.2184
 3298TIP3   OH231308   3.600   1.980   5.232  0.6895  0.3889  0.2804
 3298TIP3    H131309   3.664   2.030   5.181  0.5544  0.0334 -0.2412
 3298TIP3    H231310   3.557   2.046   5.286 -0.3352  1.0753 -1.2860
 3299TIP3   OH231311   3.516   1.841   2.849  0.1493  0.1992  0.4275
 3299TIP3    H131312   3.529   1.889   2.767  0.7526 -1.3873 -0.4429
 3299TIP3    H231313   3.423   1.821   2.850  0.2481 -0.3082 -0.1852
 3300TIP3   OH231314   3.701   6.000   4.457 -0.3712 -0.6173  0.1689
 3300TIP3    H131315   3.762   5.941   4.412  1.5297  1.1662  0.2722
 3300TIP3    H231316   3.700   5.969   4.547 -0.3366 -1.2112 -0.0253
 3301TIP3   OH231317   4.875   5.941   5.641 -0.0828 -0.1837 -0.0674
 3301TIP3    H131318   4.892   5.848   5.655  1.3719 -0.0990 -1.0640
 3301TIP3    H231319   4.960   5.978   5.619 -0.9356  1.0170 -1.5748
 3302TIP3   OH231320   0.732   1.025   1.954  0.7204  0.2943  0.2127
 3302TIP3    H131321   0.638   1.044   1.944  0.4720 -0.6096  0.7100
 3302TIP3    H231322   0.776   1.104   1.922 -0.1955  0.5112 -0.5488
 3303TIP3   OH231323   2.921   4.727   1.831  0.3506 -0.6744  0.4981
 3303TIP3    H131324   2.926   4.788   1.905 -1.1788 -0.8357  0.7661
 3303TIP3    H231325   2.934   4.783   1.754 -0.0835 -0.1671  0.7883
 3304TIP3   OH231326   3.515   0.420   6.833 -0.4197 -0.1157  0.3442
 3304TIP3    H131327   3.531   0.409   6.739 -0.7276 -1.7142  0.4443
 3304TIP3    H231328   3.591   0.469   6.864  1.2929 -2.2408 -0.2307
 3305TIP3   OH231329   6.211   6.489   1.742  0.5074  0.0644  0.9883
 3305TIP3    H131330   6.116   6.479   1.736  0.4464  0.3471  1.4288
 3305TIP3    H231331   6.226   6.584   1.746  0.9807  0.1611 -1.5758
 3306TIP3   OH231332   6.748   3.607  11.602  0.0023  0.4284 -0.3416
 3306TIP3    H131333   6.704   3.542  11.657  1.9928 -2.1891 -1.5882
 3306TIP3    H231334   6.686   3.625  11.531  0.1770 -1.9411 -1.1913
 3307TIP3   OH231335   6.581   4.912   3.896 -0.4708  0.0240 -0.3801
 3307TIP3    H131336   6.634   4.977   3.849  1.6284 -0.6340  0.9598
 3307TIP3    H231337   6.587   4.938   3.988 -1.6415 -0.7005 -0.0742
 3308TIP3   OH231338   5.457   4.474   4.711 -0.4694 -0.5463 -0.4742
 3308TIP3    H131339   5.413   4.430   4.637 -0.3050  0.1837 -1.0139
 3308TIP3    H231340   5.385   4.506   4.765 -0.5952 -1.4369 -0.0852
 3309TIP3   OH231341   2.562   3.063   3.892  0.7412 -0.1545  0.2037
 3309TIP3    H131342   2.597   2.975   3.908  1.8459  0.5438  1.9481
 3309TIP3    H231343   2.635   3.111   3.851 -0.2386 -0.3359 -1.8523
 3310TIP3   OH231344   5.809   0.984   0.649 -0.1682 -0.0603  0.2852
 3310TIP3    H131345   5.868   0.910   0.663 -0.5914 -0.2802  0.9464
 3310TIP3    H231346   5.866   1.061   0.646  0.0784 -0.1010  2.2778
 3311TIP3   OH231347   3.017   6.344  15.478  0.1078  0.3429  0.5018
 3311TIP3    H131348   3.069   6.299  15.544 -1.5592  0.4066  1.9178
 3311TIP3    H231349   3.068   6.335  15.397  1.9082 -0.2504  1.6452
 3312TIP3   OH231350   3.513   1.152   3.024 -0.0629  0.0379 -0.1838
 3312TIP3    H131351   3.521   1.058   3.011 -1.1855 -0.4704  2.3262
 3312TIP3    H231352   3.426   1.173   2.991 -0.6593 -0.2250  1.1695
 3313TIP3   OH231353   1.264   4.395   0.610 -0.0130 -0.1572  0.3573
 3313TIP3    H131354   1.308   4.328   0.662  0.0063  0.6053  1.3459
 3313TIP3    H231355   1.335   4.440   0.564  0.1655  0.4963  1.2643
 3314TIP3   OH231356   5.458   3.324   0.380 -0.4758  0.1779  0.5046
 3314TIP3    H131357   5.391   3.263   0.412  0.2500 -1.3965 -0.8490
 3314TIP3    H231358   5.510   3.345   0.458 -1.7836  0.4820  1.3291
 3315TIP3   OH231359   4.717   5.066   2.269  0.7014 -0.2949 -0.8324
 3315TIP3    H131360   4.754   5.083   2.182 -2.1983 -0.3272 -2.1636
 3315TIP3    H231361   4.657   5.139   2.284  0.4787 -0.7763  0.7532
 3316TIP3   OH231362   1.112   0.562   2.194  0.1336  0.7985 -0.2947
 3316TIP3    H131363   1.027   0.601   2.173 -0.4292 -0.1702  0.0699
 3316TIP3    H231364   1.138   0.517   2.113 -0.2153  0.2249 -0.0962
 3317TIP3   OH231365   1.197   4.377  14.715  0.1181 -0.6380 -0.2756
 3317TIP3    H131366   1.116   4.334  14.687 -0.6545  0.3900  0.3023
 3317TIP3    H231367   1.186   4.469  14.689 -0.1419  0.1362  2.2595
 3318TIP3   OH231368   1.111   1.308   5.591  0.2623 -0.2158 -0.2611
 3318TIP3    H131369   1.016   1.310   5.584  0.2671 -1.2790 -0.8600
 3318TIP3    H231370   1.142   1.365   5.520  0.0836 -0.6978 -0.7312
 3319TIP3   OH231371   0.636   3.630   3.232 -0.0793 -0.0369  0.3111
 3319TIP3    H131372   0.692   3.641   3.309  0.1353 -0.7190  0.2551
 3319TIP3    H231373   0.601   3.718   3.216  0.0180  0.1478  1.0703
 3320TIP3   OH231374   4.335   0.966   6.311 -0.0741  0.0211  0.0023
 3320TIP3    H131375   4.370   0.945   6.225 -0.5756  0.1675 -0.2424
 3320TIP3    H231376   4.241   0.975   6.297 -0.1748 -0.0677  0.5879
 3321TIP3   OH231377   4.799   2.252   3.794 -0.4913 -0.4918 -0.3436
 3321TIP3    H131378   4.788   2.158   3.805  0.8811 -0.5684  0.7401
 3321TIP3    H231379   4.860   2.277   3.863 -0.1792  1.0517 -1.1235
 3322TIP3   OH231380   3.199   1.857   1.822  0.3109  0.2615  0.3348
 3322TIP3    H131381   3.200   1.887   1.912  1.0345  0.3371  0.3081
 3322TIP3    H231382   3.140   1.781   1.823  0.8424 -0.1587  1.0148
 3323TIP3   OH231383   1.348   5.871   6.078  0.3153  0.0462  0.3834
 3323TIP3    H131384   1.291   5.940   6.046 -1.1113 -1.6646 -1.0133
 3323TIP3    H231385   1.306   5.838   6.157 -0.2786 -0.7050 -0.2237
 3324TIP3   OH231386   6.540   3.233   4.093  0.4461 -0.2954 -0.5747
 3324TIP3    H131387   6.632   3.255   4.080  0.1848  0.1338 -1.9667
 3324TIP3    H231388   6.520   3.172   4.021  0.3511 -2.7330  1.3881
 3325TIP3   OH231389   6.047   3.599   5.530  0.0922 -0.0152  0.2967
 3325TIP3    H131390   6.142   3.587   5.524  0.5998  3.1434  0.1032
 3325TIP3    H231391   6.031   3.620   5.622  0.0660  2.1218 -0.1399
 3326TIP3   OH231392   2.542   1.336   6.149  0.5836  0.0337 -0.5224
 3326TIP3    H131393   2.498   1.410   6.107  0.9659  1.0270  0.7586
 3326TIP3    H231394   2.477   1.301   6.210 -0.1261 -1.6815 -2.1485
 3327TIP3   OH231395   6.099   5.333   3.722  0.4274 -0.2579  0.2871
 3327TIP3    H131396   6.093   5.292   3.636  0.3189 -0.7435  0.5232
 3327TIP3    H231397   6.053   5.273   3.781  0.3065  0.1802  0.6469
 3328TIP3   OH231398   3.229   2.252  14.536  0.3096 -0.4856 -0.1489
 3328TIP3    H131399   3.207   2.338  14.503  2.8740  1.0951  1.8550
 3328TIP3    H231400   3.251   2.200  14.459  1.0686  1.4136 -1.2500
 3329TIP3   OH231401   1.898   5.181   1.844 -0.2001  0.1458 -0.2506
 3329TIP3    H131402   1.845   5.147   1.916 -1.3072  0.3042 -0.9561
 3329TIP3    H231403   1.931   5.103   1.800  0.3718  0.0474  0.3439
 3330TIP3   OH231404   3.820   0.487  14.766  0.3034  0.7326 -0.2606
 3330TIP3    H131405   3.822   0.414  14.827  2.4468  0.6644 -0.3540
 3330TIP3    H231406   3.757   0.459  14.698 -0.7156  0.0420  0.9267
 3331TIP3   OH231407   2.831   3.555   5.837 -1.1648 -0.2139 -0.3022
 3331TIP3    H131408   2.851   3.529   5.747 -1.3616  0.0105 -0.4123
 3331TIP3    H231409   2.798   3.644   5.829 -0.1089  0.2331  0.1166
 3332TIP3   OH231410   1.345   5.289  12.539 -0.1622 -0.7863 -0.2908
 3332TIP3    H131411   1.350   5.268  12.445  0.2552  1.0500 -0.7133
 3332TIP3    H231412   1.390   5.215  12.582  2.4372 -0.2218 -1.7890
 3333TIP3   OH231413   4.060   0.256   1.481  0.4045 -0.2068  0.4114
 3333TIP3    H131414   4.089   0.318   1.548 -0.2035 -0.7410  1.1849
 3333TIP3    H231415   3.976   0.224   1.513  0.3826 -0.9092 -0.3271
 3334TIP3   OH231416   3.136   4.566  12.279 -0.4248 -0.1880 -0.2886
 3334TIP3    H131417   3.178   4.483  12.303 -1.8395 -0.6541  0.7504
 3334TIP3    H231418   3.105   4.553  12.190  2.0987  0.3913 -1.3135
 3335TIP3   OH231419   6.159   0.066  12.912 -0.4804 -0.4282  0.6510
 3335TIP3    H131420   6.107   0.090  12.989  1.5276  0.5288  1.7840
 3335TIP3    H231421   6.100   0.079  12.838 -1.6325  1.3567  1.8044
 3336TIP3   OH231422   4.786   2.888   2.598  0.1680 -0.2825 -0.5842
 3336TIP3    H131423   4.720   2.857   2.660  1.3540 -0.1675  0.7886
 3336TIP3    H231424   4.738   2.948   2.541 -0.7742  0.3685  0.8355
 3337TIP3   OH231425   5.995   4.343  13.523 -0.8544 -0.4296 -0.1248
 3337TIP3    H131426   6.019   4.299  13.442 -0.6252  1.7402 -1.3350
 3337TIP3    H231427   5.904   4.317  13.539 -0.6084 -1.6068 -0.5467
 3338TIP3   OH231428   3.126   2.902   3.067 -0.1631  0.0917  0.6335
 3338TIP3    H131429   3.061   2.897   2.997 -0.8788 -1.3992  1.3842
 3338TIP3    H231430   3.201   2.853   3.033  0.2675  1.0644  0.1291
 3339TIP3   OH231431   2.384   3.969  13.741 -0.0489  0.1218 -0.0244
 3339TIP3    H131432   2.329   3.942  13.814  1.8100  0.5392  1.5826
 3339TIP3    H231433   2.470   3.930  13.759  0.6257  0.7724 -1.6505
 3340TIP3   OH231434   4.972   2.718   1.501 -0.6813 -0.6135 -0.1456
 3340TIP3    H131435   5.028   2.793   1.521  0.0467 -1.0091 -0.6418
 3340TIP3    H231436   4.884   2.754   1.494 -0.5780 -0.0579  1.1473
 3341TIP3   OH231437   5.416   2.873  16.015 -0.3985 -0.1529 -0.1730
 3341TIP3    H131438   5.450   2.957  16.047 -1.2811  0.5263 -0.9637
 3341TIP3    H231439   5.419   2.881  15.919 -1.1187 -0.7596 -0.2532
 3342TIP3   OH231440   2.084   4.212   0.298  0.2230 -0.4595  0.1889
 3342TIP3    H131441   1.997   4.208   0.258  1.0221 -1.4601 -1.6096
 3342TIP3    H231442   2.076   4.161   0.378 -1.0904  0.3246  0.5801
 3343TIP3   OH231443   1.014   4.059   2.985 -0.2105 -0.6672  0.4397
 3343TIP3    H131444   1.087   4.009   3.020  0.3098  0.6330  1.3044
 3343TIP3    H231445   0.942   4.042   3.046 -0.0332 -0.3687  0.7349
 3344TIP3   OH231446   0.751   5.050   0.895  0.0804 -0.1252 -0.4723
 3344TIP3    H131447   0.819   5.009   0.948  0.8120  0.6457 -0.7907
 3344TIP3    H231448   0.761   5.012   0.808  1.1565  1.1067 -0.9277
 3345TIP3   OH231449   2.016   3.610  10.545 -0.6071 -0.3445 -0.0878
 3345TIP3    H131450   2.083   3.566  10.493 -1.2774  1.3242 -2.5707
 3345TIP3    H231451   2.065   3.664  10.607  0.2219 -2.3614  1.0909
 3346TIP3   OH231452   3.587   2.054   2.029  0.2512 -0.4606 -0.3725
 3346TIP3    H131453   3.592   1.959   2.041 -0.4046 -0.4790 -0.2426
 3346TIP3    H231454   3.633   2.070   1.947  1.8440 -0.6990  0.4215
 3347TIP3   OH231455   3.658   2.325  12.536 -0.5507 -0.2285 -0.3074
 3347TIP3    H131456   3.667   2.386  12.609 -1.6242  1.7508 -1.7319
 3347TIP3    H231457   3.579   2.276  12.556  0.8034 -1.8895  1.2929
 3348TIP3   OH231458   3.856   5.292  13.409 -0.1528  0.4158  0.2277
 3348TIP3    H131459   3.946   5.317  13.387 -0.3108  0.6413 -0.1815
 3348TIP3    H231460   3.848   5.202  13.378  0.7235 -0.5635  2.5833
 3349TIP3   OH231461   3.417   0.807   3.400  0.1720 -0.4700  0.0238
 3349TIP3    H131462   3.371   0.849   3.328  1.3353  1.0602  0.0997
 3349TIP3    H231463   3.495   0.768   3.360  0.8989  0.5108  0.4079
 3350TIP3   OH231464   3.648   6.754   5.088  0.3447  0.5514 -0.3229
 3350TIP3    H131465   3.697   6.836   5.090 -0.3032  0.9354  0.5231
 3350TIP3    H231466   3.598   6.758   5.007  1.7270  0.1139 -1.2442
 3351TIP3   OH231467   5.055   0.543  13.794 -0.4162  0.1330  0.3881
 3351TIP3    H131468   5.054   0.448  13.810  1.9284 -0.0357 -0.1055
 3351TIP3    H231469   4.999   0.554  13.717 -1.4503 -0.6960  0.9840
 3352TIP3   OH231470   5.081   1.232   2.226  0.2344  0.1092 -0.5651
 3352TIP3    H131471   5.085   1.147   2.183  2.8566 -0.6181  0.8974
 3352TIP3    H231472   5.103   1.295   2.158  0.7178 -0.6449 -1.1201
 3353TIP3   OH231473   0.061   0.432   1.038  0.0011 -0.1422  0.6061
 3353TIP3    H131474   0.145   0.439   1.084  0.8539 -1.2835 -0.7032
 3353TIP3    H231475   0.005   0.382   1.098  0.6720 -0.5104  0.9363
 3354TIP3   OH231476   6.547   6.326  13.306  0.6163 -0.0633  0.4945
 3354TIP3    H131477   6.638   6.354  13.303  0.7222 -0.4862 -0.6576
 3354TIP3    H231478   6.550   6.232  13.291 -0.0215 -0.0447  0.2168
 3355TIP3   OH231479   1.345   5.115  16.041 -0.1987 -0.4832 -0.0742
 3355TIP3    H131480   1.339   5.112  15.946  0.4786 -1.1285 -0.1010
 3355TIP3    H231481   1.354   5.023  16.068  1.6942 -0.1826  0.4558
 3356TIP3   OH231482   4.441   5.560  16.656 -0.3626  0.1193 -0.4902
 3356TIP3    H131483   4.434   5.477  16.609  0.8455 -0.2314 -0.0922
 3356TIP3    H231484   4.532   5.586  16.644 -0.1845  0.3357  1.1191
 3357TIP3   OH231485   6.259   0.570  13.646 -0.9308  0.4779 -0.2842
 3357TIP3    H131486   6.258   0.664  13.665  0.9468  0.8730 -1.8513
 3357TIP3    H231487   6.336   0.537  13.691 -2.5477 -0.7404  1.7592
 3358TIP3   OH231488   5.767   0.994  16.311 -0.0404 -0.0782  0.9163
 3358TIP3    H131489   5.678   1.019  16.338  0.3965 -0.3280  2.6998
 3358TIP3    H231490   5.814   1.077  16.303  0.1523 -0.0352  2.2368
 3359TIP3   OH231491   6.205   2.890  14.496  0.2140 -0.7752  1.0001
 3359TIP3    H131492   6.239   2.801  14.493  1.2993 -0.4029  1.7155
 3359TIP3    H231493   6.199   2.910  14.590 -1.8842 -0.7690  0.9206
 3360TIP3   OH231494   2.183   3.341   4.462 -0.2187 -0.7794  0.1396
 3360TIP3    H131495   2.226   3.401   4.400  1.0762 -0.4768  1.3003
 3360TIP3    H231496   2.214   3.368   4.548 -2.3058 -0.9322  1.0036
 3361TIP3   OH231497   6.096   5.411  16.489 -0.0153 -0.0591 -0.3668
 3361TIP3    H131498   6.009   5.418  16.451  0.7017 -0.3137 -2.1930
 3361TIP3    H231499   6.141   5.490  16.458  1.0504 -1.0106 -1.3682
 3362TIP3   OH231500   5.254   5.275  14.616 -0.7677  0.5919 -0.5042
 3362TIP3    H131501   5.299   5.300  14.697 -0.4115 -0.3485 -0.3923
 3362TIP3    H231502   5.184   5.339  14.606 -0.6594  0.8663  0.4182
 3363TIP3   OH231503   5.425   4.563   2.281  0.1242 -0.1015  0.2926
 3363TIP3    H131504   5.364   4.532   2.215  0.1074 -1.8179  1.0658
 3363TIP3    H231505   5.369   4.597   2.352  0.1399  1.3486 -0.3476
 3364TIP3   OH231506   1.659   4.455  12.853 -0.4877  0.0566  0.1801
 3364TIP3    H131507   1.740   4.507  12.855 -0.6687  0.6045 -2.7575
 3364TIP3    H231508   1.670   4.391  12.924  1.4260  1.6259  1.4211
 3365TIP3   OH231509   3.059   2.459   3.671 -0.6132 -0.1235 -0.0431
 3365TIP3    H131510   2.971   2.427   3.648 -0.8877  0.0344  0.7730
 3365TIP3    H231511   3.118   2.395   3.630 -1.1221 -0.6625  0.0397
 3366TIP3   OH231512   3.832   4.550   4.010 -0.1399 -0.3599  0.0445
 3366TIP3    H131513   3.817   4.553   3.915 -2.5315 -1.1195  0.3433
 3366TIP3    H231514   3.811   4.639   4.040  1.1134  0.0273 -0.1611
 3367TIP3   OH231515   4.096   3.157   6.065  0.1610 -0.7355 -0.2282
 3367TIP3    H131516   4.073   3.229   6.123 -1.2562 -0.4988 -1.0462
 3367TIP3    H231517   4.113   3.199   5.980  4.0491 -0.8333  0.2907
 3368TIP3   OH231518   6.745   2.130   2.541  0.0994  0.3339  0.0908
 3368TIP3    H131519   6.756   2.130   2.636  0.4344 -0.2105  0.0565
 3368TIP3    H231520   6.835   2.127   2.506 -0.0121  0.7455 -0.2448
 3369TIP3   OH231521   0.793   3.063  12.911  0.4372 -0.6404 -0.4884
 3369TIP3    H131522   0.812   3.156  12.927 -1.4702 -0.7172  3.1253
 3369TIP3    H231523   0.776   3.059  12.817 -0.1116  2.8416 -0.6786
 3370TIP3   OH231524   6.167   0.889  15.971 -0.0292 -0.2717 -0.0838
 3370TIP3    H131525   6.147   0.851  16.057 -2.3766 -1.4598 -1.0633
 3370TIP3    H231526   6.212   0.819  15.924  0.4798  0.0804 -0.1295
 3371TIP3   OH231527   5.562   1.842   5.894  0.1413  0.5945  0.1296
 3371TIP3    H131528   5.588   1.910   5.956  0.6898  1.0852 -0.6162
 3371TIP3    H231529   5.523   1.773   5.949  2.9073 -0.1468  1.3585
 3372TIP3   OH231530   1.592   3.946   3.301 -0.1640 -0.2386  0.2486
 3372TIP3    H131531   1.592   4.024   3.356 -1.0654 -0.0984  0.0675
 3372TIP3    H231532   1.552   3.878   3.356 -1.8958  0.1269 -0.5111
 3373TIP3   OH231533   3.149   5.610   1.039 -0.2731 -0.4645  0.6492
 3373TIP3    H131534   3.196   5.675   1.092 -0.8787  0.2859  0.2866
 3373TIP3    H231535   3.209   5.590   0.968 -1.0084  1.5956 -0.6405
 3374TIP3   OH231536   3.809   1.977   4.110  0.2547  0.1867  0.0785
 3374TIP3    H131537   3.732   1.979   4.166  0.4568  0.5404  0.3517
 3374TIP3    H231538   3.789   2.040   4.040 -0.3089 -0.8112 -0.6737
 3375TIP3   OH231539   5.950   5.647   1.393  0.0701  0.2369  0.1159
 3375TIP3    H131540   6.030   5.678   1.435  0.4282 -2.2672  1.4529
 3375TIP3    H231541   5.879   5.678   1.450  0.4405 -1.4845  1.6109
 3376TIP3   OH231542   4.951   2.247   6.166  0.1763  0.4860  0.1957
 3376TIP3    H131543   4.916   2.193   6.237  2.2989 -0.3535  0.6841
 3376TIP3    H231544   4.917   2.207   6.086 -0.4087  0.0305  0.6650
 3377TIP3   OH231545   2.155   6.495   0.126 -0.5603  0.1733 -0.3075
 3377TIP3    H131546   2.072   6.500   0.173  0.2807 -0.3497  1.3324
 3377TIP3    H231547   2.219   6.472   0.194  0.6963 -0.7918 -1.7533
 3378TIP3   OH231548   2.055   2.942   2.929 -0.2912  0.1771 -0.0399
 3378TIP3    H131549   2.128   2.992   2.893  0.3739  0.3657  1.4851
 3378TIP3    H231550   2.003   3.007   2.976 -0.8016 -0.1507 -0.1511
 3379TIP3   OH231551   4.031   0.636   1.541  0.5081 -0.2991 -0.0399
 3379TIP3    H131552   4.059   0.555   1.585  0.3563  0.6497  1.8992
 3379TIP3    H231553   4.091   0.703   1.573  0.1655  0.5179 -1.0560
 3380TIP3   OH231554   6.110   5.098   2.502 -0.5259 -0.1872  0.0790
 3380TIP3    H131555   6.157   5.179   2.481 -0.8298 -0.0711 -0.1639
 3380TIP3    H231556   6.051   5.085   2.427  1.0449 -1.8033 -0.9687
 3381TIP3   OH231557   4.792   1.598  13.907 -0.6197  0.2136  0.2685
 3381TIP3    H131558   4.782   1.624  13.999 -0.5157  2.1500 -0.2178
 3381TIP3    H231559   4.706   1.567  13.881 -0.6827 -0.2311  0.9807
 3382TIP3   OH231560   4.150   1.456   5.084 -0.0691 -0.4816 -0.0777
 3382TIP3    H131561   4.148   1.547   5.055 -0.2177 -0.1864  0.8576
 3382TIP3    H231562   4.243   1.432   5.081 -0.0129 -0.2549 -0.1836
 3383TIP3   OH231563   3.427   1.907  16.771  1.1230 -0.2060  0.1898
 3383TIP3    H131564   3.407   1.813  16.774  0.2011 -0.0637 -0.6583
 3383TIP3    H231565   3.455   1.921  16.680 -0.5282  0.6415 -0.2287
 3384TIP3   OH231566   4.626   2.840  12.836  0.4899 -0.4402  0.1265
 3384TIP3    H131567   4.674   2.903  12.889  1.9649 -1.3059 -0.1412
 3384TIP3    H231568   4.599   2.772  12.897  0.3154 -0.3739  0.1260
 3385TIP3   OH231569   5.192   1.712   5.081  0.1550 -0.1312 -0.1926
 3385TIP3    H131570   5.102   1.735   5.103  0.1418  0.5591 -0.9346
 3385TIP3    H231571   5.246   1.774   5.131  0.1613  0.5703 -1.0513
 3386TIP3   OH231572   5.869   1.392  16.553  0.0800 -0.5864  0.0243
 3386TIP3    H131573   5.943   1.333  16.540  1.6750  0.8241  2.0472
 3386TIP3    H231574   5.835   1.370  16.639 -0.4410  0.2499  0.0481
 3387TIP3   OH231575   1.964   5.959   4.269 -0.6961  0.2937 -0.4993
 3387TIP3    H131576   2.051   5.992   4.246 -0.5940  0.0665 -0.4383
 3387TIP3    H231577   1.979   5.902   4.344 -0.8752  0.1218 -0.5934
 3388TIP3   OH231578   3.308   4.341   2.169 -0.6473 -0.5092 -0.4089
 3388TIP3    H131579   3.250   4.413   2.147 -1.0632 -1.2374 -1.8256
 3388TIP3    H231580   3.322   4.349   2.263 -2.7035 -0.0569 -0.0967
 3389TIP3   OH231581   4.589   4.098   2.782 -0.7392 -0.3785 -0.4544
 3389TIP3    H131582   4.571   4.179   2.734  0.9291 -0.1546 -0.7642
 3389TIP3    H231583   4.549   4.029   2.728 -3.0983  0.2705  0.3505
 3390TIP3   OH231584   4.353   1.828   2.641  0.1939 -0.1454 -0.0715
 3390TIP3    H131585   4.378   1.814   2.733 -0.7714 -0.2582  0.1805
 3390TIP3    H231586   4.437   1.840   2.596  0.8783 -2.6975  0.3548
 3391TIP3   OH231587   4.482   5.776   4.474  0.1573  0.1120  0.6289
 3391TIP3    H131588   4.530   5.694   4.473  1.1379  0.6702 -0.5387
 3391TIP3    H231589   4.538   5.837   4.426 -1.0149  1.2006  0.5930
 3392TIP3   OH231590   2.641   4.265  15.365 -0.7173  0.6552 -0.1833
 3392TIP3    H131591   2.590   4.291  15.289  0.1010  1.2919 -0.5262
 3392TIP3    H231592   2.729   4.246  15.331 -1.3104 -3.0376 -0.0505
 3393TIP3   OH231593   0.087   4.668  10.882 -0.2463 -0.1068  0.3932
 3393TIP3    H131594   0.015   4.732  10.884 -0.2486 -0.0985  0.1218
 3393TIP3    H231595   0.068   4.615  10.805 -0.4101 -0.6294  0.7908
 3394TIP3   OH231596   1.098   2.834  12.692  0.0083  0.0460  0.9515
 3394TIP3    H131597   1.155   2.768  12.651  0.5693  0.1590  1.5414
 3394TIP3    H231598   1.148   2.915  12.689  0.4067 -0.1096  2.5830
 3395TIP3   OH231599   2.368   4.630  12.636  0.3175  0.0834 -0.4904
 3395TIP3    H131600   2.327   4.608  12.552 -0.4044  0.6047 -0.2840
 3395TIP3    H231601   2.336   4.563  12.696  0.9061 -0.3428 -0.6431
 3396TIP3   OH231602   5.106   5.084   5.797  0.5307  0.2056  0.4710
 3396TIP3    H131603   5.056   5.055   5.720  1.8831 -0.2210 -0.2863
 3396TIP3    H231604   5.136   5.172   5.774 -0.2356  0.6506  1.1207
 3397TIP3   OH231605   4.141   1.216   4.895 -0.0326 -0.5422  0.5942
 3397TIP3    H131606   4.098   1.283   4.950  0.1099  0.4101 -0.4274
 3397TIP3    H231607   4.110   1.133   4.931  0.0929  0.0460  2.1502
 3398TIP3   OH231608   2.860   6.102   4.081 -0.1075  0.2134  0.2873
 3398TIP3    H131609   2.916   6.179   4.078 -1.1406  0.9999  0.7698
 3398TIP3    H231610   2.790   6.125   4.142 -0.1983 -1.2698  0.7710
 3399TIP3   OH231611   2.085   2.797   1.993 -0.2004  0.5054 -0.4784
 3399TIP3    H131612   2.033   2.822   1.917 -1.4434  3.0001  1.0511
 3399TIP3    H231613   2.141   2.873   2.011 -1.6117  1.0199  2.3656
 3400TIP3   OH231614   4.021   1.158  15.413  0.1891  0.2513 -0.3519
 3400TIP3    H131615   3.950   1.211  15.450  0.8423 -0.4601  2.0906
 3400TIP3    H231616   4.045   1.204  15.333 -1.3824  1.8785  0.0283
 3401TIP3   OH231617   0.325   3.966   2.560 -0.3557  0.0175  0.0339
 3401TIP3    H131618   0.341   4.034   2.496 -0.2314  1.2332  1.3061
 3401TIP3    H231619   0.258   3.910   2.521  0.0022  0.4838 -1.2889
 3402TIP3   OH231620   1.430   0.396  14.428 -0.0618 -0.0727 -0.5034
 3402TIP3    H131621   1.455   0.454  14.357  1.1208  1.4343  1.0485
 3402TIP3    H231622   1.343   0.425  14.455  0.6231  1.2365  0.4284
 3403TIP3   OH231623   6.586   6.542  14.639 -0.4308  0.1453 -0.4855
 3403TIP3    H131624   6.553   6.453  14.653  1.1311 -1.0083 -3.2417
 3403TIP3    H231625   6.510   6.599  14.656 -1.6203 -1.7161  0.8383
 3404TIP3   OH231626   2.516   5.819   1.637 -0.2302 -0.0189 -0.0014
 3404TIP3    H131627   2.461   5.881   1.685  0.6974 -0.2585  1.4451
 3404TIP3    H231628   2.553   5.763   1.705  1.0569 -0.4612 -1.0304
 3405TIP3   OH231629   6.535   4.511   3.658  0.5410  0.6090  0.6773
 3405TIP3    H131630   6.582   4.539   3.737  4.7511  0.7888 -1.5893
 3405TIP3    H231631   6.523   4.417   3.669  1.1907  0.6109  1.4908
 3406TIP3   OH231632   3.765   5.454   4.166  0.4808 -0.5433 -0.4808
 3406TIP3    H131633   3.815   5.497   4.235  1.0523  1.1468 -1.8876
 3406TIP3    H231634   3.803   5.487   4.085 -0.5719 -2.0095 -1.6225
 3407TIP3   OH231635   5.590   1.736   4.795  0.3489 -0.4702  0.4771
 3407TIP3    H131636   5.569   1.644   4.781  3.9226 -1.3306 -0.3521
 3407TIP3    H231637   5.567   1.752   4.886  0.7293 -2.5763  1.0047
 3408TIP3   OH231638   2.032   0.609  15.111  0.0452  0.1556 -0.1541
 3408TIP3    H131639   2.041   0.617  15.016 -0.8382  0.1134 -0.2473
 3408TIP3    H231640   1.998   0.521  15.124 -3.3791  1.3437 -0.0867
 3409TIP3   OH231641   1.674   2.773   3.167  0.1952  0.4822  0.3208
 3409TIP3    H131642   1.597   2.790   3.222  0.8701 -0.3337  1.5625
 3409TIP3    H231643   1.743   2.825   3.208  0.4441  0.7639 -0.4522
 3410TIP3   OH231644   4.694   1.699   2.612  0.2222 -0.3920 -0.3429
 3410TIP3    H131645   4.678   1.725   2.521 -3.6472 -0.6994  0.0618
 3410TIP3    H231646   4.672   1.777   2.663  1.4738 -0.5034  0.3961
 3411TIP3   OH231647   4.882   4.707  15.063 -0.5359 -0.4603  0.5130
 3411TIP3    H131648   4.931   4.653  15.002 -1.6356  0.4781 -1.2744
 3411TIP3    H231649   4.790   4.682  15.049 -1.1563  2.1956 -0.8393
 3412TIP3   OH231650   3.651   2.781  15.119 -0.4057 -0.2150 -0.5563
 3412TIP3    H131651   3.573   2.813  15.073 -1.6287  1.0600  2.1846
 3412TIP3    H231652   3.724   2.803  15.062 -1.5813  3.6166 -0.8164
 3413TIP3   OH231653   3.490   2.697  12.108 -0.8012 -0.3512 -0.1571
 3413TIP3    H131654   3.410   2.749  12.103 -1.2310 -1.0106 -0.3739
 3413TIP3    H231655   3.523   2.695  12.018 -0.2854  0.2993  0.0117
 3414TIP3   OH231656   0.615   5.701  12.196  0.2055  0.2267 -0.2729
 3414TIP3    H131657   0.706   5.703  12.165 -0.0400 -0.2961 -1.0595
 3414TIP3    H231658   0.623   5.700  12.291  0.9974  1.1378 -0.3134
 3415TIP3   OH231659   2.328   4.625  13.092  0.0994  0.4656  0.2932
 3415TIP3    H131660   2.420   4.627  13.064 -0.8944  0.6361 -3.5378
 3415TIP3    H231661   2.326   4.560  13.162  3.0317 -0.0293  0.0590
 3416TIP3   OH231662   5.402   3.722  16.916 -0.1531  0.4188  0.0298
 3416TIP3    H131663   5.452   3.757  16.842 -1.9910  1.9521 -0.5842
 3416TIP3    H231664   5.311   3.733  16.890 -0.8601 -1.9507  1.2446
 3417TIP3   OH231665   2.802   6.556   5.682  0.4002 -0.1107 -0.0645
 3417TIP3    H131666   2.729   6.592   5.631  0.1947  0.5636  0.6770
 3417TIP3    H231667   2.761   6.500   5.747  0.4552  0.9123  0.8837
 3418TIP3   OH231668   6.472   1.518   2.265  0.3817 -0.1871  0.4853
 3418TIP3    H131669   6.533   1.577   2.308  0.7804  0.4979 -0.9695
 3418TIP3    H231670   6.507   1.506   2.177 -0.4090 -1.5434  0.3243
 3419TIP3   OH231671   4.959   5.222  15.998  0.2423 -0.4739  0.2040
 3419TIP3    H131672   4.991   5.291  16.056 -1.9037  1.3414 -0.6543
 3419TIP3    H231673   5.039   5.187  15.958  1.4056  1.8903  0.2520
 3420TIP3   OH231674   3.897   3.146   4.895  0.0277 -0.0904  0.0143
 3420TIP3    H131675   3.920   3.063   4.855 -0.0267 -0.9502  1.6776
 3420TIP3    H231676   3.900   3.129   4.989 -0.8315  1.5575  0.3793
 3421TIP3   OH231677   6.642   6.212   1.017  0.0421  0.1220  0.5100
 3421TIP3    H131678   6.672   6.289   0.969  0.8662  0.0006  0.8035
 3421TIP3    H231679   6.556   6.236   1.050  0.0760  0.7274  0.1780
 3422TIP3   OH231680   3.058   0.234   6.391 -0.1529  0.1813  0.0573
 3422TIP3    H131681   3.111   0.311   6.408  0.8822 -0.5582  0.2773
 3422TIP3    H231682   2.968   0.266   6.394  0.2647  1.4442 -0.2400
 3423TIP3   OH231683   1.161   2.745   4.376  0.4350 -0.1800  0.2743
 3423TIP3    H131684   1.213   2.785   4.306  1.0638 -0.8069  0.3665
 3423TIP3    H231685   1.200   2.659   4.388  0.1868 -0.1681  1.2384
 3424TIP3   OH231686   2.706   6.148  12.213 -0.0297 -0.0532  0.0784
 3424TIP3    H131687   2.746   6.077  12.163 -0.3652  0.4610 -0.9516
 3424TIP3    H231688   2.613   6.127  12.213  0.0054 -0.2272  0.7966
 3425TIP3   OH231689   3.230   5.020  15.558 -0.3945  0.2092  0.2890
 3425TIP3    H131690   3.300   5.048  15.499 -0.6445 -0.6398 -0.4251
 3425TIP3    H231691   3.216   5.095  15.615 -0.3929  1.1975 -0.9621
 3426TIP3   OH231692   0.309   6.653   1.874 -0.4443 -0.1200 -0.5908
 3426TIP3    H131693   0.302   6.747   1.854 -1.2252 -0.3109 -1.2521
 3426TIP3    H231694   0.219   6.626   1.892 -0.2167 -0.7410 -0.3807
 3427TIP3   OH231695   2.435   6.502  14.972 -0.7254 -0.4626 -0.2801
 3427TIP3    H131696   2.444   6.584  15.020 -0.4079 -0.2735 -0.6508
 3427TIP3    H231697   2.503   6.446  15.009 -1.2193 -0.7074  0.2658
 3428TIP3   OH231698   0.380   1.817   3.424  0.1141  0.2107 -0.3248
 3428TIP3    H131699   0.339   1.901   3.441 -0.4176 -0.4899  2.3412
 3428TIP3    H231700   0.441   1.834   3.352 -1.0868  2.4709 -0.8960
 3429TIP3   OH231701   3.108   5.557   1.774 -0.5497 -0.2840  0.1660
 3429TIP3    H131702   3.091   5.501   1.698 -0.8866 -2.5098  1.7753
 3429TIP3    H231703   3.203   5.551   1.787 -0.5887 -0.5124  0.3509
 3430TIP3   OH231704   3.370   6.764  12.423 -0.3714  0.1078 -0.5567
 3430TIP3    H131705   3.274   6.767  12.427 -0.4869  0.0052 -2.2831
 3430TIP3    H231706   3.395   6.853  12.399  0.2812  1.1186  3.3199
 3431TIP3   OH231707   2.785   1.346  12.172 -0.2029  0.1546  0.4930
 3431TIP3    H131708   2.852   1.393  12.123 -0.5819 -1.3860 -1.6832
 3431TIP3    H231709   2.817   1.256  12.177 -1.7353 -0.4608  0.0187
 3432TIP3   OH231710   0.652   3.563   5.001 -0.1153  0.1761 -0.0596
 3432TIP3    H131711   0.713   3.496   5.032 -0.0568  0.5548  0.6640
 3432TIP3    H231712   0.657   3.632   5.067 -1.0552  0.3752 -0.1883
 3433TIP3   OH231713   1.393   3.601   1.637  0.4176  0.1213 -0.2967
 3433TIP3    H131714   1.353   3.682   1.668  1.0199 -0.5569  2.5017
 3433TIP3    H231715   1.487   3.616   1.643  0.5348 -0.8063  0.4017
 3434TIP3   OH231716   1.984   2.905  12.015  0.0597  0.6052  0.5554
 3434TIP3    H131717   1.903   2.910  11.963 -0.2931  1.5420  1.1651
 3434TIP3    H231718   1.996   2.812  12.032 -1.2305  0.4922  0.9597
 3435TIP3   OH231719   6.166   5.630   1.024  0.0525  0.5076 -0.1174
 3435TIP3    H131720   6.120   5.710   0.998 -0.4174  1.4804  3.1737
 3435TIP3    H231721   6.096   5.567   1.040  0.3468 -0.1830 -1.4268
 3436TIP3   OH231722   4.635   3.327  16.616 -0.1346  0.4950 -0.0263
 3436TIP3    H131723   4.714   3.298  16.571 -0.1812  1.5499 -0.7986
 3436TIP3    H231724   4.657   3.413  16.651 -0.7685  0.5533  0.2454
 3437TIP3   OH231725   2.530   1.592   0.411  0.4245  0.1575  0.1131
 3437TIP3    H131726   2.581   1.673   0.417 -0.8702  0.9101  1.5673
 3437TIP3    H231727   2.568   1.533   0.476 -0.2161  0.5428  0.8533
 3438TIP3   OH231728   1.289   2.352   5.184 -0.3444 -0.1262  0.1028
 3438TIP3    H131729   1.199   2.320   5.192 -0.1232 -0.6755  0.4420
 3438TIP3    H231730   1.340   2.293   5.239 -0.2170  2.0659  2.5521
 3439TIP3   OH231731   2.588   5.311   4.992  0.5404 -0.3906 -0.5655
 3439TIP3    H131732   2.630   5.397   4.985  1.4180 -0.8116 -0.5951
 3439TIP3    H231733   2.568   5.286   4.902  0.1244 -0.1449 -0.5436
 3440TIP3   OH231734   2.695   0.105  13.257  0.0209 -0.4941  0.2272
 3440TIP3    H131735   2.613   0.089  13.210 -0.0249  0.1006  0.0897
 3440TIP3    H231736   2.712   0.198  13.244 -0.2491 -0.1974  1.8089
 3441TIP3   OH231737   4.408   0.815  15.722  0.4297 -0.1969 -0.0098
 3441TIP3    H131738   4.325   0.768  15.716  0.4891 -0.6784  2.3631
 3441TIP3    H231739   4.385   0.898  15.764  1.0534 -0.0686  0.0812
 3442TIP3   OH231740   5.159   0.565   4.204  0.1956  0.1191 -0.0626
 3442TIP3    H131741   5.113   0.648   4.196  0.9121  0.4846 -0.5047
 3442TIP3    H231742   5.251   0.590   4.216  0.1309 -0.5482  2.3390
 3443TIP3   OH231743   6.667   3.319   4.568 -0.4042 -0.6052 -0.1922
 3443TIP3    H131744   6.750   3.345   4.608 -0.5532 -1.5839  0.8171
 3443TIP3    H231745   6.673   3.224   4.560 -1.2874 -0.6535 -0.4154
 3444TIP3   OH231746   5.769   5.352   3.434  0.2419 -0.3751  0.3093
 3444TIP3    H131747   5.741   5.260   3.430  0.6720 -0.5981  1.9581
 3444TIP3    H231748   5.766   5.381   3.343 -0.9978 -1.6885 -0.1192
 3445TIP3   OH231749   4.475   4.822   1.494  0.1511  0.8529  0.0384
 3445TIP3    H131750   4.380   4.809   1.487  0.0859  1.4113 -0.2234
 3445TIP3    H231751   4.513   4.751   1.443 -0.1308  0.7465 -0.0290
 3446TIP3   OH231752   0.650   1.738  15.955 -0.1677  0.3583 -0.3809
 3446TIP3    H131753   0.592   1.723  16.029 -0.8646 -0.0831 -1.0071
 3446TIP3    H231754   0.686   1.825  15.970 -0.5776  0.4215  0.2832
 3447TIP3   OH231755   0.192   4.254   2.523 -0.9588 -0.5430 -0.5054
 3447TIP3    H131756   0.279   4.215   2.517 -0.5073  0.4202 -0.3331
 3447TIP3    H231757   0.170   4.279   2.433 -1.0704 -0.8114 -0.5530
 3448TIP3   OH231758   1.183   1.835   2.316 -0.0442 -0.3499 -0.5918
 3448TIP3    H131759   1.234   1.912   2.342  0.2178 -0.1550 -1.6430
 3448TIP3    H231760   1.150   1.857   2.229 -0.8207 -1.0206 -0.4721
 3449TIP3   OH231761   5.326   3.648   2.999 -0.1305 -0.2471 -0.5727
 3449TIP3    H131762   5.303   3.699   3.077 -1.7820 -2.1022  0.2359
 3449TIP3    H231763   5.244   3.640   2.950  0.3313 -1.1497 -1.2340
 3450TIP3   OH231764   4.631   4.553  15.493  0.1242  0.0890  0.5502
 3450TIP3    H131765   4.559   4.531  15.551 -0.3055 -0.1880 -0.0703
 3450TIP3    H231766   4.602   4.522  15.407  1.9000 -2.1626  0.6536
 3451TIP3   OH231767   1.691   4.629  14.633  0.0686 -0.4100 -0.3540
 3451TIP3    H131768   1.713   4.694  14.566  2.5466 -1.0469 -0.2514
 3451TIP3    H231769   1.607   4.658  14.667 -0.8691  0.4089 -3.1194
 3452TIP3   OH231770   3.280   5.262   1.351 -0.2563 -0.0895  0.1521
 3452TIP3    H131771   3.300   5.170   1.332  2.3206  0.1778  1.2347
 3452TIP3    H231772   3.337   5.311   1.293 -1.0551  0.8570  0.1437
 3453TIP3   OH231773   1.081   2.775  16.148 -0.2969 -0.1399  0.0793
 3453TIP3    H131774   1.131   2.848  16.112 -0.8903  0.1472 -0.1692
 3453TIP3    H231775   1.055   2.804  16.236 -1.0511  0.1973 -0.2494
 3454TIP3   OH231776   3.288   0.617  11.771  0.6468 -0.0195  0.3268
 3454TIP3    H131777   3.348   0.556  11.728  0.4458  0.5461 -0.7877
 3454TIP3    H231778   3.211   0.563  11.793  0.6277 -0.2525 -0.3008
 3455TIP3   OH231779   2.344   3.235  14.581 -0.4643 -1.0249 -0.5979
 3455TIP3    H131780   2.399   3.313  14.591 -1.1027 -0.4350 -1.4435
 3455TIP3    H231781   2.364   3.181  14.657  1.2273 -0.8081 -0.8370
 3456TIP3   OH231782   5.404   0.635   4.780  0.3229 -0.1846  0.2720
 3456TIP3    H131783   5.406   0.713   4.836  2.1031  0.8271 -1.1122
 3456TIP3    H231784   5.407   0.669   4.691 -0.3141 -1.8179 -0.4128
 3457TIP3   OH231785   5.159   4.383   1.777  0.1033  0.1572 -0.0305
 3457TIP3    H131786   5.103   4.313   1.810 -0.2637  1.5794  2.6239
 3457TIP3    H231787   5.248   4.355   1.797 -0.0062  0.1740  0.4921
 3458TIP3   OH231788   1.310   4.605   2.039 -0.3418  0.5480  0.0649
 3458TIP3    H131789   1.320   4.699   2.053 -1.0071  0.4468  1.4925
 3458TIP3    H231790   1.398   4.574   2.020  0.4895  1.0201  2.7293
 3459TIP3   OH231791   5.247   2.794  15.757 -0.0784  0.2285  0.7653
 3459TIP3    H131792   5.190   2.871  15.766  0.0969  0.2539  1.7376
 3459TIP3    H231793   5.311   2.820  15.691 -0.2313  0.7960  0.8338
 3460TIP3   OH231794   0.510   5.600  14.694  0.2481 -0.0490  0.4169
 3460TIP3    H131795   0.446   5.548  14.645  0.4070 -0.2256  0.3943
 3460TIP3    H231796   0.457   5.656  14.751  0.0769 -0.2864  0.4921
 3461TIP3   OH231797   1.094   4.700   3.056 -0.2588  0.2564  0.0304
 3461TIP3    H131798   1.148   4.735   3.127  1.5566  0.3655 -1.3301
 3461TIP3    H231799   1.075   4.610   3.083  0.8908  0.1070  0.3992
 3462TIP3   OH231800   1.119   3.556   5.883  0.1081  0.0355 -0.1352
 3462TIP3    H131801   1.041   3.530   5.932 -0.6642  2.7291  0.2471
 3462TIP3    H231802   1.188   3.564   5.949 -0.0123  0.2665 -0.0360
 3463TIP3   OH231803   0.054   2.369  15.237 -0.0160  0.1137  0.5020
 3463TIP3    H131804   0.135   2.326  15.263  0.4974  0.4775 -0.4319
 3463TIP3    H231805   0.021   2.316  15.165 -0.3016  0.3031  0.4930
 3464TIP3   OH231806   6.012   4.629   3.171  0.4761 -0.1693  0.2227
 3464TIP3    H131807   5.988   4.601   3.260  1.6291  2.9494  1.6944
 3464TIP3    H231808   5.943   4.690   3.146  1.4757  0.9749  0.1523
 3465TIP3   OH231809   3.327   3.806  13.384 -0.1545 -0.5967  0.5099
 3465TIP3    H131810   3.326   3.758  13.301 -1.1333  0.7087 -0.2717
 3465TIP3    H231811   3.418   3.801  13.413  0.2950 -0.7884 -0.8396
 3466TIP3   OH231812   1.962   6.657  16.458  0.4582  0.2000 -0.1467
 3466TIP3    H131813   1.982   6.564  16.446 -1.8205 -0.2796 -0.8316
 3466TIP3    H231814   1.886   6.657  16.517  0.9850  1.6954  0.5797
 3467TIP3   OH231815   6.385   6.034   3.832  0.0486 -0.0244 -0.2389
 3467TIP3    H131816   6.298   6.011   3.866  0.7090  0.6164  2.0339
 3467TIP3    H231817   6.389   5.991   3.746 -2.3805 -0.3148 -0.2830
 3468TIP3   OH231818   5.950   0.474   0.504 -0.2446 -0.4153  0.5543
 3468TIP3    H131819   5.909   0.451   0.588 -1.3620 -0.5943 -0.0105
 3468TIP3    H231820   5.915   0.410   0.442 -0.9765  0.8700 -0.4338
 3469TIP3   OH231821   6.335   1.096  15.147  0.1310  0.2948 -0.1757
 3469TIP3    H131822   6.392   1.106  15.223  1.3468 -0.5173 -0.9596
 3469TIP3    H231823   6.353   1.173  15.093 -0.1043  0.4409 -0.0459
 3470TIP3   OH231824   4.119   0.597  16.268 -0.1646  0.6160 -0.5720
 3470TIP3    H131825   4.139   0.605  16.361  4.3372  0.0113 -1.2725
 3470TIP3    H231826   4.102   0.687  16.239 -0.9889  0.8750  0.6296
 3471TIP3   OH231827   0.894   4.572  13.078 -0.2410 -0.1376  0.4956
 3471TIP3    H131828   0.938   4.631  13.139 -0.6419 -1.1264  1.7822
 3471TIP3    H231829   0.933   4.487  13.094  1.2457 -0.0917 -2.2254
 3472TIP3   OH231830   1.376   2.579  13.805  0.3789 -0.0932  0.5592
 3472TIP3    H131831   1.288   2.543  13.798  1.0537 -1.8775  0.8114
 3472TIP3    H231832   1.401   2.598  13.715  0.1967 -0.7811  0.3542
 3473TIP3   OH231833   3.789   3.126   1.921 -0.0013 -0.2751 -0.2797
 3473TIP3    H131834   3.703   3.084   1.922 -0.0158 -0.3047 -1.4308
 3473TIP3    H231835   3.774   3.211   1.962 -0.0881 -1.1395  1.5758
 3474TIP3   OH231836   0.553   1.337   4.906  0.0486  0.1198  0.0494
 3474TIP3    H131837   0.622   1.306   4.964  0.6691  0.4212 -0.5163
 3474TIP3    H231838   0.542   1.268   4.841 -0.1224  0.1113  0.0866
 3475TIP3   OH231839   2.857   2.347   5.012 -0.0987 -0.0849  0.4511
 3475TIP3    H131840   2.844   2.418   4.949  1.9364 -0.2676 -0.2517
 3475TIP3    H231841   2.887   2.391   5.092  1.4346 -0.1073 -0.0688
 3476TIP3   OH231842   5.420   1.389  16.487 -0.0014  0.0444 -0.0799
 3476TIP3    H131843   5.495   1.441  16.460 -0.6470  0.3670 -1.2952
 3476TIP3    H231844   5.345   1.448  16.477 -0.8364 -1.2658 -2.1423
 3477TIP3   OH231845   4.546   4.230  14.363 -0.5719 -0.6109 -0.3190
 3477TIP3    H131846   4.554   4.309  14.417 -1.2422 -0.4166 -0.4973
 3477TIP3    H231847   4.573   4.159  14.421  2.1734 -0.0607 -0.8020
 3478TIP3   OH231848   5.993   1.640  16.761  0.3227 -0.4362 -0.0943
 3478TIP3    H131849   5.927   1.570  16.761 -0.2749  0.1238 -0.5552
 3478TIP3    H231850   6.055   1.614  16.693  0.3442 -0.7364  0.0369
 3479TIP3   OH231851   1.540   5.292  15.081 -0.2135 -0.2582  0.1553
 3479TIP3    H131852   1.602   5.294  15.008  0.3575 -1.4820  0.5736
 3479TIP3    H231853   1.581   5.233  15.145 -0.4888  1.0837  1.6588
 3480TIP3   OH231854   2.998   5.992  15.400 -0.6570  0.3861 -0.2669
 3480TIP3    H131855   3.031   6.079  15.379  2.4050 -0.6394 -0.2004
 3480TIP3    H231856   2.937   5.971  15.329 -0.5723  2.1048 -0.8911
 3481TIP3   OH231857   0.304   5.941   0.274  0.0368  0.0521 -0.2975
 3481TIP3    H131858   0.269   5.883   0.341 -0.1958  1.5897  0.9741
 3481TIP3    H231859   0.280   5.899   0.191  1.2507 -2.4429  0.5161
 3482TIP3   OH231860   5.611   2.454  12.154 -0.1403  0.7026  0.1088
 3482TIP3    H131861   5.533   2.478  12.105 -1.4915 -0.0278  1.7888
 3482TIP3    H231862   5.680   2.511  12.118 -1.6186  1.9986 -0.8356
 3483TIP3   OH231863   6.705   4.946  12.071 -0.2688  0.2296 -0.0158
 3483TIP3    H131864   6.796   4.954  12.043 -0.3918  3.3334  0.1051
 3483TIP3    H231865   6.678   4.859  12.043  2.0556  0.0871 -2.1001
 3484TIP3   OH231866   2.004   1.577  14.980 -0.2717 -0.4098 -0.3570
 3484TIP3    H131867   1.945   1.652  14.988  2.6268  1.9834  0.3819
 3484TIP3    H231868   2.061   1.583  15.057  0.7697 -2.7744 -0.8575
 3485TIP3   OH231869   4.278   2.290  15.006 -0.5979 -0.5877 -0.1216
 3485TIP3    H131870   4.368   2.261  15.022 -0.7275 -0.9014  0.0434
 3485TIP3    H231871   4.224   2.226  15.051 -1.0567 -2.3036 -2.8631
 3486TIP3   OH231872   3.574   1.277  10.851  0.0423  0.4007  0.3907
 3486TIP3    H131873   3.491   1.251  10.809  0.2253  0.3441  0.0603
 3486TIP3    H231874   3.582   1.218  10.926  0.0675  0.0189  0.0935
 3487TIP3   OH231875   0.729   5.111   1.772 -0.0586  0.0342  0.5367
 3487TIP3    H131876   0.819   5.140   1.759 -0.6506  0.9498 -2.0428
 3487TIP3    H231877   0.708   5.062   1.692 -1.9654  0.1148  0.9466
 3488TIP3   OH231878   2.058   3.563  16.865  0.0311 -0.1326  0.1296
 3488TIP3    H131879   2.036   3.476  16.831 -2.3707  0.1392  0.7771
 3488TIP3    H231880   2.110   3.546  16.944  0.5071 -0.9302 -0.3463
 3489TIP3   OH231881   5.847   6.588  16.020  0.0034  0.5673 -0.3329
 3489TIP3    H131882   5.841   6.597  15.925  0.5510  1.3778 -0.3012
 3489TIP3    H231883   5.896   6.665  16.049  2.9060 -1.3290  0.2432
 3490TIP3   OH231884   5.822   4.174  14.239  0.1700  0.3900  0.5032
 3490TIP3    H131885   5.881   4.248  14.251 -0.1233  1.2327 -2.5076
 3490TIP3    H231886   5.742   4.212  14.203 -0.1116 -1.2942 -0.8225
 3491TIP3   OH231887   0.569   0.903   4.986 -0.5292 -0.3447  0.3081
 3491TIP3    H131888   0.552   0.864   5.071  1.9461  0.1008  1.0914
 3491TIP3    H231889   0.659   0.878   4.965 -0.8773  0.0404 -1.9292
 3492TIP3   OH231890   0.871   2.415  13.132 -0.8030  0.6276 -0.1605
 3492TIP3    H131891   0.845   2.338  13.183  1.2746  1.0789  1.7485
 3492TIP3    H231892   0.888   2.381  13.045  0.8294 -1.3049  0.8172
 3493TIP3   OH231893   2.922   3.196  16.908 -0.2135  0.0763  0.2743
 3493TIP3    H131894   2.843   3.218  16.857 -0.3063  0.6644  0.6554
 3493TIP3    H231895   2.906   3.108  16.941 -1.0373  0.4635  0.9488
 3494TIP3   OH231896   0.734   0.333   4.275 -0.1213  0.2865  0.2020
 3494TIP3    H131897   0.644   0.328   4.241 -0.4954 -1.3042  1.3216
 3494TIP3    H231898   0.739   0.419   4.317 -1.5138 -0.0505  1.1355
 3495TIP3   OH231899   4.734   1.937  16.676  0.0085  0.5027 -0.3521
 3495TIP3    H131900   4.756   2.024  16.642 -0.3594  1.0621  0.7774
 3495TIP3    H231901   4.772   1.876  16.613  2.0722  1.4560 -0.1172
 3496TIP3   OH231902   2.281   1.205   2.314 -0.2712 -0.0709  0.6661
 3496TIP3    H131903   2.334   1.192   2.235 -0.3577 -1.9622  0.8648
 3496TIP3    H231904   2.343   1.241   2.378  0.3221 -0.4808  0.3376
 3497TIP3   OH231905   4.989   3.581   0.747  0.3483 -0.4529 -0.2720
 3497TIP3    H131906   4.960   3.634   0.821 -0.6222  0.9191 -1.5828
 3497TIP3    H231907   5.068   3.625   0.716 -1.7460  1.8362 -2.8550
 3498TIP3   OH231908   2.756   3.389   4.162  0.3320  0.4109 -0.7947
 3498TIP3    H131909   2.764   3.426   4.074  1.0691 -0.5502 -1.1534
 3498TIP3    H231910   2.662   3.377   4.175 -0.0890  3.3468 -0.2209
 3499TIP3   OH231911   0.368   0.771  13.570  0.0533  0.1690  0.1504
 3499TIP3    H131912   0.318   0.785  13.651  0.7296 -3.0458  1.2605
 3499TIP3    H231913   0.301   0.747  13.506 -0.1938 -0.4254  0.6191
 3500TIP3   OH231914   5.701   4.110  13.234  0.7263  0.1877 -0.3011
 3500TIP3    H131915   5.662   4.091  13.319  1.2965  1.1987  0.2044
 3500TIP3    H231916   5.659   4.048  13.174  1.0114 -1.2062  0.8742
 3501TIP3   OH231917   2.980   0.857  16.196 -0.1464 -0.1353 -0.4508
 3501TIP3    H131918   2.901   0.826  16.240  0.0159  0.2328  0.1059
 3501TIP3    H231919   3.008   0.933  16.247 -0.6614  1.0841 -1.9065
 3502TIP3   OH231920   0.857   0.778  12.850  0.0272  0.1993  0.1772
 3502TIP3    H131921   0.913   0.849  12.883  0.2676 -0.5372  1.4541
 3502TIP3    H231922   0.768   0.807  12.868 -0.0156  1.2251 -1.5398
 3503TIP3   OH231923   0.271   3.294   3.527  0.3183 -0.7498 -0.2867
 3503TIP3    H131924   0.345   3.343   3.493  0.6911 -2.1137 -1.5426
 3503TIP3    H231925   0.309   3.231   3.588 -0.0960  0.1066  0.8951
 3504TIP3   OH231926   4.400   2.435  14.076  0.4691 -0.8241 -0.3514
 3504TIP3    H131927   4.370   2.518  14.039  2.4702  0.1963  0.2037
 3504TIP3    H231928   4.362   2.368  14.018  0.9768  0.5845 -2.4009
 3505TIP3   OH231929   1.786   1.973   2.348 -0.5381 -0.2377 -0.5067
 3505TIP3    H131930   1.704   1.942   2.311 -1.4451  1.6828 -0.2659
 3505TIP3    H231931   1.759   2.035   2.416  1.1035  0.8178 -0.7599
 3506TIP3   OH231932   4.530   1.261   5.459  0.5635 -0.1700 -0.2393
 3506TIP3    H131933   4.520   1.353   5.434  1.3126 -0.2415 -0.8454
 3506TIP3    H231934   4.546   1.215   5.377 -2.0568 -1.2202 -0.2441
 3507TIP3   OH231935   4.114   2.480   3.159 -0.1622  0.2952  0.1737
 3507TIP3    H131936   4.146   2.547   3.098 -1.7555  0.4256 -0.5662
 3507TIP3    H231937   4.180   2.410   3.154  0.3345  0.8076 -0.7984
 3508TIP3   OH231938   6.185   3.076  12.202 -0.7686 -0.4184  0.2169
 3508TIP3    H131939   6.257   3.014  12.215 -0.7797 -0.3418  0.6522
 3508TIP3    H231940   6.168   3.112  12.289 -0.2362  0.7897 -0.1540
 3509TIP3   OH231941   2.579   3.152  11.141  0.1035 -0.1451  0.3718
 3509TIP3    H131942   2.521   3.180  11.070 -1.4783 -2.1000  0.7794
 3509TIP3    H231943   2.617   3.070  11.110 -0.1597 -0.7240  1.5167
 3510TIP3   OH231944   4.326   5.234   3.244 -0.3092 -0.6501  0.2073
 3510TIP3    H131945   4.256   5.278   3.292  0.6763  0.7989  0.3862
 3510TIP3    H231946   4.355   5.164   3.303  0.7063  0.9334  1.6986
 3511TIP3   OH231947   4.644   1.792   3.435  0.2956  0.2429 -0.2758
 3511TIP3    H131948   4.644   1.858   3.504 -0.5482  1.1399 -1.1020
 3511TIP3    H231949   4.642   1.709   3.481  3.6844  0.6537  0.8567
 3512TIP3   OH231950   3.411   2.121  15.026 -0.3524  0.2771 -0.9567
 3512TIP3    H131951   3.498   2.150  15.055 -0.3416  1.1120 -1.7907
 3512TIP3    H231952   3.409   2.140  14.933 -0.7347 -1.5236 -1.3438
 3513TIP3   OH231953   0.590   4.747   3.893  0.1094  0.0408  0.7202
 3513TIP3    H131954   0.519   4.811   3.893  0.4199  0.3852  1.3683
 3513TIP3    H231955   0.644   4.771   3.818 -0.7636 -0.5824 -0.1438
 3514TIP3   OH231956   4.251   0.360  16.235  0.5007 -0.2592 -0.2661
 3514TIP3    H131957   4.238   0.454  16.250 -1.2104 -0.1055 -2.2848
 3514TIP3    H231958   4.319   0.356  16.167  2.2950 -0.6389  1.4511
 3515TIP3   OH231959   4.100   0.776   4.370  0.0019  0.1320  0.4229
 3515TIP3    H131960   4.060   0.779   4.283  1.7342 -2.3038 -0.5840
 3515TIP3    H231961   4.108   0.682   4.389  2.4080  0.5446  1.8404
 3516TIP3   OH231962   6.526   0.873  11.432  0.1225 -0.3863 -0.3856
 3516TIP3    H131963   6.553   0.794  11.384  0.4571 -0.9215  0.6510
 3516TIP3    H231964   6.606   0.925  11.437  0.3282 -0.7627  0.3898
 3517TIP3   OH231965   5.329   5.733   3.782  0.0755  1.0678 -0.2811
 3517TIP3    H131966   5.303   5.749   3.872 -2.0719  1.4255 -0.9048
 3517TIP3    H231967   5.290   5.648   3.760  1.9018  0.2142 -0.4446
 3518TIP3   OH231968   3.070   2.308   2.429 -0.0316 -0.2865 -0.3123
 3518TIP3    H131969   3.028   2.361   2.362 -0.4769  0.7635  0.7607
 3518TIP3    H231970   3.151   2.355   2.450 -1.0631  0.7432  1.5866
 3519TIP3   OH231971   4.938   2.571   2.655  0.3409  0.2212  0.1944
 3519TIP3    H131972   4.964   2.491   2.609  0.9564 -0.3442  1.4805
 3519TIP3    H231973   4.974   2.642   2.602 -0.7314 -0.3028 -1.2922
 3520TIP3   OH231974   1.334   0.715   3.938 -0.2321 -0.2642 -0.2614
 3520TIP3    H131975   1.320   0.642   3.878 -3.2999 -0.3980  0.4580
 3520TIP3    H231976   1.347   0.673   4.023 -0.1080 -0.0016 -0.1500
 3521TIP3   OH231977   4.044   4.182  11.621  0.3188  0.0713 -0.0247
 3521TIP3    H131978   3.963   4.140  11.592 -1.1654  1.0132  2.4297
 3521TIP3    H231979   4.093   4.112  11.664 -0.3619 -0.0214  0.6352
 3522TIP3   OH231980   0.446   3.914   4.436  0.4480 -0.1399 -0.6167
 3522TIP3    H131981   0.534   3.888   4.410  0.1139 -1.1981 -0.7449
 3522TIP3    H231982   0.442   4.008   4.417  1.3210 -0.2189 -1.2563
 3523TIP3   OH231983   1.328   4.766   3.656  0.5233 -0.5662 -0.4165
 3523TIP3    H131984   1.261   4.710   3.618 -1.6350  1.3271  0.4025
 3523TIP3    H231985   1.380   4.796   3.581 -0.6044 -0.7093 -1.2796
 3524TIP3   OH231986   3.465   1.891   4.148 -0.6594 -0.2333  0.3604
 3524TIP3    H131987   3.480   1.981   4.119  0.2790 -0.0401  1.3562
 3524TIP3    H231988   3.447   1.842   4.068  0.6495  0.4855 -0.4098
 3525TIP3   OH231989   4.032   0.165  15.968  0.7054 -0.2080  0.2391
 3525TIP3    H131990   4.021   0.233  16.035  1.6167  3.1007 -2.6702
 3525TIP3    H231991   3.957   0.177  15.910  1.1924 -1.3739 -0.6660
 3526TIP3   OH231992   2.732   4.342   0.777 -0.4612 -0.6682 -0.1229
 3526TIP3    H131993   2.639   4.359   0.791 -0.6253 -1.5863 -0.0232
 3526TIP3    H231994   2.745   4.254   0.812  0.8157  0.0900  1.4589
 3527TIP3   OH231995   0.504   2.382   5.380 -0.0532 -0.5793 -0.6354
 3527TIP3    H131996   0.584   2.381   5.433 -1.1454  0.6433  1.1394
 3527TIP3    H231997   0.451   2.311   5.415 -1.2691  0.9564  0.8197
 3528TIP3   OH231998   5.586   0.902   0.133 -0.2919  0.3327 -1.0110
 3528TIP3    H131999   5.585   0.901   0.037  0.3826 -0.3264 -1.0268
 3528TIP3    H232000   5.672   0.865   0.156 -0.6930 -0.0998 -0.1508
 3529TIP3   OH232001   6.581   5.388  17.333 -0.7992  0.1121 -0.0145
 3529TIP3    H132002   6.517   5.317  17.340  1.9053 -2.3313  1.9779
 3529TIP3    H232003   6.556   5.449  17.402 -2.0165  0.1889 -0.4851
 3530TIP3   OH232004   4.074   5.316   3.380  0.1822 -0.0106 -0.7627
 3530TIP3    H132005   4.108   5.405   3.386  0.4110 -0.1302 -0.2100
 3530TIP3    H232006   4.070   5.285   3.471 -1.3445 -0.0345 -0.8152
 3531TIP3   OH232007   1.458   1.775  11.719  0.1356  0.6818 -0.0649
 3531TIP3    H132008   1.524   1.754  11.785 -0.8112  1.0026  1.0164
 3531TIP3    H232009   1.374   1.762  11.763 -0.5263  0.9214 -1.2017
 3532TIP3   OH232010   0.163   3.426  14.833 -0.5046 -0.0060 -0.0154
 3532TIP3    H132011   0.244   3.389  14.867 -0.5573  0.6350  0.8473
 3532TIP3    H232012   0.191   3.496  14.773 -0.3939  1.0222  1.1926
 3533TIP3   OH232013   3.362   1.365   3.607  0.0872 -0.3629 -0.6721
 3533TIP3    H132014   3.291   1.323   3.655 -0.1827  0.1751 -0.5894
 3533TIP3    H232015   3.422   1.395   3.676  0.6346 -1.2314 -0.7633
 3534TIP3   OH232016   2.137   0.129   5.503  0.2542 -0.2043 -0.4925
 3534TIP3    H132017   2.068   0.078   5.546  0.7677  1.3969  2.4416
 3534TIP3    H232018   2.126   0.218   5.536  2.3476  0.5942 -1.7255
 3535TIP3   OH232019   0.187   6.167   0.084 -0.8576  0.2952  0.0630
 3535TIP3    H132020   0.129   6.205   0.019  0.3572  1.9953 -0.0711
 3535TIP3    H232021   0.151   6.197   0.168 -1.7199 -0.9129  0.1598
 3536TIP3   OH232022   2.666   4.069  13.124 -0.3027  0.0344  0.2967
 3536TIP3    H132023   2.609   4.007  13.168 -1.5691  0.2444 -0.9809
 3536TIP3    H232024   2.611   4.146  13.108  1.1205  1.3558  1.4876
 3537TIP3   OH232025   2.909   0.259   6.724  0.1037 -0.8792 -0.0712
 3537TIP3    H132026   2.840   0.252   6.658  0.2483  0.0885 -0.3431
 3537TIP3    H232027   2.884   0.195   6.791 -0.0965 -1.7949 -1.0025
 3538TIP3   OH232028   4.184   3.681   3.023  0.4573  0.1008  0.0476
 3538TIP3    H132029   4.146   3.650   2.941  1.5546 -1.0690 -0.0472
 3538TIP3    H232030   4.124   3.649   3.090  0.5264 -0.5278 -0.1866
 3539TIP3   OH232031   1.781   4.834   2.841  0.2276 -0.1321  0.2553
 3539TIP3    H132032   1.782   4.916   2.792 -0.4591  0.9414  1.9593
 3539TIP3    H232033   1.723   4.776   2.791 -1.0173  1.1679  0.1571
 3540TIP3   OH232034   2.797   1.239  14.260 -0.0562 -0.0171  0.0383
 3540TIP3    H132035   2.709   1.264  14.234 -0.9661 -1.9121  1.1312
 3540TIP3    H232036   2.853   1.275  14.191 -1.8638 -0.3496 -1.6956
 3541TIP3   OH232037   2.792   5.603   2.219 -1.1603  0.1046  0.1826
 3541TIP3    H132038   2.818   5.598   2.127 -1.5620  1.9334 -0.0831
 3541TIP3    H232039   2.875   5.600   2.267 -0.8984 -0.1914 -0.2790
 3542TIP3   OH232040   1.904   0.694  14.380 -0.1312  0.2102 -0.0670
 3542TIP3    H132041   1.851   0.767  14.347 -2.4620 -0.8106  1.1420
 3542TIP3    H232042   1.878   0.619  14.325  1.5079  0.0387 -0.6627
 3543TIP3   OH232043   3.049   4.819   0.552 -0.0212  0.2825 -0.4744
 3543TIP3    H132044   2.966   4.853   0.586  0.7836  0.5465  1.3591
 3543TIP3    H232045   3.045   4.725   0.569  0.2548  0.3700  0.0933
 3544TIP3   OH232046   2.017   5.895  12.565  0.0489 -0.0796 -0.0349
 3544TIP3    H132047   2.034   5.838  12.491  0.2405  1.4336 -1.1964
 3544TIP3    H232048   2.076   5.863  12.634 -1.3013 -2.5306  0.0910
 3545TIP3   OH232049   0.271   4.761  14.690 -0.6285 -0.0317 -0.0562
 3545TIP3    H132050   0.184   4.798  14.680 -0.3593  0.7362  0.3274
 3545TIP3    H232051   0.328   4.818  14.639 -0.4551 -0.9976 -0.9694
 3546TIP3   OH232052   1.646   3.530  14.587  0.9863 -0.1254  0.3701
 3546TIP3    H132053   1.700   3.481  14.649  1.6971  0.3298  0.1225
 3546TIP3    H232054   1.590   3.463  14.547  3.0425 -1.0784 -1.1475
 3547TIP3   OH232055   3.309   1.278   2.894  0.1675  0.1929  0.2437
 3547TIP3    H132056   3.284   1.367   2.871  1.1604  0.3643 -0.2603
 3547TIP3    H232057   3.226   1.230   2.901 -0.3118  0.5934 -1.8733
 3548TIP3   OH232058   1.054   2.104  12.889  0.0715 -0.4479  0.1498
 3548TIP3    H132059   1.017   2.192  12.898 -0.8832 -0.7168 -0.9414
 3548TIP3    H232060   1.105   2.091  12.969  0.5436  1.2472  0.1580
 3549TIP3   OH232061   4.787   6.736   2.561  0.2370  0.0023  0.1191
 3549TIP3    H132062   4.693   6.718   2.561  0.2030  0.1075 -1.0188
 3549TIP3    H232063   4.818   6.703   2.646 -0.6957 -0.6962  0.2024
 3550TIP3   OH232064   1.418   0.453   1.225  0.5493  0.2255  0.3729
 3550TIP3    H132065   1.440   0.506   1.302  0.8706  1.5920 -0.6279
 3550TIP3    H232066   1.399   0.366   1.261 -1.0187  1.2332  2.2154
 3551TIP3   OH232067   5.341   0.937   2.561 -0.0814 -0.0632  0.6366
 3551TIP3    H132068   5.329   1.000   2.490  0.5217  0.7206  1.2044
 3551TIP3    H232069   5.253   0.923   2.596 -0.0351  1.7794  1.5798
 3552TIP3   OH232070   0.499   4.800  12.289  0.7537  0.6474  0.5568
 3552TIP3    H132071   0.427   4.778  12.348  0.8388  0.2245  0.5023
 3552TIP3    H232072   0.557   4.855  12.341 -0.0704  1.7744  0.3332
 3553TIP3   OH232073   2.971   5.489  13.593 -0.0710  0.1444  0.0572
 3553TIP3    H132074   3.017   5.571  13.613  0.3072  0.4563 -1.8761
 3553TIP3    H232075   2.982   5.435  13.672  1.0101  1.3504  0.7760
 3554TIP3   OH232076   5.599   3.943   2.645 -0.8525 -0.1472  0.4154
 3554TIP3    H132077   5.660   3.916   2.576 -1.1327  0.9214 -0.2840
 3554TIP3    H232078   5.556   3.862   2.672  0.4081 -0.8197  0.4799
 3555TIP3   OH232079   5.283   4.906  11.844 -0.2293 -0.3470  0.5530
 3555TIP3    H132080   5.246   4.886  11.758 -2.3479  2.6372  0.6193
 3555TIP3    H232081   5.241   4.843  11.903 -1.9045  0.1704 -0.0458
 3556TIP3   OH232082   3.990   4.282   4.522 -0.3101 -0.1846 -0.5495
 3556TIP3    H132083   3.924   4.339   4.482 -1.7164  0.8437  2.8899
 3556TIP3    H232084   3.939   4.217   4.570  1.0547  0.6552  2.2639
 3557TIP3   OH232085   6.106   5.154   5.194 -0.1191 -0.3145  0.0804
 3557TIP3    H132086   6.165   5.120   5.261  0.0843 -0.0335  0.0481
 3557TIP3    H232087   6.165   5.190   5.127 -0.3154 -1.0395 -0.4829
 3558TIP3   OH232088   4.045   0.609  14.635  0.2780 -0.1343 -0.1807
 3558TIP3    H132089   3.989   0.547  14.682 -0.5148  0.7621  0.0904
 3558TIP3    H232090   3.993   0.633  14.557  0.6926 -0.0177 -0.4229
 3559TIP3   OH232091   3.609   2.960   5.821  0.5477 -0.6240  0.1138
 3559TIP3    H132092   3.564   3.040   5.795  1.6416 -0.5949 -1.8826
 3559TIP3    H232093   3.539   2.901   5.849 -0.4912  0.3071 -0.4467
 3560TIP3   OH232094   1.713   4.342  12.500 -0.4586 -0.1263  0.2221
 3560TIP3    H132095   1.743   4.260  12.459 -2.2045 -0.3822 -0.6457
 3560TIP3    H232096   1.697   4.400  12.426 -2.1602 -0.0549  0.6112
 3561TIP3   OH232097   0.575   3.408   4.735  0.0012 -0.2571 -0.3653
 3561TIP3    H132098   0.622   3.442   4.811 -0.0858 -0.8308 -0.0470
 3561TIP3    H232099   0.550   3.485   4.685  1.3092  0.0694 -0.5665
 3562TIP3   OH232100   5.207   3.450   5.561  0.5495 -0.1186 -0.4144
 3562TIP3    H132101   5.261   3.520   5.524 -0.4962 -0.3956 -2.5581
 3562TIP3    H232102   5.207   3.382   5.495  0.5390 -1.6847  1.1365
 3563TIP3   OH232103   4.767   5.774  17.124 -0.0959  0.1863 -0.4151
 3563TIP3    H132104   4.772   5.688  17.083 -0.0942  0.1076 -0.2505
 3563TIP3    H232105   4.816   5.765  17.205 -0.0348  0.3637 -0.4314
 3564TIP3   OH232106   3.669   3.159  13.597  0.5065  0.9110  0.3818
 3564TIP3    H132107   3.645   3.250  13.578  0.5790  0.8121 -0.1843
 3564TIP3    H232108   3.611   3.134  13.669 -1.5026  0.5016 -1.2913
 3565TIP3   OH232109   1.001   3.859   0.060  0.7271 -0.4102  0.5164
 3565TIP3    H132110   1.045   3.783   0.099 -0.3709 -0.1938  2.2844
 3565TIP3    H232111   1.036   3.934   0.107  0.7627  0.0658 -0.2508
 3566TIP3   OH232112   5.326   4.297   1.186  0.3577  0.5339 -0.5988
 3566TIP3    H132113   5.257   4.233   1.199  0.4762  0.7402  1.2632
 3566TIP3    H232114   5.395   4.271   1.247  1.3529  1.1300 -1.4426
 3567TIP3   OH232115   0.276   6.389   1.381  0.6430  0.1507 -0.0961
 3567TIP3    H132116   0.326   6.332   1.323 -0.9030 -0.3806 -0.9606
 3567TIP3    H232117   0.185   6.368   1.362  0.0784  0.9185  1.6014
 3568TIP3   OH232118   1.622   2.119   2.547  0.5885  0.0656  0.5236
 3568TIP3    H132119   1.677   2.138   2.624 -0.2911 -1.3776  1.5617
 3568TIP3    H232120   1.550   2.182   2.553 -0.0956 -0.7616  1.5928
 3569TIP3   OH232121   3.673   1.764   5.782 -0.2297 -0.0499  0.4374
 3569TIP3    H132122   3.700   1.703   5.714  0.9323 -0.1908  0.9939
 3569TIP3    H232123   3.672   1.711   5.862 -0.2983  0.4129  0.7452
 3570TIP3   OH232124   5.587   0.458  17.295 -0.0572 -0.0272  0.1537
 3570TIP3    H132125   5.557   0.541  17.332 -1.1343 -0.1279 -0.4417
 3570TIP3    H232126   5.679   0.473  17.275 -0.0072  0.7227  0.8843
 3571TIP3   OH232127   2.022   2.985  12.583 -0.1427  0.6073 -0.0702
 3571TIP3    H132128   1.977   3.061  12.547 -0.7952 -0.1884 -0.9978
 3571TIP3    H232129   2.006   2.988  12.677 -2.2341  0.3045 -0.3800
 3572TIP3   OH232130   6.409   2.371   1.054 -0.3421  0.1748  0.2555
 3572TIP3    H132131   6.385   2.458   1.085  1.8855  0.6247  0.9417
 3572TIP3    H232132   6.357   2.310   1.107 -1.4577  1.0557  0.2032
 3573TIP3   OH232133   4.144   6.771  13.146 -0.2397  0.7891 -0.4399
 3573TIP3    H132134   4.221   6.825  13.167  0.2687 -0.0769 -0.0132
 3573TIP3    H232135   4.181   6.686  13.123 -1.0603  0.4950 -0.6717
 3574TIP3   OH232136   5.603   5.651  14.785 -0.5630  0.0387  0.1482
 3574TIP3    H132137   5.566   5.616  14.703  1.2333  1.1512 -1.2188
 3574TIP3    H232138   5.606   5.745  14.772 -0.4386  0.2524  1.6042
 3575TIP3   OH232139   5.906   0.711  16.662 -0.0967 -0.1273  0.3083
 3575TIP3    H132140   5.943   0.642  16.718  0.3743  0.2096  0.4085
 3575TIP3    H232141   5.812   0.691  16.659  0.1594 -1.3362 -0.4391
 3576TIP3   OH232142   6.333   1.611   6.078 -0.5042  0.2816  0.2699
 3576TIP3    H132143   6.337   1.679   6.011 -0.0192 -0.9102 -0.9621
 3576TIP3    H232144   6.374   1.651   6.155  0.6073  1.0921 -0.7015
 3577TIP3   OH232145   6.328   5.671   4.994  0.1421 -0.6639  0.1507
 3577TIP3    H132146   6.383   5.619   4.935 -1.6952 -1.4616 -0.9460
 3577TIP3    H232147   6.268   5.718   4.936 -0.0189  0.5910  1.2810
 3578TIP3   OH232148   3.211   2.967  17.191 -0.1727  0.4023  0.2824
 3578TIP3    H132149   3.230   2.883  17.149  0.0687 -0.1236  1.4022
 3578TIP3    H232150   3.118   2.983  17.173 -0.2707 -0.2049  0.2337
 3579TIP3   OH232151   3.423   5.083   6.385  0.1364  0.2397  0.5656
 3579TIP3    H132152   3.488   5.059   6.451  1.1474 -3.0738 -1.4302
 3579TIP3    H232153   3.474   5.110   6.309 -0.9712  1.2655  0.1482
 3580TIP3   OH232154   2.892   0.969  13.945 -0.1200  0.7059 -0.1783
 3580TIP3    H132155   2.905   1.046  14.001  2.5726 -0.6294  1.2363
 3580TIP3    H232156   2.888   1.005  13.857  0.4607  2.5319  0.4800
 3581TIP3   OH232157   3.516   3.928   2.755 -0.1275  0.3877 -0.2694
 3581TIP3    H132158   3.611   3.933   2.752 -0.1600  1.5423  0.0679
 3581TIP3    H232159   3.490   3.915   2.664  0.3363  0.4860 -0.4198
 3582TIP3   OH232160   3.752   0.302  11.122 -0.1601  0.5300 -0.0569
 3582TIP3    H132161   3.718   0.263  11.042  0.3709 -0.9541  0.4182
 3582TIP3    H232162   3.686   0.367  11.147 -0.5880  0.6427 -1.3883
 3583TIP3   OH232163   2.514   4.944  12.918 -0.0134  0.6384 -0.3217
 3583TIP3    H132164   2.551   4.863  12.881 -1.9742  0.7835 -2.8627
 3583TIP3    H232165   2.527   5.009  12.849 -1.7815  1.5362  0.1395
 3584TIP3   OH232166   2.540   5.643   6.721  0.2276 -0.4305  0.5662
 3584TIP3    H132167   2.490   5.565   6.697 -0.5088 -0.0690  0.8904
 3584TIP3    H232168   2.629   5.611   6.737  0.2587 -0.9915 -0.6089
 3585TIP3   OH232169   1.406   4.328   3.027 -0.3232 -1.1981  0.5454
 3585TIP3    H132170   1.401   4.232   3.024  0.7427 -1.2764  0.9087
 3585TIP3    H232171   1.323   4.355   3.068 -0.8043 -1.9328  0.0817
 3586TIP3   OH232172   5.836   6.520  11.438 -0.1835 -0.0614  0.1405
 3586TIP3    H132173   5.913   6.487  11.485  0.3087 -1.2383 -1.4130
 3586TIP3    H232174   5.854   6.614  11.428  0.8446 -0.2345  0.1953
 3587TIP3   OH232175   1.789   3.135   1.836 -0.1192  0.7378  0.4349
 3587TIP3    H132176   1.873   3.119   1.879 -0.7995 -0.4818  1.3779
 3587TIP3    H232177   1.725   3.091   1.892 -1.8379  4.1632  1.5168
 3588TIP3   OH232178   0.838   1.071   0.190  0.1357 -0.6642  0.0350
 3588TIP3    H132179   0.815   1.054   0.282 -0.9420 -0.4189 -0.1752
 3588TIP3    H232180   0.919   1.021   0.176  0.6477 -0.2314  1.2727
 3589TIP3   OH232181   4.135   2.052   5.078  0.0020  0.3531  0.3142
 3589TIP3    H132182   4.084   2.017   5.004 -0.0936  0.3185  0.3969
 3589TIP3    H232183   4.122   2.146   5.074 -0.4554  0.3073  0.6215
 3590TIP3   OH232184   0.666   2.997   3.769 -0.2807  0.8360  0.4215
 3590TIP3    H132185   0.625   2.912   3.786  0.6383  0.4901  1.0175
 3590TIP3    H232186   0.624   3.056   3.831  0.0417  0.5015  0.9713
 3591TIP3   OH232187   5.528   0.241  17.116  0.6950  0.4723 -0.6867
 3591TIP3    H132188   5.434   0.224  17.122  0.5280  0.6950 -2.2132
 3591TIP3    H232189   5.545   0.307  17.183 -0.2173  0.3567 -0.3296
 3592TIP3   OH232190   6.214   0.849   3.784  0.7601 -0.5994  0.0351
 3592TIP3    H132191   6.125   0.835   3.751  0.1323 -0.3768  1.5815
 3592TIP3    H232192   6.208   0.925   3.840  1.4113 -1.9084  1.9897
 3593TIP3   OH232193   2.491   3.517   2.445 -0.3053  0.1190 -0.1915
 3593TIP3    H132194   2.410   3.540   2.399 -0.3511 -2.3566 -1.5349
 3593TIP3    H232195   2.474   3.542   2.536 -2.0648  0.8619 -0.6796
 3594TIP3   OH232196   2.888   2.902  16.686  0.0516  0.3404 -0.1188
 3594TIP3    H132197   2.833   2.913  16.609 -0.8536  0.3644  0.5110
 3594TIP3    H232198   2.828   2.869  16.754  1.0506 -0.7980  0.2556
 3595TIP3   OH232199   3.231   3.319   2.999 -0.4409  0.5228  0.0740
 3595TIP3    H132200   3.267   3.300   3.085  0.8894 -0.8117 -0.7294
 3595TIP3    H232201   3.249   3.412   2.986  1.4089  0.2499  0.3536
 3596TIP3   OH232202   1.659   5.381  17.302 -0.6216  0.4113  0.1738
 3596TIP3    H132203   1.754   5.389  17.313 -0.7763  1.5165  0.8346
 3596TIP3    H232204   1.645   5.289  17.280  0.5873  0.1998  0.2382
 3597TIP3   OH232205   3.598   6.150  17.227  0.6435  0.8200  0.1586
 3597TIP3    H132206   3.556   6.068  17.252  0.0889  0.8546 -0.6225
 3597TIP3    H232207   3.691   6.128  17.220  0.6242  0.4915  0.8632
 3598TIP3   OH232208   0.389   4.401   3.279  0.6033 -0.1945  0.0742
 3598TIP3    H132209   0.484   4.387   3.275  0.6610 -1.6922  3.4688
 3598TIP3    H232210   0.353   4.334   3.220  1.6045 -0.7085  0.0196
 3599TIP3   OH232211   2.454   4.046   3.048 -0.5446  0.3596 -0.0236
 3599TIP3    H132212   2.453   4.010   3.137  0.6679 -0.2804 -0.2371
 3599TIP3    H232213   2.452   4.141   3.060  1.8441  0.3803  0.8307
 3600TIP3   OH232214   5.240   3.881   2.733 -0.3321  0.2179  0.3048
 3600TIP3    H132215   5.222   3.806   2.676 -1.3564  1.6139 -1.3108
 3600TIP3    H232216   5.157   3.897   2.778 -0.3032  0.7473  0.1740
 3601TIP3   OH232217   3.567   5.237   3.529 -0.2627  1.2735 -0.4145
 3601TIP3    H132218   3.551   5.328   3.553 -0.5384  1.2041 -0.3316
 3601TIP3    H232219   3.532   5.230   3.440  3.1846  2.2603 -2.0495
 3602TIP3   OH232220   3.446   1.210   4.281  0.4373  1.2257  0.0865
 3602TIP3    H132221   3.447   1.304   4.267  0.9297  1.2954  0.5975
 3602TIP3    H232222   3.359   1.182   4.251  0.3483  1.8145 -0.2050
 3603TIP3   OH232223   0.188   3.806  13.569 -0.7342 -0.0271  0.4790
 3603TIP3    H132224   0.253   3.801  13.640 -0.8239  0.8127  0.6371
 3603TIP3    H232225   0.105   3.784  13.612 -0.6554 -0.3981  0.4375
 3604TIP3   OH232226   5.457   1.903   1.503  0.3466  0.0915  0.1791
 3604TIP3    H132227   5.423   1.992   1.511  1.8379  0.8021 -0.8325
 3604TIP3    H232228   5.524   1.896   1.571  1.2464  0.2665 -0.6701
 3605TIP3   OH232229   5.830   3.604  16.733 -0.0857  0.0144 -0.0323
 3605TIP3    H132230   5.880   3.608  16.652 -0.5231 -0.5929 -0.3438
 3605TIP3    H232231   5.751   3.554  16.710  0.2348 -1.0111  1.0027
 3606TIP3   OH232232   5.238   0.173   0.189 -0.0542 -1.0636 -0.4548
 3606TIP3    H132233   5.180   0.203   0.120  1.1051  1.2415 -0.5312
 3606TIP3    H232234   5.279   0.253   0.223  1.1637 -2.3375  1.3035
 3607TIP3   OH232235   2.159   5.005   6.284  0.1821  0.2562 -0.2583
 3607TIP3    H132236   2.082   5.053   6.311  2.0663  1.8557  2.7606
 3607TIP3    H232237   2.133   4.913   6.287 -1.0087  0.5988  3.0590
 3608TIP3   OH232238   0.628   6.680  12.726 -0.1991  0.6164  0.7237
 3608TIP3    H132239   0.563   6.650  12.790 -1.9261 -2.5164 -2.1901
 3608TIP3    H232240   0.602   6.770  12.706 -3.1147 -0.1845  0.4277
 3609TIP3   OH232241   2.077   6.437   2.074  0.0073  0.1102 -0.5536
 3609TIP3    H132242   2.066   6.464   1.983 -1.8939  0.8151 -0.1435
 3609TIP3    H232243   1.991   6.446   2.113  0.7296 -0.4281  1.2752
 3610TIP3   OH232244   3.023   5.226  17.127 -0.2062 -0.7121 -0.2966
 3610TIP3    H132245   3.114   5.245  17.107  0.1052 -0.6739  1.1131
 3610TIP3    H232246   3.017   5.130  17.124 -0.2269 -0.7001 -0.7839
 3611TIP3   OH232247   3.808   0.488   1.818 -0.8491 -0.2871  0.2471
 3611TIP3    H132248   3.902   0.472   1.809 -1.0115 -0.0798 -2.6000
 3611TIP3    H232249   3.801   0.545   1.895  0.9264 -3.1978  2.8103
 3612TIP3   OH232250   1.292   0.201   3.866 -0.7290 -0.4323  0.3738
 3612TIP3    H132251   1.211   0.158   3.840 -0.1867 -0.6938 -0.9309
 3612TIP3    H232252   1.287   0.288   3.825 -0.3780 -0.4217  0.3516
 3613TIP3   OH232253   6.597   0.358  10.944  0.1301  0.3404 -0.4179
 3613TIP3    H132254   6.530   0.292  10.964 -1.6471  2.2791  0.3999
 3613TIP3    H232255   6.585   0.377  10.851  0.1454  0.0682 -0.4767
 3614TIP3   OH232256   0.588   2.058  15.382  0.0784  0.7466 -0.2298
 3614TIP3    H132257   0.611   1.998  15.452  1.3492  0.1146 -1.1616
 3614TIP3    H232258   0.632   2.140  15.405 -0.2148  0.7997  0.1445
 3615TIP3   OH232259   2.096   5.416   0.500 -0.2796  0.5829  0.3309
 3615TIP3    H132260   2.146   5.389   0.577  2.0140 -2.2903 -1.9308
 3615TIP3    H232261   2.026   5.352   0.492 -0.3860  0.7468 -0.0840
 3616TIP3   OH232262   0.874   1.701   1.056 -0.4973  0.7568 -0.0740
 3616TIP3    H132263   0.923   1.748   0.988 -0.0281  0.2231 -0.1055
 3616TIP3    H232264   0.880   1.609   1.031  0.4454  0.4668  1.1745
 3617TIP3   OH232265   6.518   5.321   5.004 -0.6211 -0.4079  0.1082
 3617TIP3    H132266   6.556   5.380   5.068  0.3520 -0.8914 -0.0004
 3617TIP3    H232267   6.512   5.373   4.924 -1.8436  0.1985  0.5569
 3618TIP3   OH232268   2.566   2.086   2.550 -0.7090  0.0872 -0.3863
 3618TIP3    H132269   2.487   2.112   2.597  0.6715  1.9304  1.0831
 3618TIP3    H232270   2.556   1.991   2.538 -2.9670  0.2209  0.0083
 3619TIP3   OH232271   6.110   1.254  13.706  0.1907 -0.1923 -0.2923
 3619TIP3    H132272   6.199   1.232  13.680 -0.1631 -1.1087 -0.7669
 3619TIP3    H232273   6.117   1.282  13.797  0.9882 -0.0266 -0.4009
 3620TIP3   OH232274   4.248   6.554   6.539  0.2220  0.3648  0.1006
 3620TIP3    H132275   4.177   6.580   6.598  0.4654 -0.1775  0.6322
 3620TIP3    H232276   4.328   6.571   6.589  0.4093 -0.6737  0.1595
 3621TIP3   OH232277   0.531   5.120   0.001 -0.1362 -0.1998  0.3820
 3621TIP3    H132278   0.535   5.064  -0.077 -0.0038 -2.0200  1.6176
 3621TIP3    H232279   0.495   5.063   0.069  0.2280  1.1743  1.7916
 3622TIP3   OH232280   3.859   2.363   5.582  0.2468 -0.0619  0.4887
 3622TIP3    H132281   3.835   2.444   5.627  0.4063  0.3233 -0.1235
 3622TIP3    H232282   3.951   2.374   5.558  0.6286 -0.9165  1.4601
 3623TIP3   OH232283   6.139   4.800  14.048  0.1117  0.6178  0.5778
 3623TIP3    H132284   6.076   4.860  14.006 -0.1713  0.6915  1.0959
 3623TIP3    H232285   6.210   4.793  13.985 -1.0975 -0.6730 -0.7070
 3624TIP3   OH232286   5.401   0.408   5.740 -0.2883  0.2817 -0.1136
 3624TIP3    H132287   5.434   0.477   5.797 -0.7349  1.2277 -0.9793
 3624TIP3    H232288   5.480   0.366   5.705  0.0688 -1.7832  2.8277
 3625TIP3   OH232289   1.590   5.079  12.703  0.1669 -0.0624  0.0302
 3625TIP3    H132290   1.605   4.985  12.693  0.6266 -0.1858  1.6401
 3625TIP3    H232291   1.526   5.086  12.773  1.0056  0.8431  0.7442
 3626TIP3   OH232292   3.418   3.350  16.514  0.4207 -0.4983 -0.2354
 3626TIP3    H132293   3.387   3.261  16.498  0.7932 -0.6268 -0.2609
 3626TIP3    H232294   3.464   3.374  16.433 -1.0963  0.3479 -0.9014
 3627TIP3   OH232295   6.591   3.509  14.033  0.2513  0.4990  0.3366
 3627TIP3    H132296   6.618   3.443  13.969 -1.4182  0.3694 -0.2731
 3627TIP3    H232297   6.549   3.578  13.981 -1.2577  0.3268  1.2662
 3628TIP3   OH232298   5.384   3.667   5.595  0.3042  0.0069  0.8199
 3628TIP3    H132299   5.363   3.666   5.688  0.9145  0.1206  0.9642
 3628TIP3    H232300   5.441   3.591   5.582 -0.7360 -0.7047  0.3005
 3629TIP3   OH232301   5.003   2.972  14.045  0.1773  0.3640 -0.3629
 3629TIP3    H132302   5.020   2.948  14.137 -1.4662  0.5820  0.0294
 3629TIP3    H232303   4.919   3.017  14.048  0.2593  0.6513 -1.9545
 3630TIP3   OH232304   0.653   2.034   5.257  0.2224 -0.0553  0.3983
 3630TIP3    H132305   0.642   1.955   5.204 -0.4467  0.3256 -0.0476
 3630TIP3    H232306   0.605   2.101   5.209 -0.8227  0.1977  1.7220
 3631TIP3   OH232307   3.188   6.339   5.939  0.0665 -0.4462 -0.4177
 3631TIP3    H132308   3.201   6.357   5.846  0.0816  0.7441 -0.1928
 3631TIP3    H232309   3.102   6.299   5.944  0.2545 -0.9473 -0.9880
 3632TIP3   OH232310   5.821   2.484   2.487  0.7668 -0.6560  0.1047
 3632TIP3    H132311   5.899   2.535   2.461 -0.2305  1.1685  0.5300
 3632TIP3    H232312   5.833   2.470   2.581 -0.1479  1.0951  0.5353
 3633TIP3   OH232313   6.245   6.139  14.509  0.1973 -0.2686 -0.6251
 3633TIP3    H132314   6.214   6.050  14.491 -0.6790 -0.0969 -0.0309
 3633TIP3    H232315   6.329   6.127  14.553 -0.4498 -0.8517  0.4984
 3634TIP3   OH232316   0.425   3.247  10.608 -0.1613 -0.6206 -0.5079
 3634TIP3    H132317   0.519   3.258  10.623 -0.4161  0.7756  0.3106
 3634TIP3    H232318   0.403   3.317  10.546 -1.1503  1.0646  1.6121
 3635TIP3   OH232319   6.524   1.204  16.167  0.1580  0.9500  0.1872
 3635TIP3    H132320   6.529   1.110  16.182  2.0266  0.9305 -0.3064
 3635TIP3    H232321   6.549   1.244  16.251  0.2443  0.9845  0.1458
 3636TIP3   OH232322   4.208   1.219  17.195  0.5829  0.1358 -0.0805
 3636TIP3    H132323   4.255   1.190  17.117  2.9110  0.9740  0.9200
 3636TIP3    H232324   4.155   1.143  17.221 -1.5979  0.3322 -3.3044
 3637TIP3   OH232325   1.634   0.110   4.382 -0.3695 -0.5116  0.0508
 3637TIP3    H132326   1.694   0.107   4.307  0.3553 -0.4717  0.6245
 3637TIP3    H232327   1.656   0.032   4.433 -0.0478  0.0733  0.8324
 3638TIP3   OH232328   1.764   0.244   4.002 -0.0964  0.2935 -0.2804
 3638TIP3    H132329   1.757   0.332   4.039 -1.0745 -0.3276  1.0910
 3638TIP3    H232330   1.684   0.231   3.953 -0.7140 -0.3742  0.8394
 3639TIP3   OH232331   4.271   6.680   2.497 -0.4124 -0.4280  0.0290
 3639TIP3    H132332   4.249   6.768   2.466  1.0559 -0.7430 -2.1161
 3639TIP3    H232333   4.366   6.680   2.507  0.0762 -2.5435 -3.0716
 3640TIP3   OH232334   4.105   6.306  13.723  0.7541  0.5672 -0.0985
 3640TIP3    H132335   4.093   6.401  13.729  3.5841  0.9621  1.6510
 3640TIP3    H232336   4.089   6.274  13.812  0.6889 -0.4832 -0.4660
 3641TIP3   OH232337   6.244   3.729  15.858 -0.1202 -0.0185 -0.4688
 3641TIP3    H132338   6.157   3.755  15.830 -0.3053  0.6493  0.6375
 3641TIP3    H232339   6.231   3.649  15.909  0.1617 -0.9921 -1.8750
 3642TIP3   OH232340   1.856   2.257  15.629  0.1856  0.5055 -0.2827
 3642TIP3    H132341   1.832   2.264  15.722  1.7397 -2.3183  0.4548
 3642TIP3    H232342   1.806   2.182  15.597  0.7826  0.5286 -1.3032
 3643TIP3   OH232343   5.608   1.543  16.031  0.0053 -0.4297  1.0638
 3643TIP3    H132344   5.598   1.453  16.061 -3.0007 -0.3869  0.4998
 3643TIP3    H232345   5.572   1.597  16.102 -0.2449  0.1548  0.5099
 3644TIP3   OH232346   4.249   0.828  16.070 -0.2159  0.0508 -0.1731
 3644TIP3    H132347   4.269   0.920  16.082 -0.7352  0.1759 -0.2188
 3644TIP3    H232348   4.156   0.821  16.093  0.4291 -0.9633  2.5785
 3645TIP3   OH232349   1.498   4.797   2.397 -0.2547 -0.2322  0.2374
 3645TIP3    H132350   1.471   4.705   2.404 -0.1610 -0.3801 -1.1017
 3645TIP3    H232351   1.417   4.846   2.394 -0.3083 -0.2990  0.5231
 3646TIP3   OH232352   4.749   3.594   3.152 -0.5586 -0.8382 -0.5672
 3646TIP3    H132353   4.841   3.610   3.131 -0.8674 -1.5689 -2.6648
 3646TIP3    H232354   4.706   3.678   3.138 -0.2611 -0.5167  0.3363
 3647TIP3   OH232355   3.520   1.444  12.307  0.3996  0.0821  0.1736
 3647TIP3    H132356   3.469   1.483  12.237 -0.6393  0.7257  1.2604
 3647TIP3    H232357   3.600   1.497  12.310  0.0348  0.6452  0.0974
 3648TIP3   OH232358   5.803   6.307   1.944  0.2141 -0.6513  0.4072
 3648TIP3    H132359   5.837   6.335   1.860  0.5068 -1.3638  0.2764
 3648TIP3    H232360   5.812   6.383   2.001  0.9612 -0.4851  0.0689
 3649TIP3   OH232361   3.404   1.392  11.102  0.6131  0.2227  0.0932
 3649TIP3    H132362   3.452   1.433  11.174 -0.8811  0.8117  0.7846
 3649TIP3    H232363   3.364   1.464  11.055  1.5112 -0.1597 -1.3375
 3650TIP3   OH232364   6.082   1.774  13.072 -0.9553  0.0082 -0.4844
 3650TIP3    H132365   6.092   1.693  13.122  0.4046 -0.5174 -1.5485
 3650TIP3    H232366   6.019   1.752  13.003 -1.7037  0.3071  0.0857
 3651TIP3   OH232367   5.481   5.187   0.301  0.1866 -0.5808  0.2475
 3651TIP3    H132368   5.483   5.181   0.396  0.6743 -0.7781  0.2261
 3651TIP3    H232369   5.510   5.276   0.282 -0.6489 -0.2794  0.3042
 3652TIP3   OH232370   5.068   5.298   2.165  0.2426 -0.0387 -0.0951
 3652TIP3    H132371   5.033   5.318   2.079 -2.2387  0.6158  0.9665
 3652TIP3    H232372   5.051   5.204   2.177 -3.5252  0.5959  1.2063
 3653TIP3   OH232373   4.279   3.463  17.035 -0.0612  0.1063  0.1774
 3653TIP3    H132374   4.329   3.430  17.110 -0.9726 -0.0938  0.7185
 3653TIP3    H232375   4.345   3.491  16.972  0.7531 -1.9177  0.0662
 3654TIP3   OH232376   0.957   0.580  15.705 -0.0360 -0.4441 -0.4190
 3654TIP3    H132377   0.996   0.616  15.784 -0.2448 -0.1026 -0.4684
 3654TIP3    H232378   1.018   0.601  15.635  0.7589 -1.8234 -0.1768
 3655TIP3   OH232379   4.046   2.362  15.852 -0.3536  0.3371 -0.5944
 3655TIP3    H132380   4.058   2.312  15.771  1.2626  0.3211 -0.3812
 3655TIP3    H232381   4.056   2.453  15.827  0.9595  0.2907 -0.3122
 3656TIP3   OH232382   0.943   6.032   0.139  0.1386  0.6160 -0.2045
 3656TIP3    H132383   0.981   6.030   0.227 -1.4396 -0.8229  0.5097
 3656TIP3    H232384   0.860   5.986   0.149 -0.5467  1.3333 -2.2527
 3657TIP3   OH232385   5.139   1.790  13.751 -0.0103  0.0222 -0.0511
 3657TIP3    H132386   5.136   1.868  13.696  0.6497  0.6308  0.7455
 3657TIP3    H232387   5.206   1.735  13.711  0.2704  0.3409 -0.0261
 3658TIP3   OH232388   1.391   4.659  11.317  0.5888  0.7061 -0.1713
 3658TIP3    H132389   1.325   4.661  11.247 -0.8511 -0.7152  1.0816
 3658TIP3    H232390   1.371   4.736  11.371 -2.0361 -1.2284  1.8511
 3659TIP3   OH232391   3.733   3.231   0.650 -0.2150  0.0868 -0.1837
 3659TIP3    H132392   3.724   3.252   0.743  1.0515 -0.1520  0.0181
 3659TIP3    H232393   3.704   3.140   0.643 -1.4391  0.4608 -0.2562
 3660TIP3   OH232394   2.840   1.241   6.230  0.3636 -0.3870  0.0367
 3660TIP3    H132395   2.850   1.154   6.268  1.4716 -0.1200  0.4086
 3660TIP3    H232396   2.747   1.249   6.211  0.3614 -1.9722 -0.7915
 3661TIP3   OH232397   3.259   2.374   6.131  0.1848 -0.1927 -0.3168
 3661TIP3    H132398   3.241   2.291   6.088  0.9662  0.6540 -2.4164
 3661TIP3    H232399   3.179   2.426   6.118  0.6609  0.2982 -1.4010
 3662TIP3   OH232400   5.757   1.813  16.295 -1.1042  0.0602 -0.2269
 3662TIP3    H132401   5.756   1.743  16.360 -0.6777 -2.3281 -2.6082
 3662TIP3    H232402   5.843   1.854  16.304  0.8128 -3.1460 -1.9868
 3663TIP3   OH232403   5.951   1.962   5.294  0.1476  0.3687 -0.1399
 3663TIP3    H132404   6.030   1.908   5.304 -0.0833 -0.0037 -0.3069
 3663TIP3    H232405   5.906   1.926   5.218  1.4751  2.6548 -2.1639
 3664TIP3   OH232406   0.603   3.904   2.578 -0.1283 -0.0467 -0.2157
 3664TIP3    H132407   0.513   3.922   2.605  0.1301 -0.6369  1.1003
 3664TIP3    H232408   0.656   3.929   2.653  0.6078 -1.8461 -0.0746
 3665TIP3   OH232409   2.327   6.474   2.214  0.1068 -0.1359  0.2760
 3665TIP3    H132410   2.408   6.506   2.174  0.6713  0.4110  1.7817
 3665TIP3    H232411   2.260   6.489   2.148  1.1230 -0.0233 -0.7683
 3666TIP3   OH232412   1.354   3.159  14.005 -0.1909  0.5856  0.1812
 3666TIP3    H132413   1.339   3.232  14.064  1.1399  0.3560  0.8490
 3666TIP3    H232414   1.345   3.196  13.918  0.4502  1.5625  0.5092
 3667TIP3   OH232415   3.621   4.660  12.385  0.2629 -0.2219 -0.1375
 3667TIP3    H132416   3.530   4.686  12.397  0.3825  0.4152 -0.5536
 3667TIP3    H232417   3.616   4.573  12.344 -0.1408 -1.2061  1.8829
 3668TIP3   OH232418   0.715   1.606  15.740 -0.0934 -0.3556 -0.4563
 3668TIP3    H132419   0.807   1.579  15.740  0.5804  1.7581 -0.3552
 3668TIP3    H232420   0.700   1.642  15.828 -0.4401  1.0250 -1.0525
 3669TIP3   OH232421   4.935   1.606   6.344 -0.5233 -0.7992  0.0977
 3669TIP3    H132422   4.966   1.574   6.428  0.9672 -3.3757 -1.3274
 3669TIP3    H232423   4.850   1.647   6.364  0.3433 -0.1954  2.9827
 3670TIP3   OH232424   0.689   0.518  11.087  0.0446  0.5454 -0.6039
 3670TIP3    H132425   0.753   0.556  11.147  0.1980  0.2584 -0.5856
 3670TIP3    H232426   0.668   0.590  11.027  0.6426  0.5443 -0.8221
 3671TIP3   OH232427   5.433   2.351   2.829 -0.0351 -0.6318  0.0864
 3671TIP3    H132428   5.445   2.282   2.895 -0.0931 -0.8811 -0.1623
 3671TIP3    H232429   5.398   2.425   2.878  0.4054 -0.6451  0.4279
 3672TIP3   OH232430   3.122   3.588  14.688  0.6299  0.2026  0.1776
 3672TIP3    H132431   3.164   3.552  14.610 -1.5532  0.9023 -1.4023
 3672TIP3    H232432   3.138   3.683  14.682  2.9285  0.0358  2.1967
 3673TIP3   OH232433   1.425   5.171   5.151 -0.3205 -0.2433  0.3172
 3673TIP3    H132434   1.481   5.121   5.091 -0.6190  0.5688 -0.6807
 3673TIP3    H232435   1.373   5.105   5.197  0.3420 -0.9207  0.1150
 3674TIP3   OH232436   1.790   3.298   1.369  0.0363 -0.1451  0.6219
 3674TIP3    H132437   1.833   3.230   1.421 -1.3887 -1.7373 -0.1607
 3674TIP3    H232438   1.726   3.337   1.428 -0.7909 -1.1703  0.4409
 3675TIP3   OH232439   0.636   0.537   2.119 -0.9320  0.3120  0.1813
 3675TIP3    H132440   0.557   0.547   2.171 -1.5791 -1.1645 -0.4438
 3675TIP3    H232441   0.605   0.512   2.032  0.1952 -0.6294  0.0101
 3676TIP3   OH232442   2.769   6.023  11.652  0.6915  0.2700  0.3641
 3676TIP3    H132443   2.769   5.937  11.694 -0.2469  0.1606  0.1681
 3676TIP3    H232444   2.731   6.081  11.718  1.1360  0.5007  0.4212
 3677TIP3   OH232445   4.366   0.425  12.794 -0.2732 -0.1928  0.2849
 3677TIP3    H132446   4.313   0.347  12.776 -0.7213  0.3163 -0.6804
 3677TIP3    H232447   4.394   0.455  12.708  0.2958  0.4459  0.6850
 3678TIP3   OH232448   4.698   3.457   0.443  1.1300  0.1774 -0.4472
 3678TIP3    H132449   4.619   3.494   0.404  1.3121  0.9340 -0.1273
 3678TIP3    H232450   4.722   3.384   0.386 -0.8971 -1.3215  0.5299
 3679TIP3   OH232451   6.117   4.457   3.561 -0.2825 -0.7625  0.4690
 3679TIP3    H132452   6.202   4.439   3.521 -0.6673 -0.1578 -0.6455
 3679TIP3    H232453   6.088   4.373   3.595  0.2714 -1.1963 -0.1133
 3680TIP3   OH232454   1.188   1.585   1.397 -0.2625 -0.2275 -1.0014
 3680TIP3    H132455   1.128   1.611   1.468 -0.9380  0.6365 -1.8719
 3680TIP3    H232456   1.230   1.666   1.370  1.1650 -0.7900 -0.5659
 3681TIP3   OH232457   6.130   4.584   4.742 -0.2870 -0.0501  0.0462
 3681TIP3    H132458   6.216   4.573   4.702 -0.4748  1.6269 -0.9262
 3681TIP3    H232459   6.148   4.606   4.833  0.3594  0.8707 -0.2931
 3682TIP3   OH232460   6.518   5.285   2.938  0.5412 -0.5695  0.1622
 3682TIP3    H132461   6.581   5.331   2.994  0.6400  1.1035 -1.2232
 3682TIP3    H232462   6.433   5.324   2.960  0.3457 -1.0815  0.3132
 3683TIP3   OH232463   2.708   1.812   6.042 -0.6109  0.0088 -0.3578
 3683TIP3    H132464   2.754   1.755   6.104 -2.9473 -1.4914  0.1247
 3683TIP3    H232465   2.731   1.901   6.069 -0.1094 -0.6440  1.5082
 3684TIP3   OH232466   0.532   3.979  16.765 -0.2076 -0.3212 -0.2995
 3684TIP3    H132467   0.543   4.032  16.844 -1.3888  0.2579 -0.5055
 3684TIP3    H232468   0.612   3.926  16.760  0.3024  0.3265  0.7522
 3685TIP3   OH232469   2.405   5.604   6.336 -0.3515 -0.1019 -0.4764
 3685TIP3    H132470   2.352   5.573   6.409  0.2112  2.2489  1.0364
 3685TIP3    H232471   2.491   5.565   6.351  0.0385  1.1315  0.7601
 3686TIP3   OH232472   6.584   3.080  16.020 -0.3850 -0.1240  0.4019
 3686TIP3    H132473   6.508   3.083  16.078 -1.0465  1.5383 -0.4988
 3686TIP3    H232474   6.629   3.163  16.035  0.8312 -0.7468  0.3354
 3687TIP3   OH232475   3.904   4.802  14.669 -0.1156  0.2290 -0.2327
 3687TIP3    H132476   3.865   4.814  14.756 -0.5998  0.2769 -0.4530
 3687TIP3    H232477   3.848   4.738  14.626 -1.0655  1.6439 -1.2164
 3688TIP3   OH232478   2.758   2.914  16.440  0.1348 -0.0159 -0.0962
 3688TIP3    H132479   2.669   2.894  16.410 -0.5213  2.5425 -0.0803
 3688TIP3    H232480   2.815   2.874  16.375 -1.1108  0.4497 -1.5196
 3689TIP3   OH232481   2.009   2.532   5.662 -0.3206  0.3253  0.2694
 3689TIP3    H132482   2.018   2.576   5.746 -2.4964  2.0368 -0.2944
 3689TIP3    H232483   2.085   2.560   5.611 -0.0351  0.8801  0.9970
 3690TIP3   OH232484   2.714   3.304   3.001  0.0723  0.2151 -0.0665
 3690TIP3    H132485   2.796   3.277   3.042 -0.8240 -0.6864  1.2020
 3690TIP3    H232486   2.693   3.234   2.940 -1.7911 -1.7773  2.5812
 3691TIP3   OH232487   5.122   3.124  13.770 -0.1778  0.1117  0.0852
 3691TIP3    H132488   5.070   3.098  13.694  1.9072 -0.5192 -1.2181
 3691TIP3    H232489   5.071   3.095  13.846 -2.3273  0.7749 -1.0274
 3692TIP3   OH232490   3.111   5.816  13.930 -0.2566 -0.4338  0.4593
 3692TIP3    H132491   3.119   5.731  13.886  0.6805 -0.8611  1.4049
 3692TIP3    H232492   3.192   5.862  13.908 -0.0097 -0.4493  1.2801
 3693TIP3   OH232493   2.559   2.843   5.528  0.8475  0.0859  0.0113
 3693TIP3    H132494   2.515   2.760   5.548  0.0148  0.5101 -0.0133
 3693TIP3    H232495   2.491   2.910   5.540  1.3480  0.7089 -0.5346
 3694TIP3   OH232496   1.783   5.113   5.696  0.3611  0.0686  0.5921
 3694TIP3    H132497   1.796   5.205   5.719 -1.4824  0.3538  0.6629
 3694TIP3    H232498   1.797   5.065   5.778  1.2184  0.2873  0.5780
 3695TIP3   OH232499   1.119   5.426  11.997  0.0750 -1.0361 -0.7987
 3695TIP3    H132500   1.128   5.456  12.088  2.0614  3.3028 -2.1605
 3695TIP3    H232501   1.024   5.417  11.984 -0.3069 -0.6268  1.3566
 3696TIP3   OH232502   1.144   4.450   5.677 -0.5282 -0.3811 -0.4104
 3696TIP3    H132503   1.180   4.384   5.618  1.1746  0.8039 -0.7447
 3696TIP3    H232504   1.166   4.418   5.765 -0.6197 -0.7573 -0.5238
 3697TIP3   OH232505   5.741   5.649  13.094  0.4189 -0.1003 -0.1556
 3697TIP3    H132506   5.836   5.644  13.096  0.3948 -0.3885  0.8858
 3697TIP3    H232507   5.718   5.637  13.002  1.3870  0.0634 -0.4294
 3698TIP3   OH232508   0.577   1.896   0.891  0.0812  0.1375 -0.2377
 3698TIP3    H132509   0.645   1.922   0.828  0.7804  0.8263  0.7709
 3698TIP3    H232510   0.572   1.801   0.883 -0.3946  0.2752 -1.8737
 3699TIP3   OH232511   1.332   1.660   4.486  0.6014 -0.6236 -0.3049
 3699TIP3    H132512   1.357   1.570   4.505 -0.6503 -1.1380 -0.9918
 3699TIP3    H232513   1.280   1.654   4.406 -1.1742  0.4547  0.7164
 3700TIP3   OH232514   2.742   2.442  11.447  0.2382  0.8636  0.2460
 3700TIP3    H132515   2.807   2.374  11.466 -0.6985  0.2019  1.1636
 3700TIP3    H232516   2.743   2.450  11.351  1.1157  0.3235  0.1971
 3701TIP3   OH232517   0.640   3.220   0.078  0.1467  0.1926  0.5815
 3701TIP3    H132518   0.589   3.145   0.108  1.5009 -0.4065  1.5061
 3701TIP3    H232519   0.658   3.270   0.158  0.6410  0.6084  0.2145
 3702TIP3   OH232520   2.691   3.990  12.665 -0.0497  0.1249  0.0139
 3702TIP3    H132521   2.750   3.932  12.617 -1.5681  0.1474 -1.9999
 3702TIP3    H232522   2.729   4.077  12.654 -1.4351  0.4594 -3.1109
 3703TIP3   OH232523   5.437   0.708  11.105  0.0733 -0.5551  0.4422
 3703TIP3    H132524   5.522   0.719  11.147  0.1472 -0.7901  0.3542
 3703TIP3    H232525   5.444   0.626  11.057 -0.0950 -0.4089  0.1679
 3704TIP3   OH232526   4.553   2.223  14.997  0.5652  0.0723  0.4068
 3704TIP3    H132527   4.643   2.250  14.976  1.3337 -2.1154  0.6012
 3704TIP3    H232528   4.557   2.196  15.089 -0.2408 -0.2462  0.3551
 3705TIP3   OH232529   5.095   2.262   0.455 -0.2065 -0.0863  0.2818
 3705TIP3    H132530   5.102   2.196   0.385 -0.7147 -0.3855  0.5064
 3705TIP3    H232531   5.019   2.234   0.506 -0.1700  0.4441  0.6288
 3706TIP3   OH232532   5.017   4.423   3.928  0.4423 -0.2898 -0.3580
 3706TIP3    H132533   5.052   4.503   3.967 -0.8593 -0.0130  0.3030
 3706TIP3    H232534   5.023   4.358   3.997  0.8346 -0.5841 -0.6633
 3707TIP3   OH232535   4.882   1.286   0.282 -0.1369  0.0174  0.2040
 3707TIP3    H132536   4.917   1.349   0.220  0.1290  0.8231  1.1411
 3707TIP3    H232537   4.897   1.200   0.241  2.8342  0.3083  0.4724
 3708TIP3   OH232538   1.952   2.306  13.914  0.1145 -0.2589  0.0679
 3708TIP3    H132539   2.008   2.363  13.860  1.4454  0.1539  1.8147
 3708TIP3    H232540   1.892   2.367  13.958 -0.7321 -0.5618 -0.6402
 3709TIP3   OH232541   2.331   1.871  13.600  0.4405  0.2291  0.2113
 3709TIP3    H132542   2.349   1.791  13.551 -1.4923  0.0453 -0.2940
 3709TIP3    H232543   2.262   1.847  13.661 -1.2997  1.8338 -1.0009
 3710TIP3   OH232544   4.089   4.543   2.715 -0.0436  0.3623  0.1045
 3710TIP3    H132545   4.116   4.598   2.641 -0.6332  2.1551  1.1640
 3710TIP3    H232546   4.024   4.483   2.678 -0.7988  1.6442 -0.7335
 3711TIP3   OH232547   3.531   1.026  15.164 -0.2564  0.2208  0.5507
 3711TIP3    H132548   3.501   0.938  15.187  0.5512  0.1518  1.3756
 3711TIP3    H232549   3.615   1.012  15.120 -1.1987  0.4396 -1.4473
 3712TIP3   OH232550   4.430   3.764   5.219  0.1800  0.3583 -0.1029
 3712TIP3    H132551   4.471   3.760   5.306 -3.1262  0.3141  1.5841
 3712TIP3    H232552   4.429   3.857   5.198  0.3583  0.4370  0.2236
 3713TIP3   OH232553   4.629   1.329  11.711  0.1706  0.0024  0.1755
 3713TIP3    H132554   4.613   1.277  11.790  2.8106 -0.0907  0.7289
 3713TIP3    H232555   4.647   1.265  11.643 -1.6273  0.1016 -0.4550
 3714TIP3   OH232556   3.153   6.670  12.197  0.1994  0.1274  0.5473
 3714TIP3    H132557   3.141   6.709  12.284  0.0469 -0.1318  0.6452
 3714TIP3    H232558   3.196   6.586  12.214  1.7010  0.8199  0.2291
 3715TIP3   OH232559   6.222   4.511  10.400  0.1466 -0.2650 -0.0187
 3715TIP3    H132560   6.172   4.454  10.341  0.1456 -0.2171 -0.0636
 3715TIP3    H232561   6.258   4.451  10.466  2.0409 -0.6649 -1.3370
 3716TIP3   OH232562   4.020   0.788   2.913 -0.0766  0.7180 -0.1945
 3716TIP3    H132563   4.068   0.866   2.883  1.9099  0.2491  1.5166
 3716TIP3    H232564   4.006   0.803   3.006 -2.0305  0.1440 -0.3605
 3717TIP3   OH232565   4.707   2.510  11.440 -0.6574 -0.7207 -1.1260
 3717TIP3    H132566   4.683   2.464  11.521  0.6230 -0.6528 -0.6967
 3717TIP3    H232567   4.742   2.441  11.383 -1.8660 -0.8319 -1.7900
 3718TIP3   OH232568   5.711   2.211  16.854 -0.3868 -0.3229 -0.7097
 3718TIP3    H132569   5.695   2.287  16.799  0.5844 -0.6029 -1.3979
 3718TIP3    H232570   5.704   2.136  16.794  1.1751 -0.5998 -0.5971
 3719TIP3   OH232571   2.025   1.844  12.922 -0.7278 -0.3196  0.0197
 3719TIP3    H132572   2.070   1.762  12.902  0.5922  0.0470  1.3240
 3719TIP3    H232573   2.086   1.912  12.895 -0.9265  0.1942  0.8149
 3720TIP3   OH232574   5.403   3.012  12.342 -0.4335  0.5476  0.1624
 3720TIP3    H132575   5.403   2.976  12.430  0.7653 -1.6977 -0.6746
 3720TIP3    H232576   5.493   3.041  12.328 -0.4212  0.1965 -0.5483
 3721TIP3   OH232577   5.488   1.471  13.079  0.1668  0.0390 -0.0982
 3721TIP3    H132578   5.502   1.482  13.173 -1.2909 -0.5314  0.2176
 3721TIP3    H232579   5.494   1.559  13.043 -1.5270  0.5908  0.8847
 3722TIP3   OH232580   0.989   3.091  14.488  0.2184  0.0346  0.0713
 3722TIP3    H132581   1.020   3.003  14.467 -2.6307 -1.2346  0.6633
 3722TIP3    H232582   0.921   3.109  14.423 -1.0345  0.6755  1.4944
 3723TIP3   OH232583   5.839   3.605   2.647  0.7387  0.0820  0.3047
 3723TIP3    H132584   5.876   3.558   2.722  0.4454  0.6092  0.7817
 3723TIP3    H232585   5.767   3.549   2.617 -0.1681  0.6138  1.4015
 3724TIP3   OH232586   6.693   1.257   4.414 -0.4426  0.3445  0.4005
 3724TIP3    H132587   6.628   1.286   4.350 -1.1217 -0.1177  0.8708
 3724TIP3    H232588   6.660   1.286   4.498  0.7570  1.4932  0.5144
 3725TIP3   OH232589   6.146   1.616  10.891  0.0766  0.2730 -0.0370
 3725TIP3    H132590   6.167   1.686  10.828  0.3580  1.0658  0.9174
 3725TIP3    H232591   6.056   1.591  10.869  0.6657 -0.5421 -1.7318
 3726TIP3   OH232592   1.231   3.355  16.348  0.7258 -0.1836 -0.2290
 3726TIP3    H132593   1.204   3.301  16.274  0.0369  0.3356 -0.3697
 3726TIP3    H232594   1.326   3.358  16.342  0.7381 -0.9659 -0.5082
 3727TIP3   OH232595   4.681   0.042   3.767  0.2422 -0.1926 -0.7893
 3727TIP3    H132596   4.667   0.053   3.861 -0.6206 -0.3026 -0.8975
 3727TIP3    H232597   4.605  -0.008   3.738  0.3030  0.1960 -1.6203
 3728TIP3   OH232598   5.086   6.354  14.415  0.2721  0.0474  0.1762
 3728TIP3    H132599   5.046   6.440  14.403 -0.8181 -0.3370  0.9382
 3728TIP3    H232600   5.058   6.326  14.503  0.1640 -1.3148 -0.2650
 3729TIP3   OH232601   4.228   3.167  16.454 -0.0262 -0.5666  0.5655
 3729TIP3    H132602   4.312   3.207  16.428 -0.2411  0.6444  1.6513
 3729TIP3    H232603   4.248   3.120  16.535 -0.0896 -1.5651  0.0263
 3730TIP3   OH232604   2.563   2.120   6.041  0.1003 -0.0061 -0.1899
 3730TIP3    H132605   2.491   2.085   6.094 -0.8653  1.8976 -0.1614
 3730TIP3    H232606   2.594   2.045   5.991 -1.5312 -1.0120  0.2216
 3731TIP3   OH232607   1.611   5.411   3.553 -0.1646 -0.2631  0.2568
 3731TIP3    H132608   1.702   5.394   3.532 -0.4765 -1.9057  0.0876
 3731TIP3    H232609   1.562   5.351   3.496 -1.1928 -1.9300  2.7089
 3732TIP3   OH232610   6.392   1.341  15.723 -0.0466  0.0036  0.2110
 3732TIP3    H132611   6.461   1.276  15.722 -0.2851 -0.3007 -1.6884
 3732TIP3    H232612   6.311   1.290  15.726 -0.2094  0.2825  0.5800
 3733TIP3   OH232613   1.629   0.857  14.058  0.2538 -0.8168 -0.4457
 3733TIP3    H132614   1.666   0.769  14.049  1.4007 -0.4047  0.0844
 3733TIP3    H232615   1.697   0.915  14.022  0.1662 -0.0406  0.6039
 3734TIP3   OH232616   1.871   3.858   5.408  0.0742 -0.2870  0.7607
 3734TIP3    H132617   1.918   3.864   5.324 -2.8713  1.4909 -0.9570
 3734TIP3    H232618   1.901   3.935   5.457  0.5496 -0.3587  0.5824
 3735TIP3   OH232619   2.992   0.717   2.891  0.5475 -0.3454  0.6143
 3735TIP3    H132620   3.058   0.732   2.823  2.1447 -0.9542  1.9525
 3735TIP3    H232621   2.914   0.688   2.843  1.4612 -0.2996 -0.9794
 3736TIP3   OH232622   1.651   1.459   3.047  0.1964  0.0534 -0.4466
 3736TIP3    H132623   1.730   1.498   3.086  1.4453 -0.8349 -1.9652
 3736TIP3    H232624   1.652   1.489   2.957 -0.8512 -0.5175 -0.6605
 3737TIP3   OH232625   6.486   5.441  12.315 -0.0562  0.3345  0.1878
 3737TIP3    H132626   6.439   5.475  12.239 -2.4551 -2.1556  0.4103
 3737TIP3    H232627   6.465   5.503  12.385  0.6501  1.6302 -0.7080
 3738TIP3   OH232628   0.627   3.994   0.348 -0.4870 -0.0728  0.3555
 3738TIP3    H132629   0.596   4.062   0.408 -0.6218  0.6825 -0.5445
 3738TIP3    H232630   0.597   3.912   0.387 -0.8698  0.4256  1.1377
 3739TIP3   OH232631   3.132   3.254  15.006  0.0958 -0.1626 -0.1632
 3739TIP3    H132632   3.039   3.264  14.985 -0.0767  0.0900  0.6859
 3739TIP3    H232633   3.140   3.163  15.036 -0.4152  0.5432  2.2949
 3740TIP3   OH232634   2.769   1.338   3.828 -0.1292  0.1421  0.1299
 3740TIP3    H132635   2.820   1.273   3.876 -0.5753  0.6317  1.3128
 3740TIP3    H232636   2.678   1.317   3.849 -0.3281  0.3922 -0.4821
 3741TIP3   OH232637   2.189   0.220   3.485  0.1484 -0.1858 -0.3162
 3741TIP3    H132638   2.174   0.149   3.547  0.6808 -0.5580 -0.6063
 3741TIP3    H232639   2.206   0.177   3.402  3.5833  0.0891  0.1056
 3742TIP3   OH232640   2.760   4.411  14.617  0.0219  0.2829 -0.2678
 3742TIP3    H132641   2.734   4.449  14.533 -1.5253 -2.0208 -0.9562
 3742TIP3    H232642   2.681   4.365  14.647  1.9721 -3.4356 -0.2295
 3743TIP3   OH232643   5.659   4.897  13.996  0.4453 -0.1260  0.3685
 3743TIP3    H132644   5.579   4.930  13.955  0.3446 -0.4749  0.2794
 3743TIP3    H232645   5.641   4.901  14.090  0.4050  0.0001  0.3552
 3744TIP3   OH232646   2.777   0.183  12.711  0.2761 -0.3674  0.3263
 3744TIP3    H132647   2.712   0.254  12.711 -0.7006 -1.1842  2.4432
 3744TIP3    H232648   2.726   0.103  12.706  1.2773 -0.9958 -0.2187
 3745TIP3   OH232649   2.362   6.665   0.476  0.1405 -0.7291 -0.1814
 3745TIP3    H132650   2.405   6.593   0.431 -0.4624  0.4712 -2.8991
 3745TIP3    H232651   2.269   6.643   0.474 -0.2035  0.6860 -2.3117
 3746TIP3   OH232652   5.387   0.178   5.901  0.1781 -0.3015 -0.6628
 3746TIP3    H132653   5.302   0.134   5.891 -0.7294  0.8662  1.2883
 3746TIP3    H232654   5.375   0.263   5.860  0.0705  0.2106  0.3881
 3747TIP3   OH232655   2.878   5.093   5.063  0.5390  0.2480  0.1006
 3747TIP3    H132656   2.862   5.049   4.980  1.3828 -0.9228  0.5111
 3747TIP3    H232657   2.936   5.166   5.042 -0.2539  0.7134 -0.4957
 3748TIP3   OH232658   6.555   0.144  14.971  0.0210  0.3445  0.1803
 3748TIP3    H132659   6.504   0.078  14.925 -0.7671  0.9707  0.1390
 3748TIP3    H232660   6.645   0.111  14.969 -0.1604 -0.1087 -0.9527
 3749TIP3   OH232661   5.869   3.882  15.235 -0.3435 -0.7331 -0.4538
 3749TIP3    H132662   5.933   3.813  15.254  0.1007 -0.0289  0.7462
 3749TIP3    H232663   5.914   3.941  15.174 -0.2545 -0.8368 -0.4869
 3750TIP3   OH232664   0.465   5.758   4.912  0.0499 -0.1793  0.3054
 3750TIP3    H132665   0.431   5.784   4.998 -0.3440  0.5805 -0.0615
 3750TIP3    H232666   0.452   5.836   4.858  0.4050 -0.6123 -0.4108
 3751TIP3   OH232667   6.606   0.884   1.811  0.1585 -0.2179 -0.3402
 3751TIP3    H132668   6.664   0.830   1.757 -0.4880 -0.7332 -0.5287
 3751TIP3    H232669   6.608   0.843   1.898  1.4398  0.7903  0.1346
 3752TIP3   OH232670   0.938   2.053  10.447 -0.0483  0.1984  0.0246
 3752TIP3    H132671   0.987   2.122  10.492 -0.3553  0.0633  0.5682
 3752TIP3    H232672   0.859   2.040  10.500  0.1008 -0.7078  0.0464
 3753TIP3   OH232673   2.572   1.935  14.360 -0.3236  0.1662 -0.2686
 3753TIP3    H132674   2.570   2.010  14.419  2.3924 -0.1412  0.3373
 3753TIP3    H232675   2.547   1.860  14.415  0.2640  0.1661  0.0076
 3754TIP3   OH232676   0.142   2.874  14.331 -0.3545 -0.5374 -0.0236
 3754TIP3    H132677   0.143   2.905  14.421 -0.0332 -0.9635  0.1219
 3754TIP3    H232678   0.056   2.899  14.298 -0.5687 -0.5993  0.4785
 3755TIP3   OH232679   5.334   3.019  11.655 -0.1669  0.3180  0.0898
 3755TIP3    H132680   5.372   2.935  11.630 -0.0696  0.2106  0.5908
 3755TIP3    H232681   5.257   2.996  11.707  0.7401  0.5142  1.5876
 3756TIP3   OH232682   2.452   2.781  17.144 -0.2360  0.1886  0.4117
 3756TIP3    H132683   2.519   2.849  17.137  0.5917 -0.6508 -0.0887
 3756TIP3    H232684   2.422   2.768  17.054  0.2332 -0.6949  0.3722
 3757TIP3   OH232685   0.112   5.356   0.455 -0.0144 -0.4253  1.2125
 3757TIP3    H132686   0.158   5.419   0.509 -0.0296 -0.4833  1.2929
 3757TIP3    H232687   0.179   5.293   0.428  0.5264  0.9080 -0.8162
 3758TIP3   OH232688   5.102   5.383   0.810 -0.2367  0.7936 -0.4354
 3758TIP3    H132689   5.114   5.330   0.732 -0.1331 -0.5918  0.4998
 3758TIP3    H232690   5.149   5.337   0.879 -1.6092  1.1638  0.8007
 3759TIP3   OH232691   4.655   4.951   3.996  0.9438 -0.1904  0.1713
 3759TIP3    H132692   4.664   4.985   3.907  0.6731 -0.2802  0.1094
 3759TIP3    H232693   4.564   4.967   4.018  1.3299  1.0776  0.9396
 3760TIP3   OH232694   3.546   4.601   3.611  0.2316 -0.0331  0.0321
 3760TIP3    H132695   3.513   4.563   3.529  0.5932  2.9067 -1.5896
 3760TIP3    H232696   3.471   4.599   3.670 -1.1972  1.1673 -1.6466
 3761TIP3   OH232697   5.477   3.262   3.751 -0.1115 -0.6908  0.4662
 3761TIP3    H132698   5.404   3.216   3.794  0.1168 -1.4845  0.0278
 3761TIP3    H232699   5.512   3.198   3.689 -0.1552  0.2857 -0.5946
 3762TIP3   OH232700   3.083   3.631  12.227 -0.3597 -0.3647  0.3362
 3762TIP3    H132701   3.120   3.697  12.169 -1.7969  0.3728  0.2114
 3762TIP3    H232702   3.033   3.573  12.168  1.1118 -1.7613  0.4013
 3763TIP3   OH232703   2.894   2.403  13.211  0.0812 -0.1163 -0.1893
 3763TIP3    H132704   2.883   2.407  13.116  0.2730 -0.1574 -0.2134
 3763TIP3    H232705   2.924   2.314  13.228 -1.4501 -0.6237  0.0653
 3764TIP3   OH232706   0.896   3.078   2.246  0.2641 -0.1335  0.0628
 3764TIP3    H132707   0.972   3.049   2.297  0.3652 -0.1153 -0.0742
 3764TIP3    H232708   0.820   3.048   2.296  0.3658 -0.9911 -0.2735
 3765TIP3   OH232709   4.012   0.624   5.216 -0.4727  0.2901  0.1286
 3765TIP3    H132710   4.101   0.615   5.250 -0.7637 -0.1247  0.7888
 3765TIP3    H232711   3.955   0.590   5.286 -1.2592  2.0505  0.3838
 3766TIP3   OH232712   2.994   5.035  16.465 -0.1666 -0.4590  0.3359
 3766TIP3    H132713   3.072   4.980  16.454  0.4140 -0.0368  2.0714
 3766TIP3    H232714   2.972   5.062  16.376  0.5187 -2.1364 -0.3836
 3767TIP3   OH232715   6.158   3.024  12.997  0.1295 -0.1797 -0.5868
 3767TIP3    H132716   6.167   3.063  13.084  0.1276 -0.6797 -0.3605
 3767TIP3    H232717   6.100   3.085  12.950  0.4532  0.2999 -0.3704
 3768TIP3   OH232718   4.937   1.009  14.923  0.2126  0.2810 -0.1793
 3768TIP3    H132719   4.960   1.028  14.833 -2.3011 -0.4045 -1.0640
 3768TIP3    H232720   4.859   1.062  14.940 -0.3362 -0.8409  1.0215
 3769TIP3   OH232721   4.528   0.646  13.046  0.4165  0.5488  0.5803
 3769TIP3    H132722   4.621   0.629  13.033  0.0128 -1.4617 -0.0765
 3769TIP3    H232723   4.502   0.587  13.116 -0.5908  0.1684 -0.0860
 3770TIP3   OH232724   5.427   2.217  13.023 -0.2298 -0.0675 -0.3358
 3770TIP3    H132725   5.374   2.171  12.957  0.6451 -2.7006  0.6787
 3770TIP3    H232726   5.489   2.268  12.972  1.0882 -2.8152 -1.6795
 3771TIP3   OH232727   6.127   0.349  15.010  0.0106  0.4254 -0.8138
 3771TIP3    H132728   6.207   0.363  15.060 -0.8385 -0.9166  1.0374
 3771TIP3    H232729   6.142   0.266  14.964 -1.1961 -1.2287  1.5928
 3772TIP3   OH232730   2.191   0.669  12.119 -0.2663  0.3083 -0.3015
 3772TIP3    H132731   2.196   0.760  12.090 -0.7187  0.1069 -1.0368
 3772TIP3    H232732   2.255   0.623  12.066 -0.8590 -0.0015 -0.7668
 3773TIP3   OH232733   1.940   3.445   1.642  0.2544 -0.1927 -0.3270
 3773TIP3    H132734   1.900   3.495   1.713  0.9786  0.7532 -0.5657
 3773TIP3    H232735   1.977   3.511   1.583 -0.6301 -0.9371 -1.7799
 3774TIP3   OH232736   2.482   5.731  14.648  0.4636 -0.1327 -0.0214
 3774TIP3    H132737   2.578   5.729  14.637  0.5325 -0.5133  0.5903
 3774TIP3    H232738   2.470   5.758  14.739 -0.0308  0.4551 -0.2533
 3775TIP3   OH232739   4.732   6.613  15.861 -0.3874  0.2748  0.3997
 3775TIP3    H132740   4.646   6.574  15.880 -0.7944  0.8573 -0.2192
 3775TIP3    H232741   4.789   6.577  15.929 -0.9069 -0.8530  0.2722
 3776TIP3   OH232742   2.388   5.711  11.865 -0.2028  0.4898  0.4142
 3776TIP3    H132743   2.439   5.767  11.807 -1.0252  1.5519  0.6724
 3776TIP3    H232744   2.309   5.690  11.815 -0.4872  0.6399  0.7887
 3777TIP3   OH232745   2.348   3.493  12.950 -0.0937  0.1418  0.6241
 3777TIP3    H132746   2.441   3.505  12.970 -0.0394 -1.1881  1.3109
 3777TIP3    H232747   2.322   3.574  12.906  1.8294 -0.1606 -1.2138
 3778TIP3   OH232748   0.259   6.518  13.402 -0.4618  0.4778  0.9695
 3778TIP3    H132749   0.316   6.540  13.476  0.2368  1.0186  0.2857
 3778TIP3    H232750   0.294   6.569  13.329 -1.4632  0.3569  0.3882
 3779TIP3   OH232751   2.871   5.906  15.156  0.3219 -0.6769 -0.5066
 3779TIP3    H132752   2.896   5.987  15.111  0.3168 -1.8684 -2.8566
 3779TIP3    H232753   2.922   5.838  15.112  0.2416 -1.9951  1.3112
 3780TIP3   OH232754   3.111   5.840  15.025 -0.8013 -0.3861  0.2028
 3780TIP3    H132755   3.190   5.863  14.976  0.5330  0.3717  2.5423
 3780TIP3    H232756   3.137   5.845  15.117 -3.3730 -0.9381  1.0600
 3781TIP3   OH232757   0.415   0.756   1.913  0.0040  0.5722 -0.8169
 3781TIP3    H132758   0.464   0.814   1.854  0.9189 -0.9139 -1.5793
 3781TIP3    H232759   0.435   0.668   1.882 -0.9200 -0.1906  0.6431
 3782TIP3   OH232760   2.321   3.611   3.170  0.1940  0.4781  0.3687
 3782TIP3    H132761   2.399   3.567   3.137  1.7064  1.7481  2.0216
 3782TIP3    H232762   2.322   3.593   3.264 -0.4235  2.0846  0.7135
 3783TIP3   OH232763   5.065   5.661  11.539 -0.0999  0.0547 -0.2042
 3783TIP3    H132764   4.994   5.719  11.568 -2.4795 -2.7764  0.1213
 3783TIP3    H232765   5.070   5.676  11.444 -1.2879  0.1584 -0.2662
 3784TIP3   OH232766   3.766   1.680  10.372 -0.7405  0.4290 -0.2891
 3784TIP3    H132767   3.847   1.714  10.336  0.0648 -0.5505  0.5469
 3784TIP3    H232768   3.717   1.757  10.399 -0.4493  1.0672 -1.5148
 3785TIP3   OH232769   1.611   0.378  11.235  0.1624  0.1233 -0.1328
 3785TIP3    H132770   1.654   0.316  11.177  0.9817  0.3686  0.1971
 3785TIP3    H232771   1.680   0.407  11.295  0.0862  2.1497 -0.9419
 3786TIP3   OH232772   6.152   4.829  16.896  0.0943  0.4277  0.3338
 3786TIP3    H132773   6.205   4.781  16.960 -0.6122 -0.8564 -0.0017
 3786TIP3    H232774   6.192   4.916  16.891  1.5704 -0.2004  0.7821
 3787TIP3   OH232775   2.117   5.214  15.502  0.4511 -0.1450  0.5193
 3787TIP3    H132776   2.039   5.190  15.552 -0.6747 -0.3164 -1.2671
 3787TIP3    H232777   2.097   5.302  15.468  1.1745 -0.0609  0.2994
 3788TIP3   OH232778   4.223   6.263   2.901 -0.3144  0.1188  0.2093
 3788TIP3    H132779   4.263   6.274   2.814  0.0337 -1.5989  0.1138
 3788TIP3    H232780   4.279   6.314   2.959  1.1695 -1.0122 -0.1644
 3789TIP3   OH232781   0.460   6.689  16.040 -0.2261  0.3267  0.0405
 3789TIP3    H132782   0.403   6.735  16.101  0.4032  0.3658  0.5985
 3789TIP3    H232783   0.506   6.624  16.093 -1.4432 -1.3033 -0.7979
 3790TIP3   OH232784   6.316   5.482   4.042 -0.5297 -0.0479 -0.3394
 3790TIP3    H132785   6.393   5.426   4.055  0.4208  1.1997 -0.3955
 3790TIP3    H232786   6.294   5.470   3.949  0.5125  0.6600 -0.7091
 3791TIP3   OH232787   3.229   4.945  16.618  0.3876 -0.2506 -0.4402
 3791TIP3    H132788   3.161   4.960  16.684  1.7891 -1.4675  1.3734
 3791TIP3    H232789   3.297   4.896  16.664  1.6808 -0.6961 -2.6804
 3792TIP3   OH232790   4.512   6.012  15.916 -0.3494  0.5992  0.3131
 3792TIP3    H132791   4.499   5.952  15.990  1.8244  0.6763  0.8357
 3792TIP3    H232792   4.424   6.042  15.894 -1.4402 -2.0388  0.6272
 3793TIP3   OH232793   2.501   4.190  11.843 -0.2535 -0.1105 -0.0477
 3793TIP3    H132794   2.532   4.099  11.848 -1.7995 -0.6135  1.6344
 3793TIP3    H232795   2.424   4.186  11.786 -1.9434 -0.4449  2.1227
 3794TIP3   OH232796   4.746   2.442   5.860  0.4641 -0.2618 -0.5109
 3794TIP3    H132797   4.802   2.364   5.865 -0.6301 -1.0084  0.9512
 3794TIP3    H232798   4.664   2.415   5.902 -1.4635  0.4334 -3.4659
 3795TIP3   OH232799   4.487   6.657   3.656  0.1054 -0.1838 -0.1906
 3795TIP3    H132800   4.392   6.641   3.654 -0.0402  0.6357 -0.2164
 3795TIP3    H232801   4.520   6.614   3.577 -0.3372  0.0711 -0.5157
 3796TIP3   OH232802   4.605   5.368   3.924 -0.0813  0.1535 -0.6060
 3796TIP3    H132803   4.550   5.442   3.950 -0.1814 -0.2769  0.4715
 3796TIP3    H232804   4.542   5.299   3.903  0.0261 -0.0890 -0.1449
 3797TIP3   OH232805   4.594   1.072   4.774 -0.5627  0.3773 -0.3106
 3797TIP3    H132806   4.579   1.092   4.681  0.8718  1.7482 -0.2964
 3797TIP3    H232807   4.519   1.111   4.819  0.6111  3.2880 -0.6024
 3798TIP3   OH232808   5.876   1.721   5.497 -0.1265 -0.6053 -0.6392
 3798TIP3    H132809   5.966   1.750   5.480 -0.1178  0.5105  1.0857
 3798TIP3    H232810   5.884   1.657   5.567 -0.5470 -1.8884 -1.7178
 3799TIP3   OH232811   3.875   6.140   3.983 -0.3908  0.0004 -0.5045
 3799TIP3    H132812   3.935   6.157   4.055 -1.8127 -1.2623  1.0383
 3799TIP3    H232813   3.860   6.045   3.985 -1.9946  0.2006 -1.2017
 3800TIP3   OH232814   1.403   6.537  17.014  0.1279 -0.1219 -0.0976
 3800TIP3    H132815   1.341   6.517  17.084  0.1857 -0.7804 -0.2225
 3800TIP3    H232816   1.408   6.633  17.012 -2.0373  0.0323 -1.0908
 3801TIP3   OH232817   6.660   1.781   4.381 -0.6560 -0.7240  0.1727
 3801TIP3    H132818   6.751   1.808   4.388  0.2154 -3.7338  2.1618
 3801TIP3    H232819   6.663   1.694   4.342 -2.6874 -0.9101  0.2962
 3802TIP3   OH232820   5.600   3.494   2.539  0.1979 -0.4307 -0.1590
 3802TIP3    H132821   5.514   3.533   2.557 -1.0317 -2.6254 -0.8228
 3802TIP3    H232822   5.613   3.508   2.445  0.4920 -0.2644 -0.0948
 3803TIP3   OH232823   5.326   1.467   5.923 -0.2347  0.8213 -0.0191
 3803TIP3    H132824   5.347   1.537   5.985  1.9062 -1.0515  1.5639
 3803TIP3    H232825   5.397   1.469   5.859  1.9972 -1.8968  2.0430
 3804TIP3   OH232826   3.515   0.553   4.757 -0.4452 -0.1685 -0.2717
 3804TIP3    H132827   3.532   0.639   4.797  1.3106 -0.4256 -0.3757
 3804TIP3    H232828   3.594   0.534   4.706 -0.4846 -2.1604  0.3091
 3805TIP3   OH232829   3.683   0.499   4.458 -0.5318 -0.5539 -0.0087
 3805TIP3    H132830   3.741   0.557   4.507 -0.1896 -0.2627 -0.7360
 3805TIP3    H232831   3.715   0.411   4.479  0.6043 -0.3788 -0.8895
 3806TIP3   OH232832   0.671   2.084  14.134 -0.4607  0.0987  0.4271
 3806TIP3    H132833   0.749   2.139  14.132 -0.0415 -0.4737  0.8305
 3806TIP3    H232834   0.611   2.130  14.192 -0.5502  0.7060 -0.1409
 3807TIP3   OH232835   4.438   1.627   0.102 -0.2549 -0.2677 -0.4166
 3807TIP3    H132836   4.533   1.632   0.094 -0.0325  0.0852  1.6862
 3807TIP3    H232837   4.404   1.684   0.033  1.2037  2.4806  1.0008
 3808TIP3   OH232838   4.765   6.241  14.593  0.5979  0.2204 -0.2206
 3808TIP3    H132839   4.858   6.219  14.596  0.7643  0.9976  1.0245
 3808TIP3    H232840   4.721   6.161  14.622  0.8022 -0.4335 -1.6388
 3809TIP3   OH232841   0.036   5.280  11.157 -0.8442  0.2664 -0.1862
 3809TIP3    H132842   0.089   5.227  11.098 -1.6356  0.4351 -1.1012
 3809TIP3    H232843   0.093   5.302  11.230  0.2711  0.2958 -1.0517
 3810TIP3   OH232844   0.663   0.808  15.041  0.2665  0.4772 -0.4072
 3810TIP3    H132845   0.683   0.859  15.120  0.7566 -2.1066  1.2892
 3810TIP3    H232846   0.747   0.798  14.997  1.0061 -1.8900  1.3122
 3811TIP3   OH232847   1.006   0.994  12.886  0.1933  0.8934 -0.2740
 3811TIP3    H132848   0.988   1.082  12.853 -0.2974  1.4678  1.4366
 3811TIP3    H232849   1.098   0.997  12.913 -0.2586  1.4572  1.3488
 3812TIP3   OH232850   5.390   4.704  12.898 -0.7825 -0.1877  0.4784
 3812TIP3    H132851   5.480   4.678  12.918  0.6757  2.8310 -1.4042
 3812TIP3    H232852   5.370   4.773  12.962 -0.2392  1.7883 -1.3815
 3813TIP3   OH232853   4.879   5.088  11.588 -0.2736 -0.0063  0.3661
 3813TIP3    H132854   4.844   5.147  11.522  0.1419 -0.5513 -0.3615
 3813TIP3    H232855   4.927   5.022  11.538  1.0722  0.2405  1.2677
 3814TIP3   OH232856   3.122   6.249   0.932 -0.2699  0.4984  0.1972
 3814TIP3    H132857   3.181   6.321   0.908 -1.0525  0.8406 -0.7708
 3814TIP3    H232858   3.130   6.187   0.860 -0.4993  0.1685  0.4556
 3815TIP3   OH232859   6.614   2.146  13.983 -0.7623 -0.8755  0.2003
 3815TIP3    H132860   6.531   2.151  14.032 -0.3671  4.5098  0.9597
 3815TIP3    H232861   6.668   2.086  14.034 -3.0994 -1.9200  1.6146
 3816TIP3   OH232862   5.510   4.515  13.475 -0.1297 -0.1118  0.1881
 3816TIP3    H132863   5.437   4.515  13.536 -0.0490 -1.0797  0.3130
 3816TIP3    H232864   5.472   4.488  13.391 -0.2534  1.2798 -0.2262
 3817TIP3   OH232865   0.744   2.337   1.470 -0.6327 -0.4684 -0.0630
 3817TIP3    H132866   0.821   2.330   1.414 -0.2874  3.7803 -0.4802
 3817TIP3    H232867   0.779   2.365   1.555 -1.6232  1.6891 -0.3053
 3818TIP3   OH232868   3.141   0.381   3.578  0.0206 -0.2109  0.3880
 3818TIP3    H132869   3.217   0.342   3.621  0.7523  1.0354  0.2776
 3818TIP3    H232870   3.135   0.469   3.615 -0.6511  0.1232 -0.4858
 3819TIP3   OH232871   0.837   3.715  15.159 -0.0788 -0.3091  0.0104
 3819TIP3    H132872   0.743   3.702  15.171 -0.0577 -0.4989 -0.0227
 3819TIP3    H232873   0.858   3.664  15.081  0.5697 -2.6312  1.6060
 3820TIP3   OH232874   4.864   2.205   0.840 -0.2396 -0.0280  0.4299
 3820TIP3    H132875   4.843   2.294   0.865  0.4554  0.6766 -1.3137
 3820TIP3    H232876   4.890   2.162   0.921  2.9526  2.3785  0.8830
 3821TIP3   OH232877   6.587   5.907  10.802 -0.2944  0.0363  0.2283
 3821TIP3    H132878   6.557   5.816  10.811 -1.3313  0.4263  0.9190
 3821TIP3    H232879   6.682   5.900  10.802 -0.3447 -1.1998 -1.4564
 3822TIP3   OH232880   4.101   0.428   5.971  0.1038 -0.2076 -0.0421
 3822TIP3    H132881   4.134   0.436   5.882 -0.9667  1.7418 -0.3162
 3822TIP3    H232882   4.144   0.499   6.019 -2.0562  1.1418  0.0521
 3823TIP3   OH232883   3.598   3.828  12.179  0.2899 -0.3658 -0.4906
 3823TIP3    H132884   3.545   3.790  12.250  0.4221  2.1252  1.0586
 3823TIP3    H232885   3.661   3.760  12.158 -0.8879 -1.8557  0.5394
 3824TIP3   OH232886   5.619   1.884   0.355  0.2516 -0.1138 -0.0549
 3824TIP3    H132887   5.589   1.933   0.431  0.8922  0.0540  0.0974
 3824TIP3    H232888   5.683   1.821   0.390  1.5725  0.8722 -0.5993
 3825TIP3   OH232889   3.504   5.045  16.211 -0.0714 -0.6475 -0.4253
 3825TIP3    H132890   3.524   4.963  16.166 -0.5105 -1.0404  0.0891
 3825TIP3    H232891   3.517   5.026  16.303  1.6709  0.3922 -0.4144
 3826TIP3   OH232892   5.437   0.928  11.415 -0.1738  0.0645 -0.8120
 3826TIP3    H132893   5.504   0.909  11.349 -0.9275 -2.5956 -0.9203
 3826TIP3    H232894   5.359   0.949  11.364 -0.6589 -1.6297 -0.8145
 3827TIP3   OH232895   2.021   1.674   3.402 -0.3821  0.8097 -0.5647
 3827TIP3    H132896   2.009   1.587   3.440 -1.1802  1.4416  0.7090
 3827TIP3    H232897   2.115   1.691   3.408 -0.3129  0.3094 -0.1872
 3828TIP3   OH232898   2.427   2.524  12.886 -0.4736  0.5627 -0.1404
 3828TIP3    H132899   2.421   2.619  12.893 -0.6403  0.6521 -1.3524
 3828TIP3    H232900   2.437   2.507  12.792  0.4950 -0.5633  0.1365
 3829TIP3   OH232901   3.016   3.980   4.260 -0.5089  0.4078  0.0782
 3829TIP3    H132902   2.933   3.973   4.212  0.0648 -0.5932 -0.8390
 3829TIP3    H232903   3.007   3.917   4.331 -0.2185 -0.3497 -0.5423
 3830TIP3   OH232904   3.170   2.317   3.398 -0.3804 -0.2251 -0.6810
 3830TIP3    H132905   3.116   2.393   3.375 -0.3251  0.4702  1.3168
 3830TIP3    H232906   3.250   2.354   3.434  0.1801 -1.2463 -0.8386
 3831TIP3   OH232907   1.463   2.397   3.886 -0.0443  0.1627 -0.1757
 3831TIP3    H132908   1.432   2.403   3.795  0.6158 -0.5132 -0.4650
 3831TIP3    H232909   1.472   2.488   3.914  0.5049  0.3997 -1.0670
 3832TIP3   OH232910   3.741   1.955   2.983  0.4752 -0.2028  0.4403
 3832TIP3    H132911   3.685   1.895   2.934 -0.0541  1.5044 -1.1605
 3832TIP3    H232912   3.827   1.946   2.941  0.3368  0.3202  0.0407
 3833TIP3   OH232913   0.437   0.917  11.791  0.1421 -0.6324  0.2537
 3833TIP3    H132914   0.425   0.824  11.812  1.2835 -0.7979  0.2258
 3833TIP3    H232915   0.348   0.951  11.785 -0.2996 -1.7201  0.2804
 3834TIP3   OH232916   4.268   3.694   1.780  0.1219  0.2646  0.4615
 3834TIP3    H132917   4.253   3.766   1.718  1.4665 -0.2362 -0.4904
 3834TIP3    H232918   4.180   3.664   1.802 -0.5395  2.7001  1.5547
 3835TIP3   OH232919   1.978   2.015   0.994  0.3856  0.2060  0.4609
 3835TIP3    H132920   1.950   2.038   0.906 -0.9198 -0.9264  0.5330
 3835TIP3    H232921   2.034   1.937   0.982 -0.9912 -0.8584  0.7016
 3836TIP3   OH232922   4.868   3.340   4.063 -0.2721  0.0306 -0.3275
 3836TIP3    H132923   4.866   3.251   4.097  1.7179  0.4697  1.1145
 3836TIP3    H232924   4.850   3.331   3.969  1.3184 -2.0725 -0.4965
 3837TIP3   OH232925   4.535   3.258   1.337 -0.1315 -0.1010 -0.0975
 3837TIP3    H132926   4.470   3.303   1.283  0.1900 -0.7747 -1.0882
 3837TIP3    H232927   4.590   3.328   1.371 -0.1816  0.3357 -0.8818
 3838TIP3   OH232928   0.454   3.788   1.375 -0.3602 -0.2716 -0.5396
 3838TIP3    H132929   0.378   3.816   1.425 -0.3850  0.4126 -0.9482
 3838TIP3    H232930   0.429   3.704   1.338 -0.0223 -1.2439  1.2964
 3839TIP3   OH232931   3.608   3.867   3.277  0.0356 -0.0033  0.3483
 3839TIP3    H132932   3.592   3.960   3.288  1.2317  0.3393 -0.6163
 3839TIP3    H232933   3.552   3.841   3.204  1.3093  0.4757 -0.8503
 3840TIP3   OH232934   2.244   4.312   6.194 -0.0644  0.0143  0.0914
 3840TIP3    H132935   2.185   4.388   6.189 -0.9337 -0.6454  0.0661
 3840TIP3    H232936   2.324   4.347   6.232 -0.1415  1.1287 -0.6995
 3841TIP3   OH232937   4.263   5.563   5.565 -0.6924  0.2346 -0.2527
 3841TIP3    H132938   4.243   5.641   5.513  2.0392  0.6900 -0.7792
 3841TIP3    H232939   4.261   5.491   5.502  0.9818  0.5465 -0.7003
 3842TIP3   OH232940   1.273   3.249   0.861  0.3204 -0.2747  0.0970
 3842TIP3    H132941   1.296   3.210   0.776  0.3874 -1.4209  0.6242
 3842TIP3    H232942   1.345   3.308   0.881  0.9931 -1.0513  0.0047
 3843TIP3   OH232943   2.188   0.986   5.938  0.5426  0.4600 -0.3831
 3843TIP3    H132944   2.229   1.065   5.901 -0.3585  0.9459 -0.3682
 3843TIP3    H232945   2.204   0.993   6.032 -1.1835  1.6375 -0.1399
 3844TIP3   OH232946   1.824   3.935  14.528  0.0828  0.0067  0.3246
 3844TIP3    H132947   1.787   3.969  14.610 -0.5327 -0.1692  0.1288
 3844TIP3    H232948   1.852   3.847  14.550 -1.2360 -0.5109  0.0529
 3845TIP3   OH232949   0.261   1.730  14.553  0.0800 -0.0057  0.2801
 3845TIP3    H132950   0.259   1.739  14.648 -4.0382  1.8332  0.2225
 3845TIP3    H232951   0.185   1.677  14.531 -1.0307  2.3006 -2.0689
 3846TIP3   OH232952   3.941   2.782  13.597 -0.1309 -0.0005 -0.1895
 3846TIP3    H132953   3.896   2.746  13.521 -1.0008  0.7006 -0.0205
 3846TIP3    H232954   3.945   2.709  13.659 -0.1253 -0.3548 -0.6041
 3847TIP3   OH232955   3.488   1.984   0.776 -0.2888  0.2679 -0.6680
 3847TIP3    H132956   3.444   1.968   0.693  0.5333  2.3946 -1.5957
 3847TIP3    H232957   3.550   1.912   0.785 -0.9990 -0.4667 -1.4237
 3848TIP3   OH232958   0.626   5.335   4.380  0.5008 -0.0334  0.2631
 3848TIP3    H132959   0.701   5.373   4.335  0.8166  0.0363  0.8315
 3848TIP3    H232960   0.640   5.357   4.472 -1.1837  1.6237  0.1812
 3849TIP3   OH232961   4.435   1.450   4.301 -0.7157 -0.2118  0.9128
 3849TIP3    H132962   4.514   1.467   4.250 -2.8671  1.7350 -2.1548
 3849TIP3    H232963   4.424   1.355   4.297  1.2877 -0.5079  1.2392
 3850TIP3   OH232964   2.166   3.656  11.072 -0.8614  0.0127  0.1034
 3850TIP3    H132965   2.152   3.700  10.988  0.7777  0.4444  0.0176
 3850TIP3    H232966   2.190   3.567  11.048  0.5922  0.3943  0.0238
 3851TIP3   OH232967   1.269   0.460  15.888  0.4489 -0.0160 -0.0624
 3851TIP3    H132968   1.307   0.384  15.930  0.5448  0.0836  0.0299
 3851TIP3    H232969   1.250   0.431  15.798 -3.5258 -1.5674  1.0298
 3852TIP3   OH232970   6.265   0.357   3.228 -0.3464  0.0068  0.3482
 3852TIP3    H132971   6.215   0.285   3.190  1.3894 -2.3182  2.1650
 3852TIP3    H232972   6.331   0.378   3.162 -1.3171  0.5111 -0.4961
 3853TIP3   OH232973   4.563   0.633  15.883 -0.5946  0.0867  0.5089
 3853TIP3    H132974   4.556   0.611  15.790 -2.1456  0.3183  0.5518
 3853TIP3    H232975   4.512   0.714  15.893  2.4061  2.0859  0.9448
 3854TIP3   OH232976   6.543   2.911   1.525  0.2315  0.1641  0.0755
 3854TIP3    H132977   6.575   2.989   1.480  0.5063  0.0634  0.0956
 3854TIP3    H232978   6.514   2.944   1.611  1.9476 -0.0030  0.7687
 3855TIP3   OH232979   3.969   3.225   5.845 -0.5043 -0.3682  0.6597
 3855TIP3    H132980   3.947   3.312   5.813  0.8414 -0.9248 -2.1153
 3855TIP3    H232981   3.924   3.165   5.785  1.3161 -1.5287  0.3825
 3856TIP3   OH232982   6.591   1.256  17.038 -0.2453  0.1294 -0.0324
 3856TIP3    H132983   6.634   1.286  17.118  1.0047  0.2399 -0.7108
 3856TIP3    H232984   6.569   1.164  17.056 -0.0147  0.1637  0.4491
 3857TIP3   OH232985   0.973   5.619   5.756 -0.0532  0.4805 -0.3857
 3857TIP3    H132986   1.055   5.647   5.797 -0.4243  0.5092  0.3546
 3857TIP3    H232987   0.963   5.528   5.782 -0.3902  0.5553 -0.2590
 3858TIP3   OH232988   5.167   6.563   6.320 -0.3987  0.1878 -0.0665
 3858TIP3    H132989   5.237   6.527   6.373 -0.7909  2.0788  1.8927
 3858TIP3    H232990   5.089   6.514   6.348 -0.3710  0.2268  0.0818
 3859TIP3   OH232991   1.777   5.564   2.741  0.8265 -0.0184 -0.3678
 3859TIP3    H132992   1.801   5.479   2.705 -1.1047  0.0299 -1.8834
 3859TIP3    H232993   1.682   5.569   2.730  0.6096  1.4931  1.5978
 3860TIP3   OH232994   0.024   5.843  10.623 -0.1367 -0.2025 -0.1478
 3860TIP3    H132995   0.024   5.914  10.687  0.9593 -0.0826 -0.2574
 3860TIP3    H232996  -0.010   5.767  10.670 -2.3785  0.6180 -0.3311
 3861TIP3   OH232997   1.727   1.125   5.355  0.4437 -0.2529 -0.4068
 3861TIP3    H132998   1.647   1.080   5.327  0.2198 -0.3878  0.4187
 3861TIP3    H232999   1.798   1.065   5.332  0.0995 -1.4020  1.3304
 3862TIP3   OH233000   1.390   6.544  14.670 -0.0805  0.5383 -0.1853
 3862TIP3    H133001   1.432   6.610  14.615  1.0508  2.4448  2.6880
 3862TIP3    H233002   1.460   6.482  14.690  0.0259  0.8644  0.4961
 3863TIP3   OH233003   5.020   6.711   5.105  0.3798 -0.2526  0.4915
 3863TIP3    H133004   5.082   6.774   5.142  2.1597 -1.0345 -0.9626
 3863TIP3    H233005   4.980   6.757   5.031  0.8577 -0.4161  0.1176
 3864TIP3   OH233006   1.428   1.399   0.380  0.3133  0.3688 -0.4608
 3864TIP3    H133007   1.476   1.316   0.380  0.0377  0.1940  0.6825
 3864TIP3    H233008   1.399   1.410   0.289  2.3044  0.3728 -1.1572
 3865TIP3   OH233009   2.192   3.425   2.700  0.2902  0.3474 -0.6259
 3865TIP3    H133010   2.222   3.448   2.788  1.1271  0.0082 -0.8055
 3865TIP3    H233011   2.119   3.484   2.682  0.8782  1.2387 -0.1684
 3866TIP3   OH233012   2.907   4.439  12.458  0.1868 -0.5047  0.1797
 3866TIP3    H133013   2.817   4.464  12.437 -0.1559  0.6965  2.7121
 3866TIP3    H233014   2.956   4.521  12.450  0.7198 -0.7937  0.4342
 3867TIP3   OH233015   2.190   4.871   0.015  0.4230 -0.0808  0.3587
 3867TIP3    H133016   2.111   4.821   0.037  0.5365 -0.4462 -0.0521
 3867TIP3    H233017   2.180   4.954   0.062 -0.8124  0.3970 -0.6862
 3868TIP3   OH233018   2.843   4.205  12.920  0.1602 -0.8213  0.3367
 3868TIP3    H133019   2.918   4.145  12.922  0.1573 -0.8580 -0.4465
 3868TIP3    H233020   2.783   4.170  12.986  1.1113 -0.4096  1.4699
 3869TIP3   OH233021   5.036   3.622  13.111  0.2765 -0.3229  0.2800
 3869TIP3    H133022   4.960   3.569  13.136  1.0608 -1.1847  0.9157
 3869TIP3    H233023   5.009   3.712  13.126 -0.6157 -0.6170  0.4957
 3870TIP3   OH233024   5.913   5.224  12.538  0.1083 -0.0384 -0.0520
 3870TIP3    H133025   5.855   5.161  12.581  1.0014 -0.0101  1.2785
 3870TIP3    H233026   5.854   5.283  12.491 -0.9707  0.0673  1.3600
 3871TIP3   OH233027   5.296   3.579   3.636 -0.1021  0.3094 -0.4927
 3871TIP3    H133028   5.223   3.518   3.621 -1.5838  1.8252  0.2504
 3871TIP3    H233029   5.356   3.563   3.563  0.4788 -3.2321  0.5803
 3872TIP3   OH233030   1.410   6.505  14.059  0.4849 -0.0418 -0.1095
 3872TIP3    H133031   1.352   6.512  13.983  1.2220  1.3938 -0.5868
 3872TIP3    H233032   1.476   6.442  14.032 -1.1657 -2.2592  0.7064
 3873TIP3   OH233033   0.617   3.054   5.497  0.6704  0.0793 -0.0515
 3873TIP3    H133034   0.583   3.136   5.530  1.8666  0.1130  1.1949
 3873TIP3    H233035   0.573   2.986   5.548  2.0236  0.1039  1.2027
 3874TIP3   OH233036   3.958   3.554   2.510 -0.1386  0.0168  0.0147
 3874TIP3    H133037   3.892   3.610   2.471 -0.8047 -1.9469 -1.8518
 3874TIP3    H233038   4.025   3.544   2.443 -0.0526 -1.4109  0.2748
 3875TIP3   OH233039   5.630   5.902  16.362 -0.2833 -0.9302  0.2481
 3875TIP3    H133040   5.543   5.875  16.332 -0.5632  1.2553 -1.1475
 3875TIP3    H233041   5.613   5.971  16.426  0.3174  1.3680 -1.9011
 3876TIP3   OH233042   6.184   3.877  14.601  0.1023 -0.0098  0.0455
 3876TIP3    H133043   6.263   3.831  14.575  0.8170 -0.2156  2.3431
 3876TIP3    H233044   6.116   3.810  14.600  0.2972 -0.2069 -0.3448
 3877TIP3   OH233045   3.574   0.109  15.914  0.3223 -0.3435 -0.0622
 3877TIP3    H133046   3.604   0.175  15.851 -1.1425  1.8384  1.3937
 3877TIP3    H233047   3.574   0.155  15.998  1.2387 -2.8599  1.4295
 3878TIP3   OH233048   5.807   2.991   0.687 -0.1383  0.0799 -0.3038
 3878TIP3    H133049   5.835   3.080   0.710 -1.6505  0.3363  0.7305
 3878TIP3    H233050   5.765   2.958   0.766 -0.5727 -1.1497 -1.0152
 3879TIP3   OH233051   6.158   2.579   2.712  0.0066  0.1410 -0.3542
 3879TIP3    H133052   6.064   2.579   2.726  0.3512  0.4000  2.4481
 3879TIP3    H233053   6.174   2.658   2.659 -1.3705 -0.3476 -1.5722
 3880TIP3   OH233054   1.508   0.594   6.034 -0.0763  0.5944 -0.1836
 3880TIP3    H133055   1.454   0.658   6.081 -0.5978 -0.0205  0.0708
 3880TIP3    H233056   1.588   0.642   6.013 -0.8609  1.6433 -0.9017
 3881TIP3   OH233057   5.368   5.990   1.400  0.1216 -0.0179  0.3314
 3881TIP3    H133058   5.299   5.925   1.416 -2.0252  1.5271 -1.9252
 3881TIP3    H233059   5.411   5.959   1.320 -0.1078  0.6433 -0.0584
 3882TIP3   OH233060   0.468   1.133   3.288 -0.6232 -0.4056  0.0544
 3882TIP3    H133061   0.546   1.183   3.312 -0.8466  0.4586 -0.9385
 3882TIP3    H233062   0.500   1.044   3.274 -0.0113 -0.2977  0.7026
 3883TIP3   OH233063   1.225   5.726  12.231  0.1865 -0.0226 -0.4745
 3883TIP3    H133064   1.186   5.645  12.263 -0.6276 -0.7072 -3.0060
 3883TIP3    H233065   1.240   5.778  12.310  0.2181 -2.3847  1.1711
 3884TIP3   OH233066   5.271   5.635  17.152  0.6534 -0.1377 -0.0733
 3884TIP3    H133067   5.230   5.722  17.149  1.2164  0.1109 -1.6718
 3884TIP3    H233068   5.284   5.612  17.060  4.7388  0.1397  0.2495
 3885TIP3   OH233069   3.745   2.246  15.793 -0.0851 -0.6686 -0.3227
 3885TIP3    H133070   3.692   2.167  15.785  0.9213 -1.3257 -0.6936
 3885TIP3    H233071   3.829   2.223  15.753  1.1829 -0.3271  1.9686
 3886TIP3   OH233072   0.592   5.422  14.466  1.0786 -0.5582  0.3056
 3886TIP3    H133073   0.608   5.510  14.501 -0.2665 -0.6343  1.2057
 3886TIP3    H233074   0.592   5.365  14.544 -2.6508 -0.6344  0.4035
 3887TIP3   OH233075   4.160   3.436   3.674  0.6092 -0.3849  0.0605
 3887TIP3    H133076   4.162   3.444   3.579  0.3504 -0.3758  0.0542
 3887TIP3    H233077   4.123   3.519   3.704  1.5700 -0.0129  0.2247
 3888TIP3   OH233078   2.379   5.667  12.410 -0.1553 -0.0940  0.0034
 3888TIP3    H133079   2.437   5.592  12.414 -0.5886 -0.5295 -1.4472
 3888TIP3    H233080   2.404   5.713  12.330 -0.9651  0.4162  0.0292
 3889TIP3   OH233081   3.728   2.098   5.894  0.2581  0.8732  0.3024
 3889TIP3    H133082   3.669   2.099   5.819 -0.6342  1.9071  0.9810
 3889TIP3    H233083   3.695   2.028   5.951  1.2034 -0.2152 -0.4372
 3890TIP3   OH233084   0.830   5.478  14.625 -0.1827 -0.2658 -0.0254
 3890TIP3    H133085   0.871   5.412  14.570 -0.1994 -0.5321  0.2769
 3890TIP3    H233086   0.847   5.561  14.580 -0.2015 -0.4780 -0.4311
 3891TIP3   OH233087   0.859   6.251  17.000  0.1388 -0.1255  0.2501
 3891TIP3    H133088   0.886   6.211  17.082 -0.0844  0.8543  0.8295
 3891TIP3    H233089   0.782   6.303  17.024  1.4318  2.0491 -0.0510
 3892TIP3   OH233090   0.172   4.273  13.865  0.0577  0.5080  0.2846
 3892TIP3    H133091   0.147   4.215  13.937 -0.3400 -0.0691 -0.2990
 3892TIP3    H233092   0.159   4.361  13.899 -0.0522  0.2476  0.9418
 3893TIP3   OH233093   3.191   3.870   1.844 -0.0413  0.2978  0.0908
 3893TIP3    H133094   3.179   3.962   1.870  0.1220 -0.2780  2.4050
 3893TIP3    H233095   3.270   3.871   1.790  0.1646  1.4732  0.3739
 3894TIP3   OH233096   2.663   3.517   2.719  0.7040  0.1173 -0.2062
 3894TIP3    H133097   2.574   3.549   2.701  0.5117 -1.7340 -3.5069
 3894TIP3    H233098   2.654   3.461   2.796 -0.8092  0.6548  0.0365
 3895TIP3   OH233099   3.782   0.542   0.068 -0.1921 -0.2869  0.1588
 3895TIP3    H133100   3.743   0.573   0.150  0.1168  0.6882 -0.0505
 3895TIP3    H233101   3.723   0.575  -0.000  2.0122  3.2102 -0.3523
 3896TIP3   OH233102   4.549   3.019   3.145 -0.5780  0.0501 -0.1314
 3896TIP3    H133103   4.536   3.012   3.051 -1.4811 -2.4041  0.0926
 3896TIP3    H233104   4.636   2.982   3.160 -1.2019 -1.3886  0.1272
 3897TIP3   OH233105   4.524   4.052  15.851 -0.1296 -0.5743 -0.2914
 3897TIP3    H133106   4.488   3.988  15.789  1.3395 -2.1570  0.3790
 3897TIP3    H233107   4.590   4.100  15.800 -0.4639 -0.3545 -0.5178
 3898TIP3   OH233108   2.712   5.885  13.501  0.4322  0.1867 -0.0525
 3898TIP3    H133109   2.749   5.966  13.537  1.8179 -0.9825  1.2902
 3898TIP3    H233110   2.662   5.914  13.424  1.5216  2.2081 -0.0791
 3899TIP3   OH233111   5.312   4.001  13.141  0.3207  0.0777 -0.7762
 3899TIP3    H133112   5.356   4.079  13.109 -0.2870  0.4505 -0.7297
 3899TIP3    H233113   5.367   3.928  13.111  2.5279  0.5919  1.7006
 3900TIP3   OH233114   5.054   4.652  17.114  0.2920 -0.4348  0.6319
 3900TIP3    H133115   5.124   4.593  17.088  0.0471 -0.3206 -0.3280
 3900TIP3    H233116   4.976   4.596  17.117 -0.0430 -0.0923 -0.7987
 3901TIP3   OH233117   3.540   1.735  12.222 -0.1421 -0.3060  0.3607
 3901TIP3    H133118   3.504   1.695  12.143 -2.3505 -0.5150  1.3969
 3901TIP3    H233119   3.555   1.827  12.198  0.7901 -0.7180 -0.7343
 3902TIP3   OH233120   3.371   3.314  15.137  0.8324  0.3907 -0.4458
 3902TIP3    H133121   3.286   3.307  15.093  0.0341  1.4488  0.8469
 3902TIP3    H233122   3.387   3.226  15.172  0.2264  0.1990 -0.6322
 3903TIP3   OH233123   4.040   2.500  12.972  0.6301  0.0619  0.1950
 3903TIP3    H133124   3.971   2.499  12.907  1.2822 -0.1645 -0.5036
 3903TIP3    H233125   4.112   2.450  12.933  0.2288 -2.1056  1.9823
 3904TIP3   OH233126   2.092   3.699   5.642 -0.3338  0.2736  0.4043
 3904TIP3    H133127   2.175   3.676   5.600 -0.9599 -0.2571 -0.5572
 3904TIP3    H233128   2.098   3.659   5.729 -0.1880 -1.0504 -0.1888
 3905TIP3   OH233129   4.534   4.694  16.827 -0.0305 -0.4324 -0.5710
 3905TIP3    H133130   4.448   4.651  16.819  0.7336 -1.7996 -2.2285
 3905TIP3    H233131   4.597   4.626  16.804  1.4378  0.8601 -0.5423
 3906TIP3   OH233132   3.587   6.204  14.936 -0.5704 -0.3453  0.2244
 3906TIP3    H133133   3.591   6.248  14.851  1.7472 -0.6835  0.0716
 3906TIP3    H233134   3.679   6.191  14.960 -1.1592 -0.8030  2.5125
 3907TIP3   OH233135   4.713   6.180  16.117 -0.1457  0.4345 -0.6931
 3907TIP3    H133136   4.662   6.133  16.183 -1.1473 -0.6744 -2.1989
 3907TIP3    H233137   4.730   6.266  16.156 -0.1437 -0.4064  1.2434
 3908TIP3   OH233138   3.640   0.413  14.564  0.1221 -0.5214 -0.1084
 3908TIP3    H133139   3.628   0.361  14.485 -1.5160 -1.1312  0.4856
 3908TIP3    H233140   3.636   0.350  14.636 -2.8679  0.4048  0.6895
 3909TIP3   OH233141   2.710   2.777   0.356  0.4054 -0.1413 -0.2836
 3909TIP3    H133142   2.630   2.816   0.391 -0.3784 -2.0119  0.1240
 3909TIP3    H233143   2.709   2.799   0.263  0.1436  1.0070 -0.0223
 3910TIP3   OH233144   0.509   6.345   5.591  0.2826  0.0951 -0.2397
 3910TIP3    H133145   0.598   6.309   5.596  0.3479  0.3243  0.3347
 3910TIP3    H233146   0.452   6.269   5.596  0.4294  0.0283  0.4685
 3911TIP3   OH233147   5.777   2.419  17.108  0.0292 -0.4709  0.4839
 3911TIP3    H133148   5.732   2.454  17.031  0.2399 -1.7379 -0.2350
 3911TIP3    H233149   5.734   2.462  17.182 -0.1028  0.8603 -0.3159
 3912TIP3   OH233150   3.933   0.190  11.740  0.6881 -0.9921  0.1188
 3912TIP3    H133151   3.883   0.256  11.788 -0.2864 -0.5391 -1.4619
 3912TIP3    H233152   3.878   0.112  11.744  0.2290 -0.7274 -0.9245
 3913TIP3   OH233153   3.707   5.159   5.148 -0.1706 -0.4239  0.0558
 3913TIP3    H133154   3.635   5.120   5.197 -2.4681  0.6712 -2.2558
 3913TIP3    H233155   3.751   5.217   5.211 -0.6475 -1.8306  1.7623
 3914TIP3   OH233156   3.925   1.366   1.575  0.0260  0.1574 -0.2242
 3914TIP3    H133157   3.994   1.341   1.636  1.3637  0.3381 -1.6318
 3914TIP3    H233158   3.955   1.336   1.489 -1.3219  0.8646 -0.9838
 3915TIP3   OH233159   5.667   5.023   0.189 -0.1822  0.1717 -0.5215
 3915TIP3    H133160   5.631   4.934   0.190 -2.0610  0.8764  0.5203
 3915TIP3    H233161   5.595   5.077   0.220  1.9737  1.6759  2.3113
 3916TIP3   OH233162   3.439   5.997   4.367 -0.0197  0.4697  0.2624
 3916TIP3    H133163   3.406   5.915   4.405 -0.1331  0.3077 -0.1736
 3916TIP3    H233164   3.519   6.016   4.417  0.3200 -0.2161 -0.0064
 3917TIP3   OH233165   6.572   6.669   4.058 -0.4342 -0.0290 -0.6835
 3917TIP3    H133166   6.598   6.630   4.142 -2.4187 -0.6406 -0.3142
 3917TIP3    H233167   6.569   6.763   4.076  0.2500 -0.0503 -0.4020
 3918TIP3   OH233168   4.546   0.901  16.933  0.3239  0.3679  0.4106
 3918TIP3    H133169   4.621   0.954  16.908  0.2592  0.3287  0.1250
 3918TIP3    H233170   4.581   0.835  16.993  0.3949  0.7609  0.8091
 3919TIP3   OH233171   1.013   6.573   2.446  0.0597  0.3830  0.2529
 3919TIP3    H133172   0.988   6.636   2.513 -0.1278  1.7546 -1.0551
 3919TIP3    H233173   0.996   6.618   2.363 -1.1167 -1.7742 -0.7708
 3920TIP3   OH233174   0.855   2.210   4.914  0.5356  0.5783  1.0622
 3920TIP3    H133175   0.894   2.290   4.947  1.6362  0.1659  0.7963
 3920TIP3    H233176   0.919   2.141   4.934  0.3917  0.0378 -0.2426
 3921TIP3   OH233177   5.651   1.219  17.002  0.2240  0.2570  0.0746
 3921TIP3    H133178   5.718   1.179  16.945  0.1446  1.6084 -1.0153
 3921TIP3    H233179   5.568   1.193  16.962  0.1361  0.1546  0.3230
 3922TIP3   OH233180   3.966   2.713   6.022  0.1984 -0.2689 -0.4054
 3922TIP3    H133181   3.949   2.625   6.057  0.6054 -0.3802 -0.4774
 3922TIP3    H233182   3.986   2.766   6.099 -1.8119  0.2096 -0.1595
 3923TIP3   OH233183   5.846   1.288  15.902  0.2336 -0.0843 -0.1945
 3923TIP3    H133184   5.786   1.272  15.975  0.9788 -1.4075  0.1529
 3923TIP3    H233185   5.820   1.224  15.836 -2.8798  3.3581 -2.7570
 3924TIP3   OH233186   1.693   1.627  15.171  0.2004  0.1878  0.2578
 3924TIP3    H133187   1.763   1.664  15.225 -0.1361  0.6128  0.4062
 3924TIP3    H233188   1.716   1.534  15.164  1.4979  0.5551 -0.8066
 3925TIP3   OH233189   3.197   2.619   3.853  0.1069 -0.2309  0.5136
 3925TIP3    H133190   3.261   2.555   3.883 -1.1120 -2.7376 -1.7548
 3925TIP3    H233191   3.143   2.571   3.790 -3.2425  2.0465  1.3468
 3926TIP3   OH233192   3.338   0.282   1.330  0.1051  0.3941 -0.4348
 3926TIP3    H133193   3.315   0.349   1.266 -2.1287  1.1935  1.0869
 3926TIP3    H233194   3.283   0.207   1.307 -1.2399  0.9286  0.8889
 3927TIP3   OH233195   2.170   5.586  16.523  0.4567 -0.3203 -0.4563
 3927TIP3    H133196   2.242   5.630  16.478 -0.3674 -0.2675 -1.7805
 3927TIP3    H233197   2.091   5.627  16.488 -0.2579  1.0470  2.4168
 3928TIP3   OH233198   1.957   6.451  14.016  0.2159 -0.5534 -0.4855
 3928TIP3    H133199   1.956   6.434  14.110 -1.2074  0.9415 -0.1905
 3928TIP3    H233200   2.036   6.503  14.002 -1.3481  2.2815  0.5452
 3929TIP3   OH233201   4.539   5.917   5.896 -0.5618 -0.1554  0.5825
 3929TIP3    H133202   4.585   5.989   5.939  0.3133  0.0267 -0.6226
 3929TIP3    H233203   4.543   5.845   5.959 -1.0642  0.6920  1.6226
 3930TIP3   OH233204   3.385   0.342  14.845 -0.0515  0.1522  0.0694
 3930TIP3    H133205   3.386   0.250  14.818 -0.7459  0.0165  0.5065
 3930TIP3    H233206   3.327   0.385  14.782 -3.0351 -0.4603  2.1990
 3931TIP3   OH233207   5.454   1.256  13.961 -0.2385  0.3795  0.1663
 3931TIP3    H133208   5.385   1.294  13.907 -0.3913  0.1002  0.1624
 3931TIP3    H233209   5.407   1.206  14.028 -0.0387 -0.6031 -0.4050
 3932TIP3   OH233210   1.356   3.686   3.251 -0.4294 -0.2214  0.5602
 3932TIP3    H133211   1.278   3.703   3.304 -0.2805  0.6705  0.5060
 3932TIP3    H233212   1.428   3.685   3.313 -0.4272 -0.6282  0.5550
 3933TIP3   OH233213   1.660   3.707   1.620 -0.2678 -0.2476 -0.5628
 3933TIP3    H133214   1.707   3.659   1.553 -0.1824 -1.1228  0.1187
 3933TIP3    H233215   1.725   3.727   1.687 -0.3108  0.7824 -0.8042
 3934TIP3   OH233216   1.221   3.573   6.470  0.1164  0.0822 -0.2012
 3934TIP3    H133217   1.218   3.659   6.512 -1.3214 -0.0326 -0.0176
 3934TIP3    H233218   1.198   3.590   6.379 -1.2748 -0.2047  0.0643
 3935TIP3   OH233219   2.113   0.633   5.499  0.2796  0.6735  0.1229
 3935TIP3    H133220   2.118   0.546   5.540 -1.9098  0.6575  0.4361
 3935TIP3    H233221   2.071   0.617   5.415  2.2041  1.1250 -0.9887
 3936TIP3   OH233222   3.925   3.706   1.305  0.3691 -0.0339  0.0567
 3936TIP3    H133223   3.967   3.791   1.288  0.2745 -0.0802 -0.4058
 3936TIP3    H233224   3.956   3.682   1.393  0.7520  0.2655  0.0077
 3937TIP3   OH233225   2.553   3.770  11.566  0.1758 -0.0034  0.1674
 3937TIP3    H133226   2.550   3.703  11.499 -2.1395 -0.6348  0.8023
 3937TIP3    H233227   2.618   3.833  11.535  0.3299 -1.0828 -1.8364
 3938TIP3   OH233228   6.706   3.927   3.158  0.2036  0.0695  0.1854
 3938TIP3    H133229   6.759   3.983   3.214  0.8505  0.2345 -0.5620
 3938TIP3    H233230   6.629   3.905   3.210  0.1640  1.2707  0.6630
 3939TIP3   OH233231   6.739   0.279   0.359 -0.2466  0.2767  0.0672
 3939TIP3    H133232   6.679   0.323   0.419  0.2727 -0.2926  1.0393
 3939TIP3    H233233   6.811   0.341   0.348 -0.3864  0.4205 -0.0388
 3940TIP3   OH233234   5.896   1.555   1.485 -0.0626 -0.0730 -0.6739
 3940TIP3    H133235   5.852   1.581   1.565 -0.7279 -0.0736 -1.0313
 3940TIP3    H233236   5.959   1.626   1.468 -0.0956  0.0485 -0.2890
 3941TIP3   OH233237   0.779   2.253   4.400  0.2498  0.2623  0.6507
 3941TIP3    H133238   0.755   2.179   4.345  0.6200  0.3247  0.4043
 3941TIP3    H233239   0.697   2.299   4.416 -0.0016 -0.2756  0.9154
 3942TIP3   OH233240   4.372   0.250   4.829 -0.2223 -0.6408 -0.2013
 3942TIP3    H133241   4.342   0.205   4.750 -1.4197  0.6911 -0.5453
 3942TIP3    H233242   4.466   0.234   4.832 -0.2086 -0.9506 -1.7471
 3943TIP3   OH233243   6.015   6.467  10.501 -0.0309 -0.0239  0.0054
 3943TIP3    H133244   5.930   6.452  10.544  0.7660 -0.2569  1.5593
 3943TIP3    H233245   6.039   6.381  10.467  0.1220 -0.2355  0.6222
 3944TIP3   OH233246   1.047   6.121   4.228 -0.0632  0.1314  0.1209
 3944TIP3    H133247   1.068   6.089   4.316  0.5638 -0.4213 -0.2159
 3944TIP3    H233248   1.131   6.151   4.193 -0.5213  1.5215  0.1602
 3945TIP3   OH233249   6.468   6.229  14.329  0.6540 -0.3403  0.3091
 3945TIP3    H133250   6.376   6.238  14.352  0.3444  0.3399 -1.0548
 3945TIP3    H233251   6.470   6.164  14.259  0.9238  1.0095 -1.0137
 3946TIP3   OH233252   3.390   2.660  12.522  0.1692  0.2637  0.4935
 3946TIP3    H133253   3.295   2.661  12.513 -0.0341  1.7657  2.2604
 3946TIP3    H233254   3.407   2.593  12.589  0.3619 -0.0066  0.1766
 3947TIP3   OH233255   3.675   3.369  12.980 -0.0373 -0.4455  0.0064
 3947TIP3    H133256   3.622   3.296  13.012  0.2206 -0.0645  1.3859
 3947TIP3    H233257   3.622   3.409  12.911 -0.4878 -1.5004 -0.2742
 3948TIP3   OH233258   2.979   1.425  13.805 -0.0038 -0.5816 -0.2461
 3948TIP3    H133259   2.928   1.345  13.791 -0.5444 -0.4861  1.0256
 3948TIP3    H233260   2.913   1.490  13.831  0.8405 -0.8709  3.1324
 3949TIP3   OH233261   2.773   5.733  12.904  0.1303 -0.1880  0.9446
 3949TIP3    H133262   2.753   5.710  12.813  0.5048  0.7062  0.6239
 3949TIP3    H233263   2.866   5.758  12.902 -0.2273  1.2685  1.2701
 3950TIP3   OH233264   0.837   6.295  11.414 -0.0965 -0.3153  0.2747
 3950TIP3    H133265   0.851   6.361  11.346 -1.1883 -1.7446 -1.4371
 3950TIP3    H233266   0.759   6.325  11.461  0.2196  0.3058  0.4021
 3951TIP3   OH233267   3.815   6.223   5.030 -0.1307 -0.3321 -0.0426
 3951TIP3    H133268   3.803   6.164   5.104  0.3447 -0.5568 -0.1351
 3951TIP3    H233269   3.774   6.305   5.056 -0.1457 -0.4758  0.3872
 3952TIP3   OH233270   5.977   1.797   2.916 -0.5031 -0.1585 -0.3825
 3952TIP3    H133271   5.974   1.703   2.937 -0.4483  0.0301  0.5140
 3952TIP3    H233272   5.885   1.824   2.914 -0.5643 -0.3952 -1.4767
 3953TIP3   OH233273   3.102   5.611   0.634 -0.2016 -0.1201 -0.2769
 3953TIP3    H133274   3.110   5.670   0.709  0.8236 -0.0563 -0.4244
 3953TIP3    H233275   3.028   5.554   0.656 -0.6348  0.6395  0.2621
 3954TIP3   OH233276   3.445   6.439  11.625  0.4548 -0.2661 -0.2978
 3954TIP3    H133277   3.514   6.474  11.680  0.1167  0.2764 -0.2210
 3954TIP3    H233278   3.477   6.451  11.535 -0.7902  2.7787 -0.4469
 3955TIP3   OH233279   2.044   0.155   4.729 -0.2421  0.3806 -0.3387
 3955TIP3    H133280   1.967   0.102   4.748  0.5083 -0.9245 -0.8002
 3955TIP3    H233281   2.018   0.245   4.751 -0.8321 -0.4135  2.6399
 3956TIP3   OH233282   2.203   0.589  13.602 -0.1094  0.5379  0.8796
 3956TIP3    H133283   2.248   0.577  13.518  0.0774 -0.6801  1.1435
 3956TIP3    H233284   2.252   0.660  13.645  0.5285  0.3677  0.4579
 3957TIP3   OH233285   1.429   1.409   1.870 -0.3903 -0.4976 -0.6356
 3957TIP3    H133286   1.378   1.407   1.789  0.0619 -1.3582 -0.9152
 3957TIP3    H233287   1.395   1.335   1.921  0.8607 -1.3805 -1.0239
 3958TIP3   OH233288   0.789   0.372  13.067  0.1860 -0.4760 -0.2163
 3958TIP3    H133289   0.866   0.423  13.094  0.1839 -0.4623 -0.2365
 3958TIP3    H233290   0.820   0.321  12.992 -0.1750  0.4710 -1.0241
 3959TIP3   OH233291   2.309   4.194  15.361  0.1010  0.5088 -0.4069
 3959TIP3    H133292   2.261   4.168  15.439 -1.5302  1.2837 -1.1181
 3959TIP3    H233293   2.326   4.288  15.373 -0.6122  0.7548 -1.1798
 3960TIP3   OH233294   6.395   2.865  12.322 -0.8346 -0.1222  0.0085
 3960TIP3    H133295   6.457   2.808  12.277  0.8030  2.2869 -1.0160
 3960TIP3    H233296   6.365   2.813  12.397  1.0829 -2.0431 -0.4348
 3961TIP3   OH233297   3.088   2.536  16.586  0.2426 -0.0938 -0.1290
 3961TIP3    H133298   3.158   2.561  16.526  0.6618 -0.2318  0.2960
 3961TIP3    H233299   3.079   2.442  16.575  1.3342 -0.3718  1.0662
 3962TIP3   OH233300   0.923   0.824   2.753  0.3570 -0.1533 -0.2850
 3962TIP3    H133301   0.902   0.897   2.695 -1.6187 -0.5129 -0.1022
 3962TIP3    H233302   0.872   0.751   2.718 -1.6456 -0.1550  2.3240
 3963TIP3   OH233303   2.897   6.328   3.024 -0.4174 -0.0944 -0.1850
 3963TIP3    H133304   2.901   6.417   2.989 -0.7449  0.9652  2.2504
 3963TIP3    H233305   2.806   6.301   3.013 -0.9970  1.0215  1.5684
 3964TIP3   OH233306   4.672   4.758  16.121  0.4180  0.3859  0.1164
 3964TIP3    H133307   4.627   4.693  16.175  0.2343 -1.0564 -1.7181
 3964TIP3    H233308   4.742   4.791  16.178  0.8295 -1.7518  0.9323
 3965TIP3   OH233309   5.326   1.153   1.895 -0.1451 -0.3134 -0.0409
 3965TIP3    H133310   5.339   1.183   1.805 -0.5658 -0.0180 -0.0069
 3965TIP3    H233311   5.405   1.181   1.941 -0.6901  1.1007  0.0772
 3966TIP3   OH233312   3.143   4.905  13.206  0.6332 -0.3001  0.4923
 3966TIP3    H133313   3.191   4.932  13.128 -0.3134 -1.1484 -0.4139
 3966TIP3    H233314   3.179   4.958  13.276  1.2965  0.7077 -0.5799
 3967TIP3   OH233315   3.004   0.624  14.785  0.0287 -0.4367  0.0194
 3967TIP3    H133316   3.064   0.697  14.770 -1.2030  1.0655  2.0224
 3967TIP3    H233317   2.992   0.586  14.698  4.1235 -1.1430 -0.4737
 3968TIP3   OH233318   0.173   2.687   5.407  0.8191 -0.1664 -0.5152
 3968TIP3    H133319   0.157   2.743   5.483  1.9227  0.1767 -0.5192
 3968TIP3    H233320   0.208   2.606   5.444  0.2251 -0.4647 -0.5874
 3969TIP3   OH233321   0.384   3.827  15.384 -0.1845  0.0294 -0.5544
 3969TIP3    H133322   0.343   3.911  15.406  0.1995  0.4241 -1.3043
 3969TIP3    H233323   0.312   3.764  15.385 -0.2462  0.0726  1.4959
 3970TIP3   OH233324   0.477   6.754   2.103 -0.2374  0.0583  0.3457
 3970TIP3    H133325   0.477   6.780   2.011  0.6693 -0.4118  0.2047
 3970TIP3    H233326   0.478   6.658   2.101 -0.8103  0.0311  0.8586
 3971TIP3   OH233327   2.375   3.936   2.057  0.0703  0.5422 -0.1023
 3971TIP3    H133328   2.300   3.993   2.071  0.9397  1.8068 -0.4115
 3971TIP3    H233329   2.339   3.847   2.062 -1.5866  1.1197 -1.0494
 3972TIP3   OH233330   2.332   5.542   5.699  0.4139 -0.1635 -0.3329
 3972TIP3    H133331   2.381   5.595   5.636 -0.7906  0.9163 -0.4053
 3972TIP3    H233332   2.348   5.452   5.672  2.9078  0.0785  0.0611
 3973TIP3   OH233333   2.775   5.266  14.127  0.2204  0.3617  0.2120
 3973TIP3    H133334   2.706   5.332  14.135 -0.8165 -0.6329 -0.1275
 3973TIP3    H233335   2.855   5.311  14.153 -0.3335  1.9406 -0.6685
 3974TIP3   OH233336   5.875   5.110   5.734  0.6699 -0.0881  0.2308
 3974TIP3    H133337   5.893   5.027   5.691  1.1819 -0.2815  0.8101
 3974TIP3    H233338   5.812   5.154   5.677 -1.4416 -1.8659  1.0368
 3975TIP3   OH233339   5.508   0.400   1.994  0.2241 -0.0780  0.4974
 3975TIP3    H133340   5.451   0.392   1.917 -0.5992  0.5736  1.0096
 3975TIP3    H233341   5.491   0.489   2.026  2.5413  0.6272 -0.0904
 3976TIP3   OH233342   3.007   5.030  14.305 -0.6304  0.1964 -0.4134
 3976TIP3    H133343   3.075   5.041  14.238 -0.6910 -1.4436 -0.7870
 3976TIP3    H233344   3.048   4.974  14.371 -1.0757  0.5724  0.1903
 3977TIP3   OH233345   5.283   3.499  13.667 -0.2748  0.2247  0.0874
 3977TIP3    H133346   5.378   3.516  13.670 -0.2646  0.2041 -0.1179
 3977TIP3    H233347   5.246   3.578  13.627 -0.4884  0.8100  1.3933
 3978TIP3   OH233348   1.558   0.607  15.490 -0.1234  0.2881  0.2866
 3978TIP3    H133349   1.482   0.551  15.473  0.6950 -0.8482  0.3588
 3978TIP3    H233350   1.580   0.644  15.404  1.7739 -2.6310 -0.6242
 3979TIP3   OH233351   1.216   2.505  16.134 -0.0265  0.1299  0.2755
 3979TIP3    H133352   1.219   2.473  16.044  1.3706  2.7449 -0.6968
 3979TIP3    H233353   1.262   2.589  16.132  0.4613  0.0857  3.5332
 3980TIP3   OH233354   1.429   5.831   0.397 -0.0506  0.1695 -0.1813
 3980TIP3    H133355   1.372   5.792   0.332  0.3040  1.4393 -1.2947
 3980TIP3    H233356   1.517   5.817   0.363  0.1347  0.8867 -0.0087
 3981TIP3   OH233357   4.282   4.155  12.901  0.8909 -0.4661 -0.3025
 3981TIP3    H133358   4.231   4.181  12.824  0.8661 -0.4703 -0.2873
 3981TIP3    H233359   4.267   4.060  12.908 -1.4649 -0.0569  1.4011
 3982TIP3   OH233360   5.693   2.132  13.745 -0.3687  0.6993  0.0710
 3982TIP3    H133361   5.788   2.124  13.758 -0.2710 -1.9421 -1.4192
 3982TIP3    H233362   5.684   2.158  13.653 -1.0396 -1.2378 -0.4588
 3983TIP3   OH233363   6.035   5.893  14.023 -0.9279  0.0741 -0.0454
 3983TIP3    H133364   6.046   5.818  14.081  1.6087  0.0664 -0.3881
 3983TIP3    H233365   6.036   5.856  13.934  3.3179  0.4914 -0.4144
 3984TIP3   OH233366   5.954   2.956   0.083 -0.2423 -0.2677  0.5998
 3984TIP3    H133367   5.998   2.953  -0.002 -1.1307  0.9463  0.0610
 3984TIP3    H233368   5.983   2.877   0.128 -0.2563 -1.2863 -1.0911
 3985TIP3   OH233369   0.485   1.608   3.601 -0.0938 -0.5600  0.7188
 3985TIP3    H133370   0.543   1.600   3.677 -2.5241 -1.9203  2.5703
 3985TIP3    H233371   0.477   1.702   3.586  0.8330 -0.2876  1.7949
 3986TIP3   OH233372   4.937   0.912   3.913 -0.4239 -0.0344 -0.7620
 3986TIP3    H133373   4.898   0.971   3.848 -0.0248  0.1003 -0.8813
 3986TIP3    H233374   5.021   0.887   3.874  0.3382  0.9388  0.1974
 3987TIP3   OH233375   1.678   1.471  17.021  0.4560 -0.1174 -0.5636
 3987TIP3    H133376   1.617   1.520  17.077 -0.0923  0.9602 -2.0287
 3987TIP3    H233377   1.722   1.411  17.080 -1.0416  0.0472  0.7998
 3988TIP3   OH233378   5.602   6.434  11.149 -0.0262  0.0100  0.5658
 3988TIP3    H133379   5.638   6.505  11.096 -0.6146 -0.6461 -0.7925
 3988TIP3    H233380   5.508   6.438  11.133  0.0352 -1.8065 -0.5557
 3989TIP3   OH233381   0.942   3.465   2.642  0.3228 -0.1285 -0.0802
 3989TIP3    H133382   0.869   3.523   2.665  0.5538  0.2804 -0.3559
 3989TIP3    H233383   1.020   3.515   2.666  0.5093 -0.7978  0.7599
 3990TIP3   OH233384   2.516   2.339   5.528  0.0349 -0.2076 -0.7385
 3990TIP3    H133385   2.522   2.254   5.483  0.7927  0.0823 -1.2049
 3990TIP3    H233386   2.467   2.394   5.467  0.0132 -0.1593 -0.6766
 3991TIP3   OH233387   4.152   3.316  11.592 -0.2766  1.0002 -0.7191
 3991TIP3    H133388   4.200   3.398  11.587 -0.5808  1.1164 -1.7491
 3991TIP3    H233389   4.185   3.274  11.672  0.3337  1.8279 -0.5307
 3992TIP3   OH233390   2.910   3.263   3.243  0.0424 -0.6905  0.1516
 3992TIP3    H133391   2.943   3.348   3.272 -1.3460  0.5828 -1.7507
 3992TIP3    H233392   2.947   3.250   3.156 -1.1007 -1.1839 -0.2946
 3993TIP3   OH233393   4.576   0.298   3.617  0.2122  0.6034 -0.6668
 3993TIP3    H133394   4.530   0.248   3.685 -0.9334  1.0244 -1.1108
 3993TIP3    H233395   4.582   0.387   3.653 -1.7488  1.2179 -1.6597
 3994TIP3   OH233396   2.963   0.554  15.380  0.4242 -1.0348 -0.5629
 3994TIP3    H133397   3.017   0.602  15.317  1.7480 -2.4714 -0.5942
 3994TIP3    H233398   3.000   0.465  15.379 -0.5793 -1.4956  1.0433
 3995TIP3   OH233399   2.937   5.790  16.400 -0.4620 -0.0276 -0.1030
 3995TIP3    H133400   3.025   5.824  16.411 -1.8592  3.7528  0.7547
 3995TIP3    H233401   2.906   5.774  16.489 -1.2989  0.6390 -0.2614
 3996TIP3   OH233402   1.658   1.819   6.355 -0.6651  0.1530 -0.1598
 3996TIP3    H133403   1.565   1.835   6.343 -0.9803 -1.2327  0.2246
 3996TIP3    H233404   1.693   1.901   6.390 -1.7014  0.7374 -0.4740
 3997TIP3   OH233405   0.795   2.068   0.242 -0.2493  0.1139 -0.6011
 3997TIP3    H133406   0.789   2.100   0.332  1.1839 -3.1464  0.8108
 3997TIP3    H233407   0.705   2.049   0.216 -0.6601  0.9946  0.1381
 3998TIP3   OH233408   1.737   1.940   1.120 -0.4399  0.2408  0.3670
 3998TIP3    H133409   1.822   1.985   1.120 -0.8575  1.0975 -0.7393
 3998TIP3    H233410   1.744   1.877   1.048 -1.1065  1.1140 -0.4968
 3999TIP3   OH233411   0.150   4.678   0.832 -0.4114 -0.1200 -0.0104
 3999TIP3    H133412   0.079   4.738   0.808 -0.5883 -0.7948 -1.2604
 3999TIP3    H233413   0.109   4.612   0.887 -0.7070 -0.3656 -0.5216
 4000TIP3   OH233414   0.930   3.920   1.262  0.6256 -0.1922 -0.3230
 4000TIP3    H133415   0.843   3.917   1.303  0.4672 -2.4715 -0.6721
 4000TIP3    H233416   0.912   3.930   1.169  0.9380  3.2462 -0.1372
 4001TIP3   OH233417   1.762   4.279   2.571  0.3037 -0.8222 -0.2066
 4001TIP3    H133418   1.806   4.334   2.636 -1.9977  0.0706  0.7078
 4001TIP3    H233419   1.822   4.206   2.557  1.6597 -0.1465  1.6028
 4002TIP3   OH233420   0.669   5.510  15.602  0.8044  0.1219 -0.4718
 4002TIP3    H133421   0.635   5.570  15.536 -0.2825 -1.1544 -1.1206
 4002TIP3    H233422   0.751   5.478  15.565  0.9715  0.5640 -0.4902
 4003TIP3   OH233423   4.031   3.037  12.708  0.1394 -0.5585  0.4372
 4003TIP3    H133424   4.070   3.125  12.709 -1.8465  0.3876  1.1439
 4003TIP3    H233425   3.956   3.044  12.768 -1.2751 -2.1510 -1.0454
 4004TIP3   OH233426   4.671   1.380   2.922  0.4781 -0.4189 -0.1423
 4004TIP3    H133427   4.625   1.446   2.871 -0.3677  1.0336  2.3183
 4004TIP3    H233428   4.664   1.300   2.870 -1.9439  0.5373 -1.4366
 4005TIP3   OH233429   1.349   5.021  11.693  0.4107  0.4970 -0.2854
 4005TIP3    H133430   1.265   5.047  11.730 -0.0585 -1.7595  0.4126
 4005TIP3    H233431   1.347   5.054  11.603 -0.6026  1.6665  0.1368
 4006TIP3   OH233432   0.038   0.402  12.036  0.1707 -0.0154  0.6167
 4006TIP3    H133433   0.025   0.385  12.129 -2.1063 -1.2715  0.1372
 4006TIP3    H233434  -0.018   0.477  12.018  0.6862  0.2897  0.2592
 4007TIP3   OH233435   0.725   0.869   0.893  0.0115 -0.6451  0.1728
 4007TIP3    H133436   0.810   0.876   0.848 -0.1787  3.7472  0.0121
 4007TIP3    H233437   0.742   0.901   0.982 -1.6593  2.4811 -0.4710
 4008TIP3   OH233438   3.568   6.447  12.862 -0.4912  0.5341 -0.2553
 4008TIP3    H133439   3.661   6.444  12.884 -0.5353 -1.4808 -0.1415
 4008TIP3    H233440   3.557   6.528  12.814  1.2100  1.0890  0.2354
 4009TIP3   OH233441   4.358   0.182   3.482  0.5678  0.0609  0.2229
 4009TIP3    H133442   4.351   0.186   3.578  0.4170 -2.4390  0.3956
 4009TIP3    H233443   4.450   0.201   3.464  0.5366  0.8439  0.8198
 4010TIP3   OH233444   6.479   4.462  12.164 -0.2069  0.0037  0.0227
 4010TIP3    H133445   6.390   4.435  12.187  0.9494 -4.1289  0.3738
 4010TIP3    H233446   6.488   4.441  12.071  0.2495  0.9240 -0.1536
 4011TIP3   OH233447   6.059   1.663  12.725 -0.4793  0.5313 -0.0906
 4011TIP3    H133448   6.024   1.610  12.797 -2.0272  2.6822  0.8535
 4011TIP3    H233449   5.998   1.647  12.652  0.7264 -1.1528 -0.7930
 4012TIP3   OH233450   3.825   3.362   1.705 -0.1728  0.7071 -0.2664
 4012TIP3    H133451   3.737   3.376   1.741 -0.3019 -0.7885  0.0736
 4012TIP3    H233452   3.810   3.336   1.614 -0.3384 -2.2441  0.4915
 4013TIP3   OH233453   3.744   3.125   1.130 -0.0064 -0.8821  0.0327
 4013TIP3    H133454   3.779   3.072   1.058 -1.8033 -2.6032  0.3346
 4013TIP3    H233455   3.661   3.082   1.153 -1.8763  2.3796 -0.0266
 4014TIP3   OH233456   2.720   2.427  11.974  0.2681 -0.0100 -0.6373
 4014TIP3    H133457   2.743   2.512  12.010  1.1062 -0.7990  0.8000
 4014TIP3    H233458   2.793   2.404  11.917  0.6634 -0.2963 -0.0321
 4015TIP3   OH233459   0.140   5.931   4.515 -0.0224  0.5652  0.1660
 4015TIP3    H133460   0.128   5.953   4.423  2.3422 -0.2665 -0.4168
 4015TIP3    H233461   0.204   5.994   4.547 -1.4686  1.4233  1.5537
 4016TIP3   OH233462   5.101   3.626  11.345 -0.9328  0.0051 -1.3086
 4016TIP3    H133463   5.019   3.671  11.363 -0.9299 -1.2599  2.8633
 4016TIP3    H233464   5.166   3.697  11.339 -1.6297  0.8399  0.3105
 4017TIP3   OH233465   0.682   0.032  14.051 -0.3007 -0.5446 -0.4822
 4017TIP3    H133466   0.718   0.044  14.139 -0.4048 -0.0635 -0.5006
 4017TIP3    H233467   0.620  -0.040  14.059 -0.8153 -0.0622 -0.0048
 4018TIP3   OH233468   6.014   2.740   0.239  0.4056 -0.1165 -0.4523
 4018TIP3    H133469   5.945   2.692   0.192  0.8973 -1.2455 -0.0555
 4018TIP3    H233470   6.064   2.672   0.283  0.6659  0.8362  0.7700
 4019TIP3   OH233471   0.424   0.946  15.365  0.2183  0.0052 -0.1806
 4019TIP3    H133472   0.469   1.030  15.353 -0.3810  0.3161 -0.2934
 4019TIP3    H233473   0.491   0.888  15.402  1.3906 -0.2495 -2.5279
 4020TIP3   OH233474   5.716   1.989  16.688  0.2044  0.0404 -0.4275
 4020TIP3    H133475   5.666   1.999  16.607  1.9963  0.7631 -1.5125
 4020TIP3    H233476   5.793   1.937  16.663  0.2928 -0.5840  1.0438
 4021TIP3   OH233477   6.366   0.224  12.606  0.1870 -0.1555 -0.8398
 4021TIP3    H133478   6.386   0.159  12.674  0.8118  1.5748  0.6987
 4021TIP3    H233479   6.282   0.196  12.570  1.0849 -2.5903 -1.2259
 4022TIP3   OH233480   6.686   1.394   2.098  0.2073 -0.2001  0.0765
 4022TIP3    H133481   6.714   1.317   2.146  1.5526  0.7646  0.9257
 4022TIP3    H233482   6.730   1.388   2.014  1.2983  0.2093  0.5938
 4023TIP3   OH233483   0.056   5.261  17.308  0.0356  0.3476 -0.1352
 4023TIP3    H133484  -0.016   5.323  17.313  0.3149  0.6235  0.7505
 4023TIP3    H233485   0.015   5.178  17.281 -0.3279  0.9071 -1.3705
 4024TIP3   OH233486   2.458   1.790  14.945  0.3132  0.2017 -0.0158
 4024TIP3    H133487   2.491   1.875  14.916  0.0315 -0.1671 -1.5671
 4024TIP3    H233488   2.452   1.797  15.040  0.6356  1.7862 -0.0805
 4025TIP3   OH233489   6.482   0.112  13.500  0.1844  0.2835  0.4089
 4025TIP3    H133490   6.571   0.090  13.527  0.9553  2.2335 -0.3563
 4025TIP3    H233491   6.491   0.139  13.409 -1.4323 -0.7288 -0.0912
 4026TIP3   OH233492   6.296   2.237  13.415  0.0461  0.1322  0.9539
 4026TIP3    H133493   6.281   2.158  13.467  1.7682 -1.3119 -0.6089
 4026TIP3    H233494   6.227   2.235  13.348  0.0665 -0.0241  0.9378
 4027TIP3   OH233495   1.327   2.352  17.056  0.0891  0.2894  0.0575
 4027TIP3    H133496   1.233   2.334  17.059  0.4099 -1.4193  1.1851
 4027TIP3    H233497   1.353   2.326  16.968 -0.6735  1.9742 -0.7099
 4028TIP3   OH233498   2.403   0.994  13.967  0.0797  0.1573 -0.0506
 4028TIP3    H133499   2.340   0.922  13.978 -1.5336  1.3722 -0.8402
 4028TIP3    H233500   2.378   1.058  14.034  1.4637  0.0335  0.6108
 4029TIP3   OH233501   4.781   5.094   0.536  0.0144  0.1311 -0.2602
 4029TIP3    H133502   4.768   5.046   0.454  0.9988  1.9579 -1.5539
 4029TIP3    H233503   4.730   5.046   0.600 -1.9187 -0.6044 -2.2330
 4030TIP3   OH233504   6.102   4.957   6.143  0.0101  0.2045  0.7725
 4030TIP3    H133505   6.050   4.909   6.207 -2.2894 -0.7611 -1.6155
 4030TIP3    H233506   6.116   4.894   6.072  0.3558  1.8988 -0.7257
 4031TIP3   OH233507   4.224   4.223   4.091 -0.0310  0.5186  0.2979
 4031TIP3    H133508   4.190   4.135   4.077  0.6655  0.4561 -1.1796
 4031TIP3    H233509   4.243   4.256   4.003 -0.0839  2.0677  0.8390
 4032TIP3   OH233510   4.546   1.973   1.967  0.1461 -0.1458  0.1172
 4032TIP3    H133511   4.459   2.010   1.956 -0.0015 -0.1983  1.0376
 4032TIP3    H233512   4.582   1.969   1.878 -0.5278  0.4938 -0.1917
 4033TIP3   OH233513   6.548   5.617  15.370 -0.0729 -0.1465 -0.3824
 4033TIP3    H133514   6.546   5.631  15.465  2.1108 -1.9780  0.0144
 4033TIP3    H233515   6.606   5.686  15.337  0.9338 -0.8210 -0.0617
 4034TIP3   OH233516   5.844   4.866   1.417  0.5705 -0.2300  0.1899
 4034TIP3    H133517   5.930   4.827   1.403  1.0504  0.9625 -0.2831
 4034TIP3    H233518   5.827   4.916   1.338 -0.6349 -0.5662  0.2212
 4035TIP3   OH233519   2.825   0.556  13.093 -0.8548  0.1198 -0.1827
 4035TIP3    H133520   2.906   0.507  13.104 -1.3562 -1.3312 -2.4284
 4035TIP3    H233521   2.852   0.648  13.099  0.3991 -0.3212  2.2208
 4036TIP3   OH233522   2.633   3.859   0.625 -0.2718 -0.0258  1.0042
 4036TIP3    H133523   2.704   3.834   0.564 -1.5693 -1.7901  0.1108
 4036TIP3    H233524   2.607   3.946   0.596  0.1426 -0.2227 -0.0412
 4037TIP3   OH233525   1.875   3.577  16.579  0.0648  0.4152  0.2894
 4037TIP3    H133526   1.886   3.606  16.670 -0.5889  1.0926  0.1620
 4037TIP3    H233527   1.962   3.547  16.553  0.8525  2.4357  0.3917
 4038TIP3   OH233528   3.853   0.752  11.540 -0.2934 -0.7271 -0.4227
 4038TIP3    H133529   3.920   0.818  11.558  0.3546 -0.8133 -2.2677
 4038TIP3    H233530   3.831   0.716  11.626 -0.1847  1.4063  0.5574
 4039TIP3   OH233531   5.597   0.272   0.149 -0.4504  0.1068  0.0339
 4039TIP3    H133532   5.594   0.342   0.084 -2.4174 -1.2148 -1.4230
 4039TIP3    H233533   5.605   0.192   0.097  2.7714 -0.8114  1.6658
 4040TIP3   OH233534   6.225   3.191   0.261 -0.1263 -0.6874  0.4725
 4040TIP3    H133535   6.232   3.196   0.356 -0.6279 -3.2201  0.7094
 4040TIP3    H233536   6.192   3.103   0.244 -1.8803  0.3242 -1.9591
 4041TIP3   OH233537   0.442   3.980   3.500 -0.6159 -0.0818  0.0366
 4041TIP3    H133538   0.406   3.892   3.510  0.5685 -0.8885 -2.2418
 4041TIP3    H233539   0.366   4.038   3.506 -1.2053 -0.9801  3.6641
 4042TIP3   OH233540   5.143   2.687  13.898 -0.1026  0.1517 -0.3529
 4042TIP3    H133541   5.214   2.623  13.900 -0.8259 -0.7238 -1.1917
 4042TIP3    H233542   5.186   2.772  13.907  0.9460 -0.4067  0.1175
 4043TIP3   OH233543   2.042   1.713   2.244  0.1324 -0.2444 -0.0067
 4043TIP3    H133544   2.119   1.758   2.210 -0.5528  1.3956  0.4628
 4043TIP3    H233545   2.021   1.647   2.178  3.4148 -2.5897  1.0525
 4044TIP3   OH233546   6.288   1.853   3.641 -0.1941  0.1635 -0.4797
 4044TIP3    H133547   6.217   1.791   3.656 -1.2135  1.4813  0.4489
 4044TIP3    H233548   6.341   1.814   3.571 -0.8911 -1.6250 -0.0448
 4045TIP3   OH233549   1.151   1.141  11.632  0.0928 -0.1119 -0.1835
 4045TIP3    H133550   1.204   1.105  11.703  0.9082  0.6066 -0.4222
 4045TIP3    H233551   1.188   1.103  11.553  0.4914  0.6681 -0.3787
 4046TIP3   OH233552   5.530   4.406  11.603  0.1731  0.1686  0.5523
 4046TIP3    H133553   5.538   4.502  11.602 -3.2104  0.5750  1.8440
 4046TIP3    H233554   5.484   4.385  11.522 -0.0005 -0.2500  0.7579
 4047TIP3   OH233555   2.867   1.732   2.109  0.1342  0.5776  0.5820
 4047TIP3    H133556   2.822   1.651   2.136  0.9599  0.4909  1.7849
 4047TIP3    H233557   2.828   1.800   2.164  0.4132  0.7598  0.5537
 4048TIP3   OH233558   5.557   5.299  11.774 -0.3450  0.0491 -0.3930
 4048TIP3    H133559   5.475   5.266  11.811 -0.3160 -1.0585 -1.2673
 4048TIP3    H233560   5.625   5.265  11.832 -0.4652  0.7539  0.1836
 4049TIP3   OH233561   2.664   6.226   5.674  0.3912 -0.0779 -0.2730
 4049TIP3    H133562   2.760   6.220   5.669  0.4016 -0.8278  0.5209
 4049TIP3    H233563   2.634   6.200   5.587  0.8885 -0.7699 -0.2491
 4050TIP3   OH233564   6.031   6.261  13.909 -0.5929 -0.2245  0.0743
 4050TIP3    H133565   6.073   6.230  13.989  0.2127  0.8331  0.0848
 4050TIP3    H233566   5.995   6.182  13.869  0.4251 -1.0130  0.6478
 4051TIP3   OH233567   4.409   2.526  17.150  0.3568  0.4588 -0.2721
 4051TIP3    H133568   4.438   2.442  17.186 -0.2864  0.5987  0.5926
 4051TIP3    H233569   4.402   2.584  17.226 -0.9268  0.7922 -0.6325
 4052TIP3   OH233570   1.030   1.668  17.086 -0.5629 -0.6332 -0.2074
 4052TIP3    H133571   0.979   1.598  17.125  1.1299 -2.4443 -1.0774
 4052TIP3    H233572   1.006   1.667  16.993 -2.6252  1.9166  0.1685
 4053TIP3   OH233573   5.500   3.041   3.133 -0.0897 -0.2770 -0.4320
 4053TIP3    H133574   5.472   2.957   3.171  0.3858 -0.6270 -0.8456
 4053TIP3    H233575   5.539   3.017   3.049 -0.4657  0.4192 -0.8081
 4054TIP3   OH233576   5.445   5.481   1.709  0.6659 -0.1617 -0.1250
 4054TIP3    H133577   5.538   5.461   1.697  0.6478  0.1449 -0.8193
 4054TIP3    H233578   5.399   5.408   1.669  0.5886 -0.9866  1.3907
 4055TIP3   OH233579   6.474   3.576  16.456  0.2411 -0.1340 -0.6978
 4055TIP3    H133580   6.516   3.619  16.531 -0.0107 -2.2864  0.7602
 4055TIP3    H233581   6.499   3.629  16.381  0.4319  2.1860  0.8920
 4056TIP3   OH233582   0.652   3.959   5.855  0.3978 -0.6180 -0.2158
 4056TIP3    H133583   0.632   3.869   5.880 -0.2090  0.0055  1.7108
 4056TIP3    H233584   0.669   4.004   5.938 -1.7128  1.6056 -0.8708
 4057TIP3   OH233585   3.290   5.366  11.544  0.0250 -0.1064  0.3026
 4057TIP3    H133586   3.357   5.381  11.478 -0.3785  2.9768  0.4763
 4057TIP3    H233587   3.215   5.332  11.496 -0.5111  2.7466 -1.0736
 4058TIP3   OH233588   4.425   4.134   0.457 -0.0861 -0.2889 -0.2224
 4058TIP3    H133589   4.464   4.217   0.430 -0.4720 -0.4559 -1.3399
 4058TIP3    H233590   4.335   4.156   0.482 -1.1202 -0.7393 -3.2241
 4059TIP3   OH233591   1.014   0.981   3.626 -0.2549 -0.0533 -0.0370
 4059TIP3    H133592   0.933   0.995   3.576  0.7712 -0.8248 -2.0464
 4059TIP3    H233593   1.068   1.058   3.607  0.2615 -0.4943 -0.3884
 4060TIP3   OH233594   2.640   1.561   2.582  0.4834 -0.3460 -0.0050
 4060TIP3    H133595   2.562   1.606   2.615  0.6128  0.2052 -0.4417
 4060TIP3    H233596   2.646   1.482   2.636 -2.1907 -2.0983 -1.9530
 4061TIP3   OH233597   2.054   0.245  11.823 -0.2790 -0.4838 -0.0458
 4061TIP3    H133598   1.986   0.179  11.838 -0.4344 -0.1984  0.5788
 4061TIP3    H233599   2.131   0.211  11.869  0.0991 -0.9456 -0.9960
 4062TIP3   OH233600   2.033   0.132  16.351 -0.5633  0.0498 -0.4194
 4062TIP3    H133601   2.021   0.038  16.368 -0.9279 -0.1843 -1.8388
 4062TIP3    H233602   2.006   0.175  16.432 -0.1174 -1.0789  0.3555
 4063TIP3   OH233603   2.986   5.015   5.307  0.3542 -0.5905 -0.0218
 4063TIP3    H133604   2.958   5.055   5.225  0.6533  0.3503  0.3171
 4063TIP3    H233605   2.929   4.939   5.318 -0.4317 -0.0900 -0.5406
 4064TIP3   OH233606   0.885   5.694  14.441 -0.2227  0.0316  0.1443
 4064TIP3    H133607   0.915   5.759  14.377  1.6278 -0.2542  0.6439
 4064TIP3    H233608   0.891   5.610  14.394 -2.6396  0.1715 -0.5121
 4065TIP3   OH233609   2.887   1.912   4.889 -0.4448  0.2784 -0.0862
 4065TIP3    H133610   2.808   1.943   4.933 -1.0911  1.0635 -1.7362
 4065TIP3    H233611   2.858   1.838   4.836 -0.2291  0.9863 -1.2203
 4066TIP3   OH233612   5.309   6.553   3.681 -0.0580  0.3590 -0.4225
 4066TIP3    H133613   5.401   6.550   3.656 -0.4960 -1.6734 -2.0785
 4066TIP3    H233614   5.305   6.501   3.761 -0.0278 -1.4805 -1.5567
 4067TIP3   OH233615   1.617   1.870   3.406 -0.2029  0.1478 -0.1222
 4067TIP3    H133616   1.709   1.862   3.380  0.2060  0.7319  1.0815
 4067TIP3    H233617   1.568   1.845   3.328  0.9286 -2.9955  0.0577
 4068TIP3   OH233618   6.151   5.752   1.544 -0.3081 -0.4389  0.5048
 4068TIP3    H133619   6.227   5.695   1.529 -0.6093 -0.6709 -0.1787
 4068TIP3    H233620   6.163   5.784   1.633  1.3386  0.6526 -0.0636
 4069TIP3   OH233621   5.959   5.767  12.205  0.0844 -0.0379  0.0664
 4069TIP3    H133622   5.881   5.812  12.173 -0.0524 -0.2890  0.0487
 4069TIP3    H233623   5.927   5.705  12.270  0.3627  0.4828  0.7188
 4070TIP3   OH233624   3.282   4.560  12.978 -0.0895 -0.1867 -0.1856
 4070TIP3    H133625   3.324   4.536  13.060  0.3796 -2.0063 -0.9099
 4070TIP3    H233626   3.245   4.647  12.994  3.2668  1.2313  0.7437
 4071TIP3   OH233627   0.182   5.538   0.681 -0.3517  0.0849 -0.1866
 4071TIP3    H133628   0.252   5.563   0.741  0.2970 -0.6782 -0.6149
 4071TIP3    H233629   0.104   5.534   0.736  0.1874 -0.3664  0.5682
 4072TIP3   OH233630   3.072   0.186  12.778 -0.3624 -0.0174  0.2628
 4072TIP3    H133631   2.978   0.204  12.774 -0.7235 -1.8209 -0.3893
 4072TIP3    H233632   3.111   0.246  12.714 -1.5198 -1.5919 -2.0515
 4073TIP3   OH233633   0.642   6.146   5.265  0.2227  0.0069  0.2846
 4073TIP3    H133634   0.604   6.234   5.262 -0.5375 -0.2719  1.2688
 4073TIP3    H233635   0.581   6.091   5.216 -1.1641 -0.5993  2.5587
 4074TIP3   OH233636   5.137   0.255   2.926  0.0576  0.0450  0.7330
 4074TIP3    H133637   5.051   0.297   2.927  1.4603  3.1790  1.6126
 4074TIP3    H233638   5.131   0.188   2.994 -1.5830  0.3562  0.9471
 4075TIP3   OH233639   0.911   1.301  16.497 -0.1483 -0.2349 -0.6280
 4075TIP3    H133640   0.883   1.335  16.582  0.2813  0.7541 -0.8751
 4075TIP3    H233641   0.918   1.378  16.441 -1.4172 -0.9740 -1.8669
 4076TIP3   OH233642   2.691   3.936   4.903 -0.0437 -0.3048  0.4494
 4076TIP3    H133643   2.701   4.029   4.920 -1.5904 -0.2741  1.4232
 4076TIP3    H233644   2.769   3.896   4.941 -0.1016  0.4703  1.4333
 4077TIP3   OH233645   6.694   5.975   1.808 -0.0482  0.2281 -0.6747
 4077TIP3    H133646   6.737   6.054   1.776  1.0828 -0.4319 -0.8598
 4077TIP3    H233647   6.765   5.912   1.819 -1.0010 -0.9692 -1.1342
 4078TIP3   OH233648   2.444   6.503  11.031 -0.2471  0.0745  0.3095
 4078TIP3    H133649   2.519   6.545  11.075  0.9396  0.6364 -2.0852
 4078TIP3    H233650   2.479   6.420  10.999 -0.0934  1.0068 -2.1643
 4079TIP3   OH233651   5.568   6.637  12.133 -0.2716  0.2935 -0.0979
 4079TIP3    H133652   5.534   6.697  12.200 -0.2160  1.6343 -1.2231
 4079TIP3    H233653   5.626   6.578  12.182  2.0395  2.9809  0.7227
 4080TIP3   OH233654   2.336   6.118  12.616  0.2446 -0.3481 -0.3611
 4080TIP3    H133655   2.431   6.108  12.609  0.2067 -1.7366  0.6675
 4080TIP3    H233656   2.308   6.043  12.668 -1.3280  0.4635  0.0236
 4081TIP3   OH233657   1.913   3.474   1.138 -0.0160  0.6310 -0.1605
 4081TIP3    H133658   1.869   3.400   1.179 -2.1169  0.7428 -2.0319
 4081TIP3    H233659   2.006   3.452   1.142 -0.5185 -1.6515  0.1792
 4082TIP3   OH233660   6.761   1.726   0.887  0.0981 -0.2844 -0.2288
 4082TIP3    H133661   6.799   1.807   0.921 -0.0956 -0.0604 -0.5416
 4082TIP3    H233662   6.700   1.698   0.955  1.7571 -1.3735  0.9172
 4083TIP3   OH233663   1.428   2.305   6.222 -0.1922  0.6499 -0.4292
 4083TIP3    H133664   1.409   2.211   6.233 -2.9660  1.1429 -0.4814
 4083TIP3    H233665   1.493   2.324   6.289  0.2242 -1.2413 -0.2385
 4084TIP3   OH233666   5.878   5.534   2.940  0.5329  0.0627 -0.2155
 4084TIP3    H133667   5.896   5.608   2.882  2.2200  0.5540  0.8660
 4084TIP3    H233668   5.910   5.458   2.892 -2.7233 -0.3318 -2.0764
 4085TIP3   OH233669   3.966   4.950   1.716  0.5048 -0.6857  0.0319
 4085TIP3    H133670   3.944   4.929   1.807 -1.9558  1.4677  0.0391
 4085TIP3    H233671   3.950   4.870   1.668  0.1639 -1.3819  1.2583
 4086TIP3   OH233672   2.445   0.471   4.546 -0.4680 -0.7358  0.1217
 4086TIP3    H133673   2.420   0.563   4.555 -2.1119 -1.2634  1.4815
 4086TIP3    H233674   2.370   0.422   4.578  0.1642 -2.5996 -1.0290
 4087TIP3   OH233675   3.969   4.187   3.102  0.3093 -0.5179  0.0227
 4087TIP3    H133676   3.997   4.098   3.123  1.1842  0.0637  1.4956
 4087TIP3    H233677   4.021   4.211   3.025  1.8289 -0.4772  1.0122
 4088TIP3   OH233678   6.398   1.976   2.354  0.1381 -0.1451  0.3632
 4088TIP3    H133679   6.354   2.019   2.280 -0.3578  0.2255  0.8706
 4088TIP3    H233680   6.471   1.930   2.314 -2.0803 -2.9030 -0.9224
 4089TIP3   OH233681   0.836   0.110   0.246 -0.4747 -0.3411 -0.3714
 4089TIP3    H133682   0.747   0.116   0.281 -0.6264 -0.0535 -0.7921
 4089TIP3    H233683   0.878   0.043   0.299 -0.2487  1.0576  1.2955
 4090TIP3   OH233684   0.272   6.184  15.452 -0.7179 -0.1247 -0.4935
 4090TIP3    H133685   0.341   6.250  15.457 -2.9448  2.4252 -1.0763
 4090TIP3    H233686   0.269   6.145  15.539  0.2761  0.9948  0.0606
 4091TIP3   OH233687   1.314   1.205   5.420 -0.4562  0.1395 -0.3613
 4091TIP3    H133688   1.232   1.185   5.466  0.5043 -1.7920  0.6431
 4091TIP3    H233689   1.299   1.291   5.381 -2.3914  0.5463  1.0971
 4092TIP3   OH233690   1.086   1.539  15.739 -0.1247 -0.3916  0.0826
 4092TIP3    H133691   1.094   1.460  15.687 -0.2783 -0.2205 -0.1999
 4092TIP3    H233692   1.056   1.509  15.825 -1.3370 -0.5197 -0.3708
 4093TIP3   OH233693   6.624   4.408   5.994 -0.1825 -0.5090  0.0237
 4093TIP3    H133694   6.688   4.447   5.934  0.2426  0.6037  1.1667
 4093TIP3    H233695   6.600   4.479   6.053 -0.8771 -1.4926  0.9591
 4094TIP3   OH233696   2.079   6.744   0.854  0.2718 -0.0992 -0.6618
 4094TIP3    H133697   2.139   6.814   0.826  0.1417  0.8327  1.2322
 4094TIP3    H233698   2.119   6.664   0.820  3.5542  0.2593  1.8171
 4095TIP3   OH233699   6.637   5.186   3.465  0.0639  0.2151  0.1476
 4095TIP3    H133700   6.600   5.097   3.464 -1.2547  0.7366  0.5542
 4095TIP3    H233701   6.566   5.241   3.497  0.9751  1.3850  0.2219
 4096TIP3   OH233702   4.633   0.394   6.014 -0.6037  0.4962 -0.2036
 4096TIP3    H133703   4.558   0.334   6.019 -0.0061 -0.1445  2.1087
 4096TIP3    H233704   4.692   0.364   6.083  2.0290  0.7180 -2.2233
 4097TIP3   OH233705   3.007   5.249   6.159 -0.0341  0.3240  0.4620
 4097TIP3    H133706   2.988   5.158   6.138  1.4102 -0.3313  1.7535
 4097TIP3    H233707   2.939   5.274   6.222  0.7775 -0.6042  1.7620
 4098TIP3   OH233708   0.920   6.129  17.244 -0.4842 -0.2905  0.7404
 4098TIP3    H133709   0.936   6.079  17.324  1.7222  0.6245  0.9587
 4098TIP3    H233710   1.006   6.135  17.202 -1.4356 -0.0574 -1.2998
 4099TIP3   OH233711   3.955   4.061   4.039  0.1742 -0.6018 -0.0065
 4099TIP3    H133712   3.961   4.150   4.004 -1.5028 -0.0005  1.1357
 4099TIP3    H233713   3.877   4.024   3.997 -0.3716 -0.7623  1.1183
 4100TIP3   OH233714   0.806   2.335  10.505  0.3822  0.3070  0.1745
 4100TIP3    H133715   0.900   2.326  10.488 -0.0339 -0.1535 -2.3601
 4100TIP3    H233716   0.780   2.249  10.538  0.3378 -0.7352 -2.3514
 4101TIP3   OH233717   1.037   5.988   2.800 -0.1456  0.3501  0.0287
 4101TIP3    H133718   0.943   5.975   2.785  0.1575 -1.5989 -0.3993
 4101TIP3    H233719   1.049   6.082   2.791 -2.4148  0.9674  2.1901
 4102TIP3   OH233720   5.466   3.463  14.730  0.5858  0.8978  0.3261
 4102TIP3    H133721   5.487   3.370  14.725  0.1253  0.8456 -0.8456
 4102TIP3    H233722   5.388   3.467  14.786 -0.2463  0.4199 -0.7678
 4103TIP3   OH233723   1.801   5.048  10.911  0.3771 -0.0985 -0.1570
 4103TIP3    H133724   1.827   5.135  10.881  1.0052  0.8128  2.7064
 4103TIP3    H233725   1.711   5.038  10.881 -0.4159  2.4500  1.0946
 4104TIP3   OH233726   2.857   3.694   0.511  0.7984 -0.7149  0.4024
 4104TIP3    H133727   2.818   3.625   0.456  0.8340 -1.2649  1.0510
 4104TIP3    H233728   2.912   3.744   0.450  0.1720 -0.7841 -0.2382
 4105TIP3   OH233729   6.329   6.116  15.298 -0.2161  0.5025 -0.1158
 4105TIP3    H133730   6.330   6.034  15.348  0.8654  0.9781  0.6593
 4105TIP3    H233731   6.366   6.092  15.213  1.5843  0.4974  0.6435
 4106TIP3   OH233732   0.660   3.215  16.997 -0.0732  0.0182 -0.3880
 4106TIP3    H133733   0.697   3.136  16.960 -0.1180  0.0571 -0.5148
 4106TIP3    H233734   0.724   3.284  16.976  0.6172 -0.2051  0.8437
 4107TIP3   OH233735   2.845   3.832   4.044 -0.1484  0.3621 -0.1128
 4107TIP3    H133736   2.935   3.830   4.011 -0.1583  0.9230 -0.1840
 4107TIP3    H233737   2.793   3.793   3.975  0.0958 -0.3732  0.1123
 4108TIP3   OH233738   2.528   6.228  15.811  0.3977  0.6812  0.5613
 4108TIP3    H133739   2.442   6.216  15.850  0.6464 -0.1459  0.8937
 4108TIP3    H233740   2.519   6.303  15.753 -1.2720 -1.0507 -1.5344
 4109TIP3   OH233741   0.063   2.235   6.259 -0.3811  0.0662 -0.1564
 4109TIP3    H133742   0.064   2.139   6.259 -3.4477 -0.0765  0.3459
 4109TIP3    H233743   0.017   2.258   6.340 -1.5551  1.8487 -1.2601
 4110TIP3   OH233744   6.390   2.283  12.709  0.0435 -0.0018  0.5030
 4110TIP3    H133745   6.318   2.234  12.749  0.3119 -0.2653  0.6694
 4110TIP3    H233746   6.452   2.297  12.780  1.1223 -1.5997 -0.0703
 4111TIP3   OH233747   2.996   3.332   1.530 -0.0283  0.3434  0.1386
 4111TIP3    H133748   3.039   3.247   1.525 -0.7138 -0.0747  1.0551
 4111TIP3    H233749   3.055   3.386   1.583  0.6263  0.5933 -0.8238
 4112TIP3   OH233750   2.327   6.403   3.804 -0.0380  0.5626  0.1998
 4112TIP3    H133751   2.232   6.393   3.796  0.1872 -1.9823 -0.2430
 4112TIP3    H233752   2.358   6.317   3.835  2.2079  0.9927 -0.6058
 4113TIP3   OH233753   2.438   4.837   3.083  0.4385 -0.3094  0.1396
 4113TIP3    H133754   2.478   4.908   3.033  0.2563 -0.0627  0.3448
 4113TIP3    H233755   2.375   4.880   3.141 -0.1718 -0.6921 -0.2233
 4114TIP3   OH233756   3.254   3.247   4.615  0.5967 -0.4483  0.1267
 4114TIP3    H133757   3.244   3.335   4.653 -0.9986 -0.1927 -0.7834
 4114TIP3    H233758   3.348   3.230   4.618  1.5318  2.9261 -3.2199
 4115TIP3   OH233759   6.048   4.858   4.720  0.4522 -0.4135  0.0466
 4115TIP3    H133760   6.134   4.890   4.744  1.2145  0.1255 -2.9387
 4115TIP3    H233761   6.060   4.764   4.707 -0.0270 -0.7555  1.8427
 4116TIP3   OH233762   3.766   2.870  14.300  0.4222 -0.2609 -0.3252
 4116TIP3    H133763   3.828   2.831  14.362  2.1478  2.5028 -0.1344
 4116TIP3    H233764   3.682   2.833  14.324  1.5499 -1.9275  1.3717
 4117TIP3   OH233765   1.980   0.941  12.708  0.0771  0.1035 -0.0361
 4117TIP3    H133766   1.901   0.992  12.722  0.0509  0.1813 -0.4561
 4117TIP3    H233767   2.036   0.962  12.783 -0.3823 -0.1139  0.3714
 4118TIP3   OH233768   3.214   2.291  11.850  0.1438 -0.3883  0.1460
 4118TIP3    H133769   3.235   2.373  11.806 -1.0284  0.0892  0.4258
 4118TIP3    H233770   3.290   2.235  11.836  1.0059  0.7840  0.0429
 4119TIP3   OH233771   4.241   0.417   3.658  0.4168  0.0544 -0.6986
 4119TIP3    H133772   4.241   0.358   3.733  1.3701 -0.2618 -0.9287
 4119TIP3    H233773   4.200   0.367   3.588 -1.6179  0.7818 -0.1044
 4120TIP3   OH233774   2.467   3.745  14.432  0.1216  0.4487  0.5325
 4120TIP3    H133775   2.429   3.802  14.366 -0.5587 -0.6422 -0.0427
 4120TIP3    H233776   2.402   3.676  14.445  0.3583  0.4919  2.1588
 4121TIP3   OH233777   1.095   5.149  10.580  0.3512 -0.3400  0.8275
 4121TIP3    H133778   1.026   5.083  10.584 -0.4000  0.4175  0.8450
 4121TIP3    H233779   1.107   5.165  10.486 -0.1493  0.1629  0.8380
 4122TIP3   OH233780   2.813   0.349   4.115  0.8547 -0.3542 -0.0657
 4122TIP3    H133781   2.804   0.387   4.202  3.4083 -0.0511  0.1572
 4122TIP3    H233782   2.819   0.254   4.132 -0.4096 -0.4668 -0.1284
 4123TIP3   OH233783   2.921   4.315  12.195  0.1071  0.6818 -1.1263
 4123TIP3    H133784   2.923   4.228  12.155  2.1378  0.0553  0.1538
 4123TIP3    H233785   2.945   4.300  12.286 -0.2288  2.5128 -0.6946
 4124TIP3   OH233786   1.556   3.707   1.920  0.3862 -0.4685  0.0523
 4124TIP3    H133787   1.527   3.710   2.011  2.6590  0.6727  0.8031
 4124TIP3    H233788   1.482   3.742   1.870 -0.6782 -0.5707  1.5141
 4125TIP3   OH233789   6.255   0.229  12.305 -0.5901 -0.1380 -0.1854
 4125TIP3    H133790   6.325   0.288  12.276 -1.3746  1.9121  1.7292
 4125TIP3    H233791   6.299   0.145  12.319  1.2423  0.7642 -0.1374
 4126TIP3   OH233792   6.600   3.961  13.255 -0.4927  0.3785 -0.3875
 4126TIP3    H133793   6.603   3.879  13.206  0.1881  0.8312 -1.1427
 4126TIP3    H233794   6.507   3.977  13.271 -0.5469 -1.5556  1.5583
 4127TIP3   OH233795   3.754   1.797  13.953  0.4653 -0.1806  0.1795
 4127TIP3    H133796   3.663   1.811  13.982  0.6120  1.5725 -0.0974
 4127TIP3    H233797   3.746   1.752  13.869 -0.0173 -3.2442  1.7123
 4128TIP3   OH233798   3.858   6.203  15.003 -0.1297  0.4039 -0.1086
 4128TIP3    H133799   3.926   6.136  14.994  0.0114  0.5775 -0.3341
 4128TIP3    H233800   3.897   6.270  15.059 -0.1741  0.4240 -0.1016
 4129TIP3   OH233801   3.278   1.824  13.503  0.3008  0.2584 -0.1172
 4129TIP3    H133802   3.299   1.845  13.411  0.7237  1.7012  0.2812
 4129TIP3    H233803   3.358   1.784  13.536 -0.1050 -0.9644 -0.5612
 4130TIP3   OH233804   3.149   5.056  12.331  0.4590  0.1161  0.7796
 4130TIP3    H133805   3.151   5.047  12.236  1.8060  0.7913  0.7164
 4130TIP3    H233806   3.201   5.134  12.348 -2.7952  2.2371  1.8631
 4131TIP3   OH233807   4.571   5.706  14.439  0.3350  0.2695 -0.2284
 4131TIP3    H133808   4.574   5.754  14.356 -0.6128  2.8225  1.0973
 4131TIP3    H233809   4.662   5.685  14.458  0.6529  0.4552 -1.4633
 4132TIP3   OH233810   6.480   3.606   3.095 -0.1499 -0.5256 -0.1293
 4132TIP3    H133811   6.387   3.589   3.114 -0.9051  1.2849 -1.8473
 4132TIP3    H233812   6.524   3.524   3.118 -2.1060 -1.3125  1.0947
 4133TIP3   OH233813   6.710   1.628  11.017  0.2988  0.8301  0.2764
 4133TIP3    H133814   6.641   1.693  11.031  0.3994  0.8426  0.7319
 4133TIP3    H233815   6.788   1.667  11.057  0.6050  0.8799 -0.3589
 4134TIP3   OH233816   6.151   1.798   5.356  0.0906 -0.1083 -0.3554
 4134TIP3    H133817   6.195   1.818   5.439 -1.7194  0.0245  0.6292
 4134TIP3    H233818   6.133   1.704   5.361  1.2727 -0.4018 -1.2836
 4135TIP3   OH233819   4.699   3.512  13.499  0.3461  0.2844 -0.0120
 4135TIP3    H133820   4.766   3.525  13.432 -0.3783 -0.9585 -1.0340
 4135TIP3    H233821   4.739   3.543  13.580  2.1527 -0.4042 -0.5958
 4136TIP3   OH233822   1.489   2.221  13.623 -0.4074 -0.5051  0.3776
 4136TIP3    H133823   1.527   2.267  13.548 -1.4205  2.5639  1.5946
 4136TIP3    H233824   1.399   2.203  13.597 -1.0527  1.4384  1.1288
 4137TIP3   OH233825   2.803   1.092   1.797 -0.1227 -0.3534  0.0996
 4137TIP3    H133826   2.797   1.132   1.884  0.4705 -0.0462  0.0097
 4137TIP3    H233827   2.891   1.054   1.795 -0.5516 -1.3675  0.0539
 4138TIP3   OH233828   1.917   1.502   6.713 -0.2502  0.1337 -0.5758
 4138TIP3    H133829   1.824   1.521   6.703 -0.4418 -0.6513 -0.3266
 4138TIP3    H233830   1.921   1.410   6.738  0.6302 -0.0417 -1.2989
 4139TIP3   OH233831   6.153   1.526   0.966  0.2346 -0.1093  0.1117
 4139TIP3    H133832   6.127   1.434   0.963  2.1680 -0.8440  2.6107
 4139TIP3    H233833   6.223   1.533   0.901  0.2320 -0.4551  0.0662
 4140TIP3   OH233834   3.244   1.749   2.844 -0.1741  0.7330 -0.0551
 4140TIP3    H133835   3.164   1.740   2.895 -0.1679 -1.8527 -0.3782
 4140TIP3    H233836   3.214   1.776   2.757 -0.8034 -0.8751 -0.3635
 4141TIP3   OH233837   0.088   1.898  13.381  0.2713  0.7452 -0.6560
 4141TIP3    H133838   0.056   1.817  13.343 -0.8923 -0.0568  1.8351
 4141TIP3    H233839   0.120   1.949  13.306  0.1250 -1.5654 -2.3870
 4142TIP3   OH233840   2.111   5.970  14.897 -0.4150 -0.3778  0.8137
 4142TIP3    H133841   2.043   5.930  14.843 -0.9875 -1.4043  2.2505
 4142TIP3    H233842   2.098   5.932  14.984  1.1724  0.4073  1.4210
 4143TIP3   OH233843   5.132   4.202  12.029  0.5243  0.5066  0.2986
 4143TIP3    H133844   5.116   4.243  12.114  1.6274  2.2275 -0.2581
 4143TIP3    H233845   5.126   4.108  12.045  0.5571  0.8072  2.2372
 4144TIP3   OH233846   3.580   3.476  15.042  0.2641 -0.1781  0.1407
 4144TIP3    H133847   3.642   3.425  14.990  0.9393  0.2179  0.5585
 4144TIP3    H233848   3.521   3.411  15.080  1.0043 -0.6342  0.5130
 4145TIP3   OH233849   1.775   6.594   0.740 -0.6258 -0.2504  0.2563
 4145TIP3    H133850   1.859   6.551   0.723 -0.3740  0.1737  0.4147
 4145TIP3    H233851   1.748   6.629   0.655 -0.3686  0.0956  0.3159
 4146TIP3   OH233852   0.793   5.995  14.706  0.4361  0.4888  0.2010
 4146TIP3    H133853   0.699   5.988  14.720  0.4313 -1.7348 -0.5511
 4146TIP3    H233854   0.829   6.016  14.792 -0.5189 -1.6022  1.1796
 4147TIP3   OH233855   2.113   5.980   2.702  0.4914 -0.0929 -0.2836
 4147TIP3    H133856   2.186   5.944   2.652  0.2258  0.7710 -1.3165
 4147TIP3    H233857   2.124   6.075   2.696 -0.0835  0.0360  0.5091
 4148TIP3   OH233858   0.700   2.072  10.552  0.3008 -0.3835  0.0400
 4148TIP3    H133859   0.702   2.034  10.640  0.1405 -0.5245 -0.0162
 4148TIP3    H233860   0.654   2.006  10.499  0.2907 -0.2452 -0.1234
 4149TIP3   OH233861   3.139   2.493   4.551  0.4117 -0.0051  0.0944
 4149TIP3    H133862   3.059   2.504   4.498  0.5689  1.4146  0.1323
 4149TIP3    H233863   3.108   2.451   4.631 -0.1918 -0.0454 -0.1480
 4150TIP3   OH233864   1.487   2.949   2.443 -0.0330  0.4253  0.2847
 4150TIP3    H133865   1.562   3.004   2.420  1.5790 -1.7615  0.0489
 4150TIP3    H233866   1.524   2.882   2.501 -1.8152 -0.7465  0.1210
 4151TIP3   OH233867   3.598   4.439   5.473  0.3454 -0.3092  0.3115
 4151TIP3    H133868   3.537   4.398   5.411  1.7127 -0.8451 -0.7307
 4151TIP3    H233869   3.542   4.471   5.544 -1.1786 -0.5112 -0.7411
 4152TIP3   OH233870   1.786   2.012  13.487 -0.1772  0.1300  0.0538
 4152TIP3    H133871   1.803   1.951  13.558 -0.8464  0.2881  0.3616
 4152TIP3    H233872   1.735   2.082  13.528 -1.5704 -0.3459 -0.8143
 4153TIP3   OH233873   0.828   2.960   4.038  0.0367 -0.3705 -0.0930
 4153TIP3    H133874   0.811   2.886   3.979  1.2510 -0.7936  0.0600
 4153TIP3    H233875   0.796   2.930   4.123 -0.0946 -0.4630 -0.1748
 4154TIP3   OH233876   5.061   2.702   6.792 -0.3110  1.0072 -0.0052
 4154TIP3    H133877   5.018   2.621   6.821 -0.3310  0.8333 -0.5068
 4154TIP3    H233878   5.136   2.712   6.850 -0.1574  0.4846 -0.1144
 4155TIP3   OH233879   2.172   3.761  10.744 -0.4840  0.4610 -0.2298
 4155TIP3    H133880   2.260   3.797  10.734 -0.0091 -0.3395  0.8120
 4155TIP3    H233881   2.131   3.816  10.810 -0.8174  0.9075 -0.8019
 4156TIP3   OH233882   0.481   6.362  11.777  0.3265 -0.3653  0.0071
 4156TIP3    H133883   0.570   6.332  11.798  0.2423 -1.3029 -0.9167
 4156TIP3    H233884   0.449   6.399  11.859  1.0535 -1.3056  0.7425
 4157TIP3   OH233885   5.382   1.889   5.185 -0.3173  0.0497 -0.1003
 4157TIP3    H133886   5.362   1.966   5.131 -2.6291 -1.2537 -1.2379
 4157TIP3    H233887   5.449   1.842   5.135 -0.6936  0.0687 -0.6222
 4158TIP3   OH233888   6.547   4.942  11.334  0.4776 -0.4928 -0.0976
 4158TIP3    H133889   6.603   4.894  11.395 -0.4283  1.3416  2.2975
 4158TIP3    H233890   6.458   4.922  11.362 -0.1561 -2.0831 -2.8562
 4159TIP3   OH233891   2.208   4.841  14.117  0.3670  0.3970 -0.4268
 4159TIP3    H133892   2.303   4.848  14.130  0.6386 -0.1117 -1.9769
 4159TIP3    H233893   2.187   4.913  14.058 -0.0926  0.0450 -0.6898
 4160TIP3   OH233894   4.457   1.805  13.646 -0.1088 -0.1363  0.9081
 4160TIP3    H133895   4.469   1.789  13.740 -0.1534 -3.3036  0.4712
 4160TIP3    H233896   4.368   1.774  13.628 -0.4325  1.2794 -0.0560
 4161TIP3   OH233897   1.355   2.967  17.100  0.7014  0.2505 -0.4826
 4161TIP3    H133898   1.382   2.967  17.192 -1.1649 -0.0401  0.1079
 4161TIP3    H233899   1.367   2.876  17.073 -1.6567 -0.3979  0.4423
 4162TIP3   OH233900   2.108   1.688  15.226  0.3240 -0.6035  0.4623
 4162TIP3    H133901   2.098   1.779  15.199 -1.3919 -1.0330 -0.4821
 4162TIP3    H233902   2.193   1.685  15.269  0.9283  1.1904 -0.5145
 4163TIP3   OH233903   3.085   0.422   2.578 -0.5726  0.3185  0.2119
 4163TIP3    H133904   3.048   0.338   2.605 -0.8795  0.3525 -0.0951
 4163TIP3    H233905   3.100   0.470   2.660  0.9272 -0.5765  0.4950
 4164TIP3   OH233906   3.680   1.016  11.965 -0.1720 -0.0754 -0.7193
 4164TIP3    H133907   3.610   1.058  12.016  0.9636 -0.2859  1.0995
 4164TIP3    H233908   3.726   1.089  11.923 -1.3599  0.0729 -1.8663
 4165TIP3   OH233909   4.428   3.164   4.365  0.0190 -0.1828  0.2479
 4165TIP3    H133910   4.487   3.089   4.352 -1.0059 -1.0815  0.6582
 4165TIP3    H233911   4.460   3.206   4.445 -0.2374 -1.0076  0.7961
 4166TIP3   OH233912   0.180   1.461   0.284 -0.1616  0.8816 -0.3834
 4166TIP3    H133913   0.149   1.398   0.349  0.5005  0.3457 -0.5727
 4166TIP3    H233914   0.103   1.482   0.232 -0.5212  0.6950  0.0679
 4167TIP3   OH233915   2.064   1.390  15.761  0.0420  0.2088  0.7419
 4167TIP3    H133916   2.154   1.401  15.730  0.2012  0.8408  1.4035
 4167TIP3    H233917   2.010   1.433  15.694  0.0334 -1.8350 -0.6804
 4168TIP3   OH233918   4.771   6.009  12.938  0.1325 -0.1361 -0.4107
 4168TIP3    H133919   4.680   6.031  12.920  0.1920  1.4237  0.9260
 4168TIP3    H233920   4.773   5.990  13.032  0.8781 -2.0219 -0.7549
 4169TIP3   OH233921   4.866   1.707  11.151  0.5234  0.0355  0.0419
 4169TIP3    H133922   4.789   1.736  11.102  0.2330  2.8358  1.8777
 4169TIP3    H233923   4.928   1.676  11.084 -1.3507 -0.2168 -1.6566
 4170TIP3   OH233924   6.589   0.264   4.952 -0.2256 -0.3109  0.6369
 4170TIP3    H133925   6.617   0.207   4.881 -0.9445 -1.7335  1.4579
 4170TIP3    H233926   6.586   0.208   5.029 -1.2494  0.7551  1.4242
 4171TIP3   OH233927   2.276   0.620   0.335  0.2004  0.6318 -0.6317
 4171TIP3    H133928   2.267   0.669   0.253 -0.5756  1.7953  0.1139
 4171TIP3    H233929   2.369   0.622   0.354  0.1705  2.1401 -0.4705
 4172TIP3   OH233930   6.506   2.419   4.675 -0.0757 -0.8398  0.1373
 4172TIP3    H133931   6.595   2.429   4.709  0.5525  0.6914 -1.7906
 4172TIP3    H233932   6.455   2.487   4.719 -0.1383 -1.2434  0.6988
 4173TIP3   OH233933   4.206   2.429   5.260 -0.1446 -0.0406  0.3766
 4173TIP3    H133934   4.133   2.402   5.204 -0.2986 -0.2985  0.6983
 4173TIP3    H233935   4.270   2.468   5.200 -1.8668  3.1407  0.4202
 4174TIP3   OH233936   5.230   0.924  16.300 -0.2126  0.5592 -0.3153
 4174TIP3    H133937   5.216   0.833  16.329 -1.3149  0.7119 -0.3075
 4174TIP3    H233938   5.215   0.921  16.206  1.2734  0.4580 -0.5613
 4175TIP3   OH233939   3.568   5.527   3.542 -0.4434  0.2256  0.1591
 4175TIP3    H133940   3.624   5.573   3.479  2.1260  0.2621  2.3166
 4175TIP3    H233941   3.562   5.586   3.617 -1.6186 -0.7087  0.8295
 4176TIP3   OH233942   3.458   5.067  11.624 -0.1965 -0.1033  0.5447
 4176TIP3    H133943   3.506   4.987  11.645  0.6275  0.1427 -0.3084
 4176TIP3    H233944   3.384   5.067  11.684  0.8440 -0.5195  1.8716
 4177TIP3   OH233945   5.054   4.608   5.442 -0.9099 -0.4856  0.7566
 4177TIP3    H133946   5.038   4.700   5.422 -1.4670 -0.8320 -0.4951
 4177TIP3    H233947   4.969   4.575   5.472 -1.7297 -1.4074 -2.2321
 4178TIP3   OH233948   5.313   4.331  11.377 -0.5121 -0.7332 -0.1323
 4178TIP3    H133949   5.305   4.245  11.418  0.9283 -0.0362  1.7541
 4178TIP3    H233950   5.302   4.393  11.449 -0.5495  0.6462 -1.2870
 4179TIP3   OH233951   2.269   4.997   0.436  0.0403  1.1057 -0.1937
 4179TIP3    H133952   2.306   5.048   0.508  0.1519 -0.0837  0.6218
 4179TIP3    H233953   2.336   4.999   0.368  1.1475 -0.0732  0.8249
 4180TIP3   OH233954   5.179   5.711   2.202 -0.8875 -0.0872 -0.1637
 4180TIP3    H133955   5.185   5.618   2.223 -0.6836 -1.0523 -3.7717
 4180TIP3    H233956   5.269   5.735   2.177 -1.2001  0.6942 -0.5527
 4181TIP3   OH233957   3.629   4.122   1.962 -0.6626 -0.3936  0.3625
 4181TIP3    H133958   3.550   4.078   1.995 -1.2471 -1.6352 -2.4184
 4181TIP3    H233959   3.688   4.051   1.937 -0.6232  0.3610 -1.9439
 4182TIP3   OH233960   2.341   4.867   4.685  0.0931  0.1589  0.7050
 4182TIP3    H133961   2.267   4.813   4.712 -1.0881  1.6211  0.5161
 4182TIP3    H233962   2.417   4.809   4.693 -0.9931 -1.2408  1.3499
 4183TIP3   OH233963   6.097   0.368   2.812 -0.0542  0.4137 -0.0315
 4183TIP3    H133964   6.104   0.461   2.834 -0.5583  0.5132 -0.2854
 4183TIP3    H233965   6.100   0.365   2.716  1.7600  0.0137  0.0004
 4184TIP3   OH233966   6.283   3.560   4.199  0.5588  0.1353 -0.4098
 4184TIP3    H133967   6.367   3.586   4.237  0.2773  0.8289 -0.2427
 4184TIP3    H233968   6.303   3.535   4.109  1.1266 -0.8678 -0.0162
 4185TIP3   OH233969   2.786   0.099  16.063 -0.2274  0.0427  0.0737
 4185TIP3    H133970   2.793   0.192  16.041 -1.2739  0.1078 -0.0329
 4185TIP3    H233971   2.877   0.069  16.071  0.1189  1.0994  0.2381
 4186TIP3   OH233972   2.551   3.987  15.371  0.2302  0.0711 -0.3359
 4186TIP3    H133973   2.500   3.999  15.451 -0.1359  0.5359 -0.6266
 4186TIP3    H233974   2.592   4.073  15.356  0.3826 -0.0433 -0.5826
 4187TIP3   OH233975   4.832   3.707   3.737  0.2423 -0.3441  0.5738
 4187TIP3    H133976   4.901   3.687   3.675 -1.1621 -2.9201 -0.3099
 4187TIP3    H233977   4.756   3.727   3.683 -0.3093  0.1669  1.5039
 4188TIP3   OH233978   1.705   0.389  16.374 -0.2206 -0.1632 -0.2422
 4188TIP3    H133979   1.621   0.404  16.418  0.5520  1.7610  0.6765
 4188TIP3    H233980   1.683   0.385  16.281 -1.3123  0.4884 -0.0260
 4189TIP3   OH233981   1.554   2.762  14.554  0.0297  0.2835 -0.2821
 4189TIP3    H133982   1.617   2.834  14.562  0.1456  0.4419 -2.0938
 4189TIP3    H233983   1.607   2.684  14.569  0.2345  0.5023  0.1652
 4190TIP3   OH233984   2.913   0.541  17.015 -0.1074  0.3744 -0.2298
 4190TIP3    H133985   2.890   0.521  16.924 -0.4849  0.7948 -0.2282
 4190TIP3    H233986   2.884   0.631  17.028  2.8748  1.5396 -0.6895
 4191TIP3   OH233987   4.707   3.186  12.378  0.6216  0.3257 -0.1480
 4191TIP3    H133988   4.673   3.098  12.360 -0.9162  0.7736  0.4337
 4191TIP3    H233989   4.672   3.240  12.307  2.4833  0.3113 -1.1598
 4192TIP3   OH233990   6.492   3.150   1.272 -0.7863  1.1438 -0.3785
 4192TIP3    H133991   6.587   3.151   1.268 -0.7065 -0.3100  0.2804
 4192TIP3    H233992   6.467   3.241   1.284  0.5161  1.5526 -0.6335
 4193TIP3   OH233993   2.530   0.890   5.687  0.6689 -0.5548  0.1845
 4193TIP3    H133994   2.490   0.963   5.641  0.0396 -1.1998 -0.3144
 4193TIP3    H233995   2.604   0.928   5.734  0.1508  0.4542  0.1956
 4194TIP3   OH233996   4.024   1.795   2.465 -0.4063  0.2172  0.1460
 4194TIP3    H133997   3.965   1.775   2.537 -1.3367  2.8741  0.2237
 4194TIP3    H233998   3.988   1.746   2.391 -0.4229 -1.2005  1.0566
 4195TIP3   OH233999   1.929   2.968   2.415 -0.4594  0.0775  0.1532
 4195TIP3    H134000   1.926   2.923   2.499  0.3119  0.7397  0.5600
 4195TIP3    H234001   2.019   3.001   2.409 -1.2676  2.5783  0.4581
 4196TIP3   OH234002   2.949   2.740  14.699 -0.0330 -0.0868  0.1657
 4196TIP3    H134003   2.896   2.755  14.620  0.5230 -1.6928 -0.5569
 4196TIP3    H234004   2.909   2.664  14.740  0.0152  0.4142  1.1714
 4197TIP3   OH234005   1.889   5.891  15.566  0.9167  0.0573  0.1767
 4197TIP3    H134006   1.865   5.871  15.656 -1.4942  1.0810 -0.1629
 4197TIP3    H234007   1.924   5.808  15.532  1.2726 -0.5135  1.8613
 4198TIP3   OH234008   0.647   6.632   1.646  0.4386  0.1052  0.8210
 4198TIP3    H134009   0.587   6.565   1.614  0.9149  0.1173 -0.1414
 4198TIP3    H234010   0.664   6.608   1.737  0.3570 -0.9024  0.5803
 4199TIP3   OH234011   0.110   2.019  12.864 -0.7755 -0.3967  0.0013
 4199TIP3    H134012   0.192   1.989  12.824 -0.6484 -0.5230  0.3534
 4199TIP3    H234013   0.080   1.943  12.915 -2.1606 -1.0721 -1.7245
 4200TIP3   OH234014   5.782   0.451  16.989 -0.2879  0.2380  0.1605
 4200TIP3    H134015   5.806   0.365  17.024  0.2794  0.5654  0.5936
 4200TIP3    H234016   5.714   0.433  16.924 -1.0716 -0.4233  1.1334
 4201TIP3   OH234017   4.778   5.951  12.632  0.4035  0.6119  0.4332
 4201TIP3    H134018   4.739   5.990  12.710  0.4557  2.7787 -0.5472
 4201TIP3    H234019   4.769   5.856  12.645 -2.1891  0.9419  1.7647
 4202TIP3   OH234020   2.652   1.258  13.643 -0.1701  0.3145  0.0920
 4202TIP3    H134021   2.569   1.220  13.673 -0.0827 -0.0016 -0.0690
 4202TIP3    H234022   2.627   1.310  13.566 -0.1389 -0.2070 -0.2741
 4203TIP3   OH234023   4.802   3.228   0.765 -0.2743  0.5030  0.4217
 4203TIP3    H134024   4.744   3.227   0.689 -0.0496  0.8792  0.2413
 4203TIP3    H234025   4.880   3.274   0.735  0.7453 -1.2568  0.2155
 4204TIP3   OH234026   2.481   0.281   2.783  0.3815  0.0940  0.4633
 4204TIP3    H134027   2.469   0.189   2.758 -0.7325  0.3026  0.1862
 4204TIP3    H234028   2.414   0.297   2.850  0.3561  0.7928  0.2754
 4205TIP3   OH234029   6.540   3.747   4.904 -0.2602 -0.1078 -0.1566
 4205TIP3    H134030   6.482   3.772   4.832 -0.3315  1.1218  0.3071
 4205TIP3    H234031   6.502   3.666   4.938  0.6413 -1.6165 -2.4634
 4206TIP3   OH234032   1.654   4.501  14.982  0.1974  0.2203  0.4026
 4206TIP3    H134033   1.715   4.534  15.048 -0.2049  0.5697  0.6023
 4206TIP3    H234034   1.568   4.528  15.013  0.0122  0.4873 -0.3216
 4207TIP3   OH234035   3.748   1.600  11.629  0.1153 -0.1159 -0.0946
 4207TIP3    H134036   3.682   1.622  11.563 -0.4516 -3.0895 -0.6811
 4207TIP3    H234037   3.823   1.569  11.579  1.4629  1.8346  0.6169
 4208TIP3   OH234038   4.742   1.446  17.204 -0.0543  0.3456 -0.1971
 4208TIP3    H134039   4.647   1.435  17.194  0.3161 -1.3210 -2.5872
 4208TIP3    H234040   4.780   1.398  17.131  2.7144  0.0606  1.2993
 4209TIP3   OH234041   2.274   2.962  16.649 -0.1012  0.0072 -0.4202
 4209TIP3    H134042   2.228   2.881  16.672 -1.1019  0.5867 -0.3249
 4209TIP3    H234043   2.281   2.959  16.553 -1.1238  0.3118 -0.5163
 4210TIP3   OH234044   4.487   4.216  13.897  0.5062  0.4121  0.0910
 4210TIP3    H134045   4.505   4.256  13.812  0.3976 -0.6650 -0.4554
 4210TIP3    H234046   4.395   4.233  13.913  0.7433  1.4264  0.4445
 4211TIP3   OH234047   0.985   5.422  16.205 -0.7908  0.3485 -0.0956
 4211TIP3    H134048   1.012   5.361  16.137 -1.1516  0.7251 -0.5781
 4211TIP3    H234049   0.909   5.468  16.168 -0.6827  0.9069  0.3619
 4212TIP3   OH234050   6.690   2.399   1.767 -0.0808 -1.0326 -0.6884
 4212TIP3    H134051   6.638   2.475   1.793  1.5951  0.2565 -0.9915
 4212TIP3    H234052   6.706   2.412   1.674 -0.4586 -2.1995 -0.9299
 4213TIP3   OH234053   2.757   0.841  13.005  0.0451 -0.0319  0.3012
 4213TIP3    H134054   2.703   0.777  12.959  1.3768 -0.7468 -0.3250
 4213TIP3    H234055   2.695   0.909  13.033 -0.8614  0.4596 -2.5687
 4214TIP3   OH234056   3.766   1.165  16.507 -0.0975  0.1599  0.0160
 4214TIP3    H134057   3.676   1.182  16.479  0.3029  1.6303 -0.4947
 4214TIP3    H234058   3.816   1.238  16.471  1.1669 -0.1786  1.0105
 4215TIP3   OH234059   3.394   6.444  12.564 -0.7210  0.4524  0.2914
 4215TIP3    H134060   3.307   6.418  12.595 -0.0488  0.0668  1.9422
 4215TIP3    H234061   3.385   6.446  12.468 -2.9313  1.8651  0.4452
 4216TIP3   OH234062   1.840   0.076  13.091  0.1576  0.1602 -0.6220
 4216TIP3    H134063   1.750   0.054  13.117 -0.1303  0.4566 -1.3736
 4216TIP3    H234064   1.877   0.118  13.169 -0.2487 -0.2371 -0.2015
 4217TIP3   OH234065   2.942   3.187   5.918 -0.2644 -0.7283  0.5556
 4217TIP3    H134066   2.902   3.205   6.003 -0.4857 -1.3785  0.5976
 4217TIP3    H234067   2.875   3.213   5.855 -1.1318 -2.5577  0.6375
 4218TIP3   OH234068   5.811   4.824   3.127 -0.0238 -0.0525  0.7484
 4218TIP3    H134069   5.737   4.813   3.067  1.1815 -0.2340 -0.7691
 4218TIP3    H234070   5.830   4.918   3.125  2.3960 -0.4382 -2.2763
 4219TIP3   OH234071   6.489   5.321  15.383 -1.0847 -0.1266 -0.4839
 4219TIP3    H134072   6.487   5.415  15.365 -0.5287 -0.0649 -0.2645
 4219TIP3    H234073   6.491   5.280  15.297 -0.3565  0.1039 -0.5896
 4220TIP3   OH234074   2.728   0.016   1.211 -0.4550  0.1556  0.0763
 4220TIP3    H134075   2.668  -0.026   1.148 -0.4185 -0.5101  0.4835
 4220TIP3    H234076   2.706  -0.023   1.295  0.4896 -0.0211  0.2500
 4221TIP3   OH234077   0.411   1.464  10.727  0.6988 -0.1885 -0.2844
 4221TIP3    H134078   0.332   1.410  10.731  1.7518 -1.7551  0.6126
 4221TIP3    H234079   0.409   1.514  10.809  0.7860 -0.4875 -0.0945
 4222TIP3   OH234080   0.253   0.759  16.582 -0.2328 -0.7803  0.2099
 4222TIP3    H134081   0.291   0.844  16.601  0.9211 -0.8674 -1.5065
 4222TIP3    H234082   0.163   0.777  16.555  0.3851  0.0659 -1.4030
 4223TIP3   OH234083   4.905   3.406  15.846 -0.7561 -0.6425  0.3430
 4223TIP3    H134084   4.960   3.431  15.920  0.0353  2.3541 -1.0681
 4223TIP3    H234085   4.968   3.380  15.778 -1.2873 -0.6640 -0.1451
 4224TIP3   OH234086   5.250   0.012   3.322  0.3071 -0.0515 -0.2022
 4224TIP3    H134087   5.319   0.036   3.384  1.1458  0.7225 -1.3898
 4224TIP3    H234088   5.170   0.051   3.358  0.8176  0.5704  0.2733
 4225TIP3   OH234089   3.171   5.492   0.389  0.5035 -0.0217  0.0917
 4225TIP3    H134090   3.161   5.533   0.475  0.0476 -0.0305  0.0474
 4225TIP3    H234091   3.168   5.398   0.408 -0.6531 -0.0287 -0.0359
 4226TIP3   OH234092   4.198   1.832   3.052 -0.0683 -0.9357  0.4677
 4226TIP3    H134093   4.169   1.770   3.119 -0.5019 -1.0011  0.2276
 4226TIP3    H234094   4.245   1.899   3.100  2.0172 -2.3618  0.5642
 4227TIP3   OH234095   3.373   2.337  13.675  0.3407  0.0159  0.3368
 4227TIP3    H134096   3.452   2.324  13.728 -0.3244 -0.7122  1.1814
 4227TIP3    H234097   3.386   2.280  13.599  2.3425  2.7476 -1.5656
 4228TIP3   OH234098   6.426   6.403   5.117 -0.2018  0.1764 -0.6000
 4228TIP3    H134099   6.482   6.455   5.060  0.8754  0.3689  0.5958
 4228TIP3    H234100   6.346   6.389   5.066  0.9729 -0.2271 -2.4030
 4229TIP3   OH234101   0.842   5.765   1.656 -0.4405  0.3076  0.3543
 4229TIP3    H134102   0.861   5.798   1.569 -0.6717  1.7744  0.8393
 4229TIP3    H234103   0.746   5.765   1.662 -0.4286  0.1361  0.5821
 4230TIP3   OH234104   2.856   6.486   2.011 -0.5347  0.0368  0.2142
 4230TIP3    H134105   2.942   6.508   2.048  0.5414 -2.0441 -0.9271
 4230TIP3    H234106   2.868   6.493   1.916 -1.2216 -1.5829 -0.0142
 4231TIP3   OH234107   5.776   2.703  11.823  0.3664  0.4293  0.3454
 4231TIP3    H134108   5.718   2.726  11.895  0.4609  0.2508  0.4826
 4231TIP3    H234109   5.727   2.725  11.744  1.2458  3.1039  0.4391
 4232TIP3   OH234110   1.218   6.630  13.733  0.1931  0.0457  0.3702
 4232TIP3    H134111   1.212   6.552  13.788 -0.7827  0.8901  1.5102
 4232TIP3    H234112   1.159   6.694  13.774 -0.0836  0.9321 -1.3037
 4233TIP3   OH234113   6.649   3.311   3.780  0.0440  0.4670  0.0032
 4233TIP3    H134114   6.603   3.360   3.712 -1.7604  0.4396  1.1321
 4233TIP3    H234115   6.691   3.379   3.833 -0.6413  0.6674  0.3007
 4234TIP3   OH234116   0.014   4.836   1.055  0.6762  0.6437  0.4689
 4234TIP3    H134117   0.030   4.803   1.144  1.4151  1.2732  0.5787
 4234TIP3    H234118  -0.079   4.860   1.055  0.3497 -0.5697  0.6617
 4235TIP3   OH234119   3.460   5.054  13.265 -0.2962  0.6832 -0.8128
 4235TIP3    H134120   3.393   5.109  13.306 -0.6853 -0.3479 -0.0079
 4235TIP3    H234121   3.528   5.115  13.236  0.4707  1.4524  2.2477
 4236TIP3   OH234122   5.389   3.287  13.212  0.1013  0.1172 -0.3728
 4236TIP3    H134123   5.313   3.240  13.178 -1.6500  1.8641  0.8717
 4236TIP3    H234124   5.441   3.219  13.255 -0.6214 -1.1698 -1.4332
 4237TIP3   OH234125   5.246   5.748  11.731 -0.1362  0.6244  0.7408
 4237TIP3    H134126   5.187   5.701  11.672  0.0606 -0.3380  1.2879
 4237TIP3    H234127   5.247   5.695  11.810  0.4035  1.3588  1.2323
 4238TIP3   OH234128   0.550   2.229   6.393  0.1084 -0.0911 -0.2002
 4238TIP3    H134129   0.558   2.155   6.452  0.5566 -0.1780 -0.3699
 4238TIP3    H234130   0.481   2.203   6.331 -1.6712  0.7205  1.3378
 4239TIP3   OH234131   3.162   3.401  12.028  0.2358 -0.9835 -0.3647
 4239TIP3    H134132   3.228   3.466  12.053 -0.3862 -0.0267 -1.1061
 4239TIP3    H234133   3.101   3.450  11.973 -4.2177 -0.1968  4.4137
 4240TIP3   OH234134   0.695   6.160  13.459 -0.1687 -0.2327  0.7538
 4240TIP3    H134135   0.694   6.069  13.431  1.2466  0.4196 -1.7204
 4240TIP3    H234136   0.602   6.184  13.466 -0.5675 -1.4649 -0.0004
 4241TIP3   OH234137   4.456   0.052  15.666 -0.0767 -0.4449 -0.5469
 4241TIP3    H134138   4.374   0.038  15.713  0.4614  0.4094  0.7092
 4241TIP3    H234139   4.479  -0.033  15.630 -1.7719 -0.5976 -1.3956
 4242TIP3   OH234140   1.278   0.940  12.653  0.5778 -0.6775 -0.2061
 4242TIP3    H134141   1.366   0.925  12.618  0.5247  0.5342 -0.9261
 4242TIP3    H234142   1.293   0.981  12.738  0.6991 -0.9625 -0.0865
 4243TIP3   OH234143   1.634   1.897  16.333  0.1868  0.1690  0.0371
 4243TIP3    H134144   1.606   1.819  16.381  1.8747 -1.9324 -2.1298
 4243TIP3    H234145   1.728   1.887  16.324  0.7121  3.2825  0.8879
 4244TIP3   OH234146   3.626   1.405   4.956 -0.9361  0.1563  0.0182
 4244TIP3    H134147   3.546   1.454   4.939  0.3452  1.7269 -1.9873
 4244TIP3    H234148   3.662   1.443   5.036 -0.9638  1.1600 -0.4387
 4245TIP3   OH234149   1.041   4.883   2.876 -0.0615 -0.1275  0.1461
 4245TIP3    H134150   1.059   4.821   2.946 -0.5890  0.0771  0.4669
 4245TIP3    H234151   1.126   4.896   2.833  0.1181 -0.8106  0.2864
 4246TIP3   OH234152   1.352   1.198   5.901 -0.0575  0.0567 -0.0290
 4246TIP3    H134153   1.376   1.212   5.809 -3.2323 -0.1455 -1.0143
 4246TIP3    H234154   1.436   1.198   5.948  1.7694 -0.7341 -2.9996
 4247TIP3   OH234155   1.060   0.707   3.307  0.5997  0.0364  0.1278
 4247TIP3    H134156   1.125   0.759   3.259 -0.8646  1.0567 -0.8160
 4247TIP3    H234157   0.989   0.769   3.326  0.2006 -0.8770  1.7729
 4248TIP3   OH234158   1.304   0.794  15.355  0.8133  0.3488 -0.5750
 4248TIP3    H134159   1.295   0.869  15.415  0.6529 -1.3703  1.6799
 4248TIP3    H234160   1.397   0.788  15.338  0.8826  0.7779 -0.3729
 4249TIP3   OH234161   3.314   2.857   2.443 -0.2362  0.2056  0.2457
 4249TIP3    H134162   3.372   2.933   2.436  0.3628  0.0695  2.6471
 4249TIP3    H234163   3.309   2.822   2.354  1.4669  1.6218 -0.4716
 4250TIP3   OH234164   4.387   4.897   0.806  0.1819 -0.6280 -0.1614
 4250TIP3    H134165   4.366   4.804   0.815  0.2110 -0.6039  0.1637
 4250TIP3    H234166   4.482   4.899   0.791  0.3275 -0.6078  0.6844
 4251TIP3   OH234167   3.921   2.303   0.507 -0.1763  0.0485  0.3830
 4251TIP3    H134168   3.865   2.247   0.561  2.0511 -1.0084  1.7832
 4251TIP3    H234169   3.894   2.285   0.417 -1.4548 -1.1057  0.9668
 4252TIP3   OH234170   4.962   1.373   0.002  0.2623  0.0017  0.0161
 4252TIP3    H134171   4.993   1.464  -0.005  0.4612 -0.0226  0.4873
 4252TIP3    H234172   4.871   1.376  -0.025 -0.5000  0.8237  2.3862
 4253TIP3   OH234173   3.272   3.322   0.909  0.1537  0.4464 -0.1559
 4253TIP3    H134174   3.188   3.337   0.867 -0.2807 -1.3261 -0.0180
 4253TIP3    H234175   3.285   3.398   0.966 -2.5591 -0.3558  1.7171
 4254TIP3   OH234176   5.623   4.950  14.270  0.2821 -0.2014 -0.2373
 4254TIP3    H134177   5.543   4.976  14.316  0.2153 -1.2198  0.2512
 4254TIP3    H234178   5.684   5.022  14.288 -0.5459  0.6669 -0.7488
 4255TIP3   OH234179   3.210   2.349  12.525  0.3115  0.2061  0.1073
 4255TIP3    H134180   3.186   2.441  12.530  0.8200  0.3686 -0.4160
 4255TIP3    H234181   3.304   2.349  12.508  0.1559 -0.3931 -0.8079
 4256TIP3   OH234182   3.024   2.404   5.636  0.2760 -1.3144  0.3047
 4256TIP3    H134183   3.017   2.422   5.730 -0.3013 -0.0172  0.0267
 4256TIP3    H234184   2.971   2.471   5.594  0.7097 -1.7403 -0.9793
 4257TIP3   OH234185   3.217   3.279  15.733 -0.4749 -0.5414 -0.9361
 4257TIP3    H134186   3.141   3.320  15.694 -0.7449 -0.8363 -0.7291
 4257TIP3    H234187   3.229   3.324  15.817 -0.8126 -0.9279 -0.6777
 4258TIP3   OH234188   5.706   0.685  13.784 -0.1218 -0.0909 -0.5993
 4258TIP3    H134189   5.785   0.634  13.766  0.2447  0.1570  0.2190
 4258TIP3    H234190   5.659   0.688  13.701 -0.5062 -2.3181 -0.5163
 4259TIP3   OH234191   5.386   0.336  14.611  0.2179  0.1425 -0.3601
 4259TIP3    H134192   5.388   0.344  14.516 -0.2959 -0.1596 -0.4052
 4259TIP3    H234193   5.423   0.250  14.629 -1.3889 -0.6027 -0.4299
 4260TIP3   OH234194   3.902   0.190   5.316  0.0103 -0.5530  0.2393
 4260TIP3    H134195   3.996   0.197   5.300  0.1880 -1.5080  0.7916
 4260TIP3    H234196   3.862   0.202   5.230  0.7645 -2.4133 -0.4179
 4261TIP3   OH234197   0.386   6.550   5.726  0.4439 -0.2550 -0.2808
 4261TIP3    H134198   0.433   6.471   5.700 -3.2799 -2.4848 -0.9520
 4261TIP3    H234199   0.384   6.547   5.821  0.8659 -0.6385 -0.2809
 4262TIP3   OH234200   2.470   1.838  15.988 -0.3091  0.8497  0.1409
 4262TIP3    H134201   2.519   1.850  16.070  0.7198  0.7716 -0.4384
 4262TIP3    H234202   2.532   1.792  15.931 -1.4803 -0.3047 -0.2420
 4263TIP3   OH234203   4.517   0.742   2.334  0.2770  0.3202 -0.2501
 4263TIP3    H134204   4.498   0.834   2.317  0.6918  0.2664 -1.0687
 4263TIP3    H234205   4.609   0.731   2.312  1.3671  0.5467  3.5819
 4264TIP3   OH234206   1.318   3.195   2.902  0.7149  0.5422  0.1028
 4264TIP3    H134207   1.250   3.191   2.970  0.9108  0.6595  0.3097
 4264TIP3    H234208   1.299   3.276   2.855  0.8143  0.6671  0.2744
 4265TIP3   OH234209   3.680   0.670   4.161 -0.1061 -0.3606 -0.1649
 4265TIP3    H134210   3.650   0.591   4.205  1.8154 -0.1971  1.6144
 4265TIP3    H234211   3.682   0.736   4.230  1.0095  0.4795 -0.9709
 4266TIP3   OH234212   4.278   2.245   2.891  0.2044 -0.2109  0.4594
 4266TIP3    H134213   4.257   2.333   2.859 -0.1682 -0.8476 -1.1243
 4266TIP3    H234214   4.243   2.186   2.825  1.6971 -1.5217  0.7732
 4267TIP3   OH234215   2.220   6.056  11.981 -0.5532 -0.3060  0.1302
 4267TIP3    H134216   2.132   6.095  11.978 -0.8299 -0.9604 -0.5523
 4267TIP3    H234217   2.210   5.980  12.038  0.0412  0.7245  1.6531
 4268TIP3   OH234218   6.683   3.214  13.988 -0.7613  0.0065  0.3861
 4268TIP3    H134219   6.747   3.235  14.056 -0.2498 -2.5742  0.8009
 4268TIP3    H234220   6.702   3.123  13.965 -0.5440  0.8881 -3.6451
 4269TIP3   OH234221   4.318   3.633  16.524 -0.6503  0.1098  0.0247
 4269TIP3    H134222   4.250   3.601  16.464 -0.9588 -0.1103  0.4792
 4269TIP3    H234223   4.276   3.630  16.610 -0.5563  1.3851  0.1300
 4270TIP3   OH234224   6.240   6.583   2.655  0.2495 -0.3566  0.1546
 4270TIP3    H134225   6.218   6.673   2.630 -2.7899 -0.9308  0.3566
 4270TIP3    H234226   6.270   6.590   2.745 -1.2004  0.3690  0.6190
 4271TIP3   OH234227   2.637   3.639  17.276  0.3743 -0.5144  0.2536
 4271TIP3    H134228   2.675   3.599  17.197  0.4388 -0.0256  0.0322
 4271TIP3    H234229   2.544   3.646  17.256  0.6193  1.1383 -0.4703
 4272TIP3   OH234230   3.860   3.803   4.567 -0.1469  0.3650  0.2554
 4272TIP3    H134231   3.935   3.848   4.528  0.6799 -0.5384  0.7351
 4272TIP3    H234232   3.784   3.853   4.538  0.6004  1.0138 -0.6657
 4273TIP3   OH234233   0.250   1.734   4.716  0.3117  0.1683  0.5873
 4273TIP3    H134234   0.285   1.798   4.779  2.3700 -0.8870  0.5940
 4273TIP3    H234235   0.259   1.650   4.760  1.2067 -0.5209 -0.8673
 4274TIP3   OH234236   3.754   4.459  11.358 -0.6541 -0.1905  0.2450
 4274TIP3    H134237   3.817   4.525  11.385  0.8855 -1.3667 -0.3257
 4274TIP3    H234238   3.669   4.504  11.360  0.1090  1.2774  1.5605
 4275TIP3   OH234239   0.447   1.693   0.490  0.1692  0.4147  0.2432
 4275TIP3    H134240   0.542   1.679   0.495 -0.0007 -0.9819  0.1656
 4275TIP3    H234241   0.423   1.660   0.403 -0.6641 -1.4106  1.0937
 4276TIP3   OH234242   0.806   4.113   4.711  0.1222 -0.2715  0.0723
 4276TIP3    H134243   0.851   4.196   4.726  3.3427 -1.6696 -0.8875
 4276TIP3    H234244   0.792   4.077   4.799  2.5846 -0.5075  0.4403
 4277TIP3   OH234245   4.419   2.604  15.028 -0.5436  0.2351 -0.0000
 4277TIP3    H134246   4.506   2.566  15.014 -0.1847  0.9877  0.1154
 4277TIP3    H234247   4.430   2.697  15.006 -1.0192  0.5846  1.1421
 4278TIP3   OH234248   2.085   3.137  11.697 -0.0463 -0.3472  0.0967
 4278TIP3    H134249   2.135   3.218  11.696  0.7549 -0.7844  1.3554
 4278TIP3    H234250   1.993   3.165  11.697  0.2116  0.5253 -0.2602
 4279TIP3   OH234251   1.255   1.872   3.566  0.3702 -0.3474 -0.0652
 4279TIP3    H134252   1.290   1.960   3.565 -0.9670  0.2147  0.1840
 4279TIP3    H234253   1.160   1.884   3.562 -0.0206 -1.6339  2.7515
 4280TIP3   OH234254   0.491   0.353   0.945 -0.1557  0.1802 -0.1998
 4280TIP3    H134255   0.507   0.447   0.955  2.7281 -0.1160 -1.1428
 4280TIP3    H234256   0.498   0.337   0.851  0.9010 -1.1738  0.0776
 4281TIP3   OH234257   0.305   0.367   1.207  0.6800 -0.5156 -0.5901
 4281TIP3    H134258   0.375   0.347   1.269  0.6559  0.1584 -0.3329
 4281TIP3    H234259   0.350   0.389   1.126  0.7468 -0.5973 -0.5746
 4282TIP3   OH234260   0.538   1.848  10.466 -0.1198  0.2292  0.4331
 4282TIP3    H134261   0.560   1.789  10.537  0.5412 -0.3188 -0.2039
 4282TIP3    H234262   0.446   1.870  10.479 -0.2728 -0.6579  0.8847
 4283TIP3   OH234263   1.753   1.521   6.335 -0.6001 -0.4122  0.3881
 4283TIP3    H134264   1.668   1.487   6.306  0.4674 -1.3780 -1.8481
 4283TIP3    H234265   1.731   1.594   6.393 -2.9438 -1.1630  0.5609
 4284TIP3   OH234266   2.541   5.269   1.244 -0.3192 -0.1622  0.5117
 4284TIP3    H134267   2.626   5.228   1.227  0.6389  1.4259  1.2644
 4284TIP3    H234268   2.504   5.284   1.156  0.0223 -1.1354  0.1875
 4285TIP3   OH234269   3.349   0.046   3.415  0.0243  0.5245 -0.4423
 4285TIP3    H134270   3.347   0.079   3.325  1.3707  1.7182 -0.0874
 4285TIP3    H234271   3.434   0.076   3.449 -0.2163 -0.3862  1.0437
 4286TIP3   OH234272   5.341   3.211  13.626  0.0167 -0.1284  0.5288
 4286TIP3    H134273   5.254   3.201  13.665  0.1116  0.7868  0.9750
 4286TIP3    H234274   5.349   3.304  13.607 -0.6336 -0.6602 -3.1021
 4287TIP3   OH234275   1.502   4.244   2.613 -1.1154 -0.0738  0.1997
 4287TIP3    H134276   1.592   4.251   2.581 -1.4761  0.6697 -0.6928
 4287TIP3    H234277   1.506   4.178   2.682  0.4009  0.9971  1.2004
 4288TIP3   OH234278   6.640   3.628   2.489 -0.3147 -0.5130 -0.1561
 4288TIP3    H134279   6.579   3.653   2.558 -0.4414  0.3545 -0.5590
 4288TIP3    H234280   6.679   3.546   2.519 -1.2934 -0.8026  0.3398
 4289TIP3   OH234281   3.742   1.568   1.816  0.0307  0.2796 -0.3974
 4289TIP3    H134282   3.674   1.532   1.759 -0.9678  1.5047 -0.0164
 4289TIP3    H234283   3.767   1.495   1.873  0.8002 -0.8621 -2.1412
 4290TIP3   OH234284   3.755   0.528   3.491  0.4010  0.6310 -0.0321
 4290TIP3    H134285   3.730   0.540   3.399  0.3624  1.6900  0.1050
 4290TIP3    H234286   3.673   0.510   3.537  0.3256  0.8297 -0.0902
 4291TIP3   OH234287   2.396   6.069  16.252  0.9398  0.8756  0.0880
 4291TIP3    H134288   2.364   6.130  16.318  2.8700  0.1333  1.8043
 4291TIP3    H234289   2.318   6.020  16.225  0.1909  0.4889  2.6264
 4292TIP3   OH234290   3.200   3.507   2.539 -0.0840  0.1077  0.4031
 4292TIP3    H134291   3.179   3.555   2.458 -1.9107 -2.9332 -1.1027
 4292TIP3    H234292   3.149   3.551   2.607 -1.9232  0.2073 -0.9657
 4293TIP3   OH234293   0.233   6.559  11.696  0.4612  0.4307 -0.1365
 4293TIP3    H134294   0.254   6.468  11.718 -0.3555 -0.0859 -1.3606
 4293TIP3    H234295   0.201   6.597  11.778 -0.6050 -0.8188  0.0612
 4294TIP3   OH234296   1.754   6.407   6.528 -0.1748 -0.2377  0.1137
 4294TIP3    H134297   1.839   6.449   6.534  0.5879 -1.5518 -0.9695
 4294TIP3    H234298   1.744   6.360   6.611 -0.9461  1.7995  1.2493
 4295TIP3   OH234299   0.462   0.884   3.899  0.2860 -0.0340 -0.2525
 4295TIP3    H134300   0.423   0.931   3.972 -0.3319  0.5304 -0.9296
 4295TIP3    H234301   0.484   0.952   3.835 -0.8672 -0.6561 -1.3642
 4296TIP3   OH234302   4.522   2.095  11.368  0.2686  0.2116  0.2470
 4296TIP3    H134303   4.554   2.080  11.279 -1.8469 -0.2544 -0.5138
 4296TIP3    H234304   4.585   2.051  11.425  2.0296  1.0859 -0.9322
 4297TIP3   OH234305   4.985   4.123   5.390 -0.5908  0.5819 -0.3431
 4297TIP3    H134306   4.933   4.125   5.471  0.4421 -0.3144  0.3716
 4297TIP3    H234307   5.042   4.200   5.397 -3.1145  2.7717 -2.0892
 4298TIP3   OH234308   5.636   1.039   3.090 -0.1243 -0.4117 -0.5287
 4298TIP3    H134309   5.664   1.032   3.181 -0.8831 -0.2935 -0.2831
 4298TIP3    H234310   5.718   1.041   3.040  0.2781 -1.4305  0.0702
 4299TIP3   OH234311   4.950   2.425   3.021  0.0093 -0.0181  0.4315
 4299TIP3    H134312   4.923   2.511   2.989 -0.5852 -0.7643 -1.1750
 4299TIP3    H234313   4.869   2.376   3.032  0.4202 -0.9016 -0.3062
 4300TIP3   OH234314   1.357   5.816   4.567 -0.1785  0.6232 -0.2749
 4300TIP3    H134315   1.328   5.748   4.507  0.4586  0.4536 -0.3990
 4300TIP3    H234316   1.366   5.772   4.652  2.3669 -0.0241 -0.7923
 4301TIP3   OH234317   1.430   1.033   0.447 -0.5866 -0.4399 -0.1691
 4301TIP3    H134318   1.401   1.082   0.524 -0.6586  0.3357 -0.6795
 4301TIP3    H234319   1.408   0.942   0.467 -1.8475 -0.0831  0.1549
 4302TIP3   OH234320   5.313   0.244  15.186 -0.0804  0.5935  0.1928
 4302TIP3    H134321   5.403   0.211  15.183  0.4718  1.8271  2.1422
 4302TIP3    H234322   5.267   0.182  15.243  0.1119  1.2708  1.0845
 4303TIP3   OH234323   4.509   1.183   0.209  0.1382 -0.2878 -0.1366
 4303TIP3    H134324   4.543   1.255   0.262 -0.2567  0.2612 -0.6093
 4303TIP3    H234325   4.488   1.223   0.125 -0.5141 -0.8675 -0.2605
 4304TIP3   OH234326   2.726   6.222   1.439  0.4599  0.4885 -0.6799
 4304TIP3    H134327   2.777   6.148   1.472 -0.7015 -0.7645 -1.5721
 4304TIP3    H234328   2.788   6.274   1.388  1.7610  1.2768  1.5695
 4305TIP3   OH234329   0.731   0.375  14.577  0.7487 -0.6071  0.7556
 4305TIP3    H134330   0.660   0.313  14.593 -0.1740  0.4356  0.8137
 4305TIP3    H234331   0.688   0.461  14.576  1.8739 -0.0360 -0.1691
 4306TIP3   OH234332   5.616   3.643   1.341 -0.0015  0.1668  0.4221
 4306TIP3    H134333   5.590   3.724   1.384 -2.4646  0.0612 -0.6897
 4306TIP3    H234334   5.556   3.577   1.375  0.2060 -0.6200 -0.6790
 4307TIP3   OH234335   0.559   0.883   3.210 -0.2253  0.0923 -0.0121
 4307TIP3    H134336   0.517   0.842   3.134 -0.1504  0.1869 -0.1056
 4307TIP3    H234337   0.641   0.836   3.221 -1.0572 -1.1426  1.1382
 4308TIP3   OH234338   1.646   4.950   2.591 -0.5941  0.0916  0.2713
 4308TIP3    H134339   1.585   4.954   2.518 -2.0199 -0.7982  1.3286
 4308TIP3    H234340   1.670   4.857   2.597  0.7907  0.4019 -0.0316
 4309TIP3   OH234341   4.197   2.544  15.508 -0.2236 -0.1211 -0.7360
 4309TIP3    H134342   4.165   2.610  15.446  1.5557  0.4998 -1.0555
 4309TIP3    H234343   4.145   2.557  15.587  0.3835  2.0117 -0.6322
 4310TIP3   OH234344   4.223   3.441  13.257 -0.2259 -0.3003  0.1162
 4310TIP3    H134345   4.132   3.432  13.288 -0.6476 -1.4837 -1.3117
 4310TIP3    H234346   4.263   3.357  13.279  0.9285  0.6334  1.8058
 4311TIP3   OH234347   2.251   1.734   4.586  0.4333 -0.2483  0.5157
 4311TIP3    H134348   2.313   1.697   4.524 -0.8241 -1.2285 -0.2148
 4311TIP3    H234349   2.213   1.809   4.542  2.0775  1.2392  1.5163
 4312TIP3   OH234350   0.631   6.038   2.960 -0.4805 -0.0644  0.4235
 4312TIP3    H134351   0.537   6.045   2.941 -0.5243  0.9279  0.9352
 4312TIP3    H234352   0.673   6.036   2.874 -0.9785 -0.7916  0.1872
 4313TIP3   OH234353   6.175   3.497  16.741 -0.1840 -0.4040 -0.3576
 4313TIP3    H134354   6.267   3.474  16.754  0.1254 -0.5240 -2.3474
 4313TIP3    H234355   6.177   3.588  16.713 -0.7079 -0.2756  0.0132
 4314TIP3   OH234356   3.977   6.228  16.842 -0.5247  0.4643 -0.3598
 4314TIP3    H134357   3.892   6.236  16.885 -1.2515  0.9575 -1.8032
 4314TIP3    H234358   3.962   6.166  16.770  0.2070  0.9315 -0.9345
 4315TIP3   OH234359   2.625   5.984   3.786  0.2683 -0.3220 -0.3843
 4315TIP3    H134360   2.596   5.899   3.754  1.2222 -0.9201  0.2912
 4315TIP3    H234361   2.545   6.035   3.795 -0.5617 -1.8083  1.1349
 4316TIP3   OH234362   5.902   2.467  12.336 -0.0844 -0.4003  0.0925
 4316TIP3    H134363   5.987   2.485  12.377 -1.4333 -0.0868  3.0056
 4316TIP3    H234364   5.870   2.553  12.308 -1.2252  0.2500  2.9802
 4317TIP3   OH234365   5.877   5.769  15.850 -0.1969 -0.5773 -0.2414
 4317TIP3    H134366   5.834   5.706  15.792  1.5204 -1.3259 -0.7768
 4317TIP3    H234367   5.913   5.835  15.791 -0.3207 -0.1344  0.1690
 4318TIP3   OH234368   4.443   5.038  13.046 -0.4276  0.9990 -0.5051
 4318TIP3    H134369   4.452   4.989  12.964  0.7134  2.5489 -1.3551
 4318TIP3    H234370   4.533   5.056  13.074 -0.7853  2.9230 -0.4421
 4319TIP3   OH234371   2.849   4.170   3.442  0.0891  0.0095 -0.1047
 4319TIP3    H134372   2.892   4.254   3.456  0.6773 -0.3603  0.3911
 4319TIP3    H234373   2.898   4.129   3.371 -1.2675  0.7867 -1.5452
 4320TIP3   OH234374   5.656   4.452   2.004  0.4337 -0.3924 -0.2468
 4320TIP3    H134375   5.726   4.398   2.039  0.7362  0.0314 -0.1896
 4320TIP3    H234376   5.687   4.542   2.016 -0.0103 -0.2110 -0.4457
 4321TIP3   OH234377   0.626   5.776  14.487 -0.1529 -0.2052  0.1196
 4321TIP3    H134378   0.705   5.724  14.473  0.7652  1.0141  0.5779
 4321TIP3    H234379   0.594   5.748  14.573  1.1828  1.0039  1.0485
 4322TIP3   OH234380   3.909   1.736  12.345 -0.2934 -0.8866  0.1968
 4322TIP3    H134381   3.956   1.690  12.275  2.1249  1.2778  0.2769
 4322TIP3    H234382   3.870   1.812  12.302 -0.4381 -0.5874  0.8479
 4323TIP3   OH234383   2.723   5.249   5.970 -0.1311  0.0226 -0.2348
 4323TIP3    H134384   2.784   5.180   5.997 -0.8641  0.0724  1.7366
 4323TIP3    H234385   2.674   5.270   6.050 -0.3754  2.3896 -0.9176
 4324TIP3   OH234386   0.728   3.606  15.531 -0.1990  0.0254 -0.0667
 4324TIP3    H134387   0.663   3.675  15.514 -0.7466  0.1113  2.0872
 4324TIP3    H234388   0.682   3.543  15.586  1.0706 -0.7552  0.1405
 4325TIP3   OH234389   1.535   3.286  11.791  0.2623  0.2673 -0.2000
 4325TIP3    H134390   1.484   3.367  11.800 -0.7392 -0.4022  0.4681
 4325TIP3    H234391   1.618   3.304  11.835 -0.7104  0.3340  1.7349
 4326TIP3   OH234392   3.718   5.651   3.313  0.2786  0.5060 -0.3290
 4326TIP3    H134393   3.695   5.741   3.336  0.2289  0.7188 -1.1745
 4326TIP3    H234394   3.788   5.660   3.248  2.0354 -0.1109  1.3712
 4327TIP3   OH234395   3.867   5.483  16.221  0.4776 -0.4825 -0.3971
 4327TIP3    H134396   3.861   5.438  16.137  1.0651 -1.2443 -0.0433
 4327TIP3    H234397   3.961   5.495  16.235  0.3370  1.4674 -0.7867
 4328TIP3   OH234398   4.293   5.061  14.803 -0.3354  0.3348  0.4079
 4328TIP3    H134399   4.211   5.041  14.757 -0.9167  0.8403  1.2007
 4328TIP3    H234400   4.335   5.128  14.748 -0.4105  0.0157 -0.0437
 4329TIP3   OH234401   3.376   4.465   1.188  0.0460  0.4594 -0.4928
 4329TIP3    H134402   3.402   4.414   1.111 -0.7291 -0.8889  0.1021
 4329TIP3    H234403   3.288   4.495   1.168  0.2712  1.0836 -0.5843
 4330TIP3   OH234404   3.963   3.487   5.787 -0.5798  0.5900 -0.3987
 4330TIP3    H134405   3.873   3.477   5.818 -0.7235  0.3337 -0.8922
 4330TIP3    H234406   4.001   3.553   5.846 -0.9347  0.3356  0.1270
 4331TIP3   OH234407   0.203   0.393  12.347  0.2197  0.0084 -0.4246
 4331TIP3    H134408   0.250   0.426  12.271 -1.7152 -1.0639 -2.1648
 4331TIP3    H234409   0.264   0.332  12.388  0.6735 -0.7312 -2.1351
 4332TIP3   OH234410   1.900   4.588   4.978  0.4597 -0.0907 -0.2575
 4332TIP3    H134411   1.845   4.596   5.056 -0.6588 -1.6441 -0.8283
 4332TIP3    H234412   1.963   4.519   5.000 -0.1247 -0.8266 -0.8481
 4333TIP3   OH234413   0.433   1.927   5.739  0.0646 -0.1279 -0.0656
 4333TIP3    H134414   0.486   1.944   5.661 -2.5513  0.9032 -1.7582
 4333TIP3    H234415   0.476   1.853   5.781  2.7937  0.6109 -1.2828
 4334TIP3   OH234416   2.000   2.798  10.812 -0.0147 -0.0108 -0.1635
 4334TIP3    H134417   1.917   2.751  10.803 -0.1912 -0.4522  2.8500
 4334TIP3    H234418   2.064   2.742  10.767 -0.7437 -1.6110  0.7107
 4335TIP3   OH234419   4.266   4.059  14.734 -0.4868  0.4607  0.3590
 4335TIP3    H134420   4.254   4.142  14.781 -0.7377  0.3628  0.4695
 4335TIP3    H234421   4.353   4.029  14.761  0.0758  1.2285 -0.5306
 4336TIP3   OH234422   6.317   6.358  13.104  0.0656  0.4284 -0.4202
 4336TIP3    H134423   6.292   6.317  13.186 -0.5645  0.5795 -0.5330
 4336TIP3    H234424   6.386   6.420  13.128 -0.9833  1.3733  0.1952
 4337TIP3   OH234425   5.236   2.046  12.897  0.1054 -0.2092  0.4902
 4337TIP3    H134426   5.145   2.076  12.906  0.6129  1.6545 -0.1115
 4337TIP3    H234427   5.236   1.995  12.815 -0.9682 -2.8515  2.0009
 4338TIP3   OH234428   0.035   6.344  15.292 -0.1940  0.0021 -0.7437
 4338TIP3    H134429   0.007   6.323  15.203 -1.2618  1.7139 -0.8670
 4338TIP3    H234430   0.116   6.295  15.304  0.3815  0.3109 -2.9541
 4339TIP3   OH234431   5.949   0.762   0.674 -0.0267  0.5527 -0.0988
 4339TIP3    H134432   5.996   0.741   0.594  0.3286  1.5148 -0.1586
 4339TIP3    H234433   6.013   0.749   0.744  0.4026  1.9528 -0.1881
 4340TIP3   OH234434   5.735   3.528   3.209  0.2350 -0.0199  0.0000
 4340TIP3    H134435   5.818   3.569   3.183  0.3895  0.0884  0.6570
 4340TIP3    H234436   5.718   3.562   3.297 -1.4381  1.4117 -0.8091
 4341TIP3   OH234437   6.483   1.202   2.045  0.0055 -0.6951  0.1322
 4341TIP3    H134438   6.456   1.250   2.123  1.8500 -0.2947  0.5526
 4341TIP3    H234439   6.405   1.202   1.989 -0.2591  2.3004  0.3513
 4342TIP3   OH234440   1.927   3.016  11.272 -0.1143 -0.2214 -0.6108
 4342TIP3    H134441   1.859   2.951  11.290 -0.7159  0.7368  0.7601
 4342TIP3    H234442   1.883   3.083  11.221 -0.1223  0.2349 -0.0145
 4343TIP3   OH234443   0.311   4.761   1.201 -0.1935 -0.0960  0.0091
 4343TIP3    H134444   0.374   4.786   1.133  0.5051 -0.4416  0.5248
 4343TIP3    H234445   0.263   4.842   1.220 -0.2782  0.0486 -0.7572
 4344TIP3   OH234446   4.643   1.538   4.649  0.6139 -0.5603 -0.3871
 4344TIP3    H134447   4.694   1.542   4.730  2.1719  0.3580 -1.3706
 4344TIP3    H234448   4.660   1.451   4.614 -2.3634 -2.1347  1.6143
 4345TIP3   OH234449   1.895   1.895  14.510 -0.6405 -0.0425  0.0384
 4345TIP3    H134450   1.923   1.854  14.428  0.0873  1.1687 -0.3499
 4345TIP3    H234451   1.849   1.826  14.557  1.7991 -1.7536  0.0862
 4346TIP3   OH234452   6.530   5.617   5.632 -0.2559  0.1664 -0.0398
 4346TIP3    H134453   6.616   5.601   5.671  0.4771 -0.9796 -1.9533
 4346TIP3    H234454   6.491   5.684   5.687  2.2462  1.4165  0.3779
 4347TIP3   OH234455   4.181   2.419   3.857  0.4119 -0.3915 -0.5059
 4347TIP3    H134456   4.237   2.428   3.934  0.0912 -0.9020 -0.2028
 4347TIP3    H234457   4.124   2.495   3.859  0.5972 -0.2563 -0.3982
 4348TIP3   OH234458   5.443   2.327   1.185 -0.5313 -0.3030 -0.3751
 4348TIP3    H134459   5.484   2.328   1.271  0.9094  0.3322 -1.0225
 4348TIP3    H234460   5.368   2.385   1.193 -0.6702 -0.5964  0.5604
 4349TIP3   OH234461   0.710   5.241  13.781 -0.2249  0.0763 -1.0519
 4349TIP3    H134462   0.712   5.176  13.710  0.9844  1.4533 -2.3508
 4349TIP3    H234463   0.623   5.232  13.819 -0.4610 -1.5724 -1.8732
 4350TIP3   OH234464   3.352   3.583   5.079 -0.1608  0.1642 -0.4700
 4350TIP3    H134465   3.422   3.518   5.082 -0.1242  0.2480  1.6980
 4350TIP3    H234466   3.387   3.659   5.124 -1.0082  0.8821 -0.9987
 4351TIP3   OH234467   5.315   1.587  13.490  0.6537  0.0981  0.0177
 4351TIP3    H134468   5.391   1.595  13.432  0.7989 -1.0739  0.0406
 4351TIP3    H234469   5.340   1.523  13.556 -0.1050  0.2156  0.4434
 4352TIP3   OH234470   5.880   1.065  12.779  0.5079 -0.3069  0.1124
 4352TIP3    H134471   5.928   1.003  12.834 -0.5027 -1.2759 -0.0684
 4352TIP3    H234472   5.901   1.040  12.689  1.4789  0.7423  0.0175
 4353TIP3   OH234473   1.774   6.057   0.339 -0.0369 -0.1804 -0.5001
 4353TIP3    H134474   1.773   6.056   0.243 -0.1908 -2.0785 -0.5211
 4353TIP3    H234475   1.841   5.994   0.363  0.2364  0.5271  0.6671
 4354TIP3   OH234476   2.766   3.971  14.967  0.4153 -0.4867 -0.0339
 4354TIP3    H134477   2.730   3.912  15.034  1.9675 -0.8455  0.5202
 4354TIP3    H234478   2.706   4.046  14.968  0.7271 -0.1667  2.2705
 4355TIP3   OH234479   5.655   3.816   4.952  0.7461 -0.5090  0.2845
 4355TIP3    H134480   5.559   3.822   4.944  0.9243  2.7561 -0.6932
 4355TIP3    H234481   5.669   3.770   5.035 -1.6018 -2.3570 -0.2277
 4356TIP3   OH234482   0.432   3.999   1.980  0.7339  0.0312  0.0307
 4356TIP3    H134483   0.471   3.912   1.971  1.7347  0.4123  0.4793
 4356TIP3    H234484   0.415   4.027   1.890  0.0268 -0.7761 -0.1025
 4357TIP3   OH234485   4.265   6.683  15.032  0.5882  0.1674  0.3869
 4357TIP3    H134486   4.300   6.721  15.113 -0.1027 -2.0689  1.8382
 4357TIP3    H234487   4.174   6.712  15.029  0.6794  0.4432  0.2860
 4358TIP3   OH234488   1.911   1.374  14.790  0.3169  0.7289 -0.0420
 4358TIP3    H134489   1.817   1.385  14.799  0.1595 -0.7645  0.2990
 4358TIP3    H234490   1.948   1.417  14.868 -0.2464 -0.7572  1.0762
 4359TIP3   OH234491   4.124   2.504  11.515 -0.3897  0.0098 -0.3386
 4359TIP3    H134492   4.203   2.452  11.522  0.3159  1.0669 -0.2900
 4359TIP3    H234493   4.112   2.518  11.421  0.3163  1.0732 -0.2868
 4360TIP3   OH234494   6.653   1.907   4.721 -0.6469 -0.3468 -0.5259
 4360TIP3    H134495   6.741   1.945   4.714 -0.6610 -0.2997 -0.4415
 4360TIP3    H234496   6.596   1.982   4.740 -0.5245 -0.5613  0.7596
 4361TIP3   OH234497   3.780   4.650   2.380 -0.0736 -0.1022 -0.4945
 4361TIP3    H134498   3.797   4.733   2.336  0.6446 -0.9464 -1.8969
 4361TIP3    H234499   3.754   4.674   2.469 -0.4983  1.6357 -1.0492
 4362TIP3   OH234500   2.033   2.751  17.261  0.1038 -0.1851  0.3456
 4362TIP3    H134501   2.062   2.839  17.239  2.6508 -1.0050  0.1263
 4362TIP3    H234502   1.976   2.725  17.188 -1.0142  1.3655  0.6156
 4363TIP3   OH234503   0.386   1.557  11.098  0.6739  0.3239 -0.0111
 4363TIP3    H134504   0.330   1.490  11.058  1.0812 -1.0674  1.5961
 4363TIP3    H234505   0.443   1.587  11.027  0.9078 -1.5188 -0.6595
 4364TIP3   OH234506   2.333   4.038   1.031  0.0583 -0.4626 -0.3698
 4364TIP3    H134507   2.384   4.119   1.036 -2.6729  1.4943 -1.2645
 4364TIP3    H234508   2.396   3.968   1.050  2.6851  1.7946 -0.0933
 4365TIP3   OH234509   6.648   6.424  14.378 -0.3450 -0.0619  0.1003
 4365TIP3    H134510   6.651   6.431  14.474  2.0948 -0.7123  0.1531
 4365TIP3    H234511   6.590   6.350  14.361  0.6336 -1.1479  1.2252
 4366TIP3   OH234512   6.385   6.270   1.066  0.1823  0.6370 -0.5689
 4366TIP3    H134513   6.344   6.312   1.142  1.0625  1.7546 -0.6753
 4366TIP3    H234514   6.348   6.182   1.063  1.5260 -0.1359  2.3078
 4367TIP3   OH234515   1.454   4.265   4.384  0.3374 -0.0060 -0.0661
 4367TIP3    H134516   1.507   4.295   4.311  0.1471 -0.2010 -0.2869
 4367TIP3    H234517   1.461   4.170   4.382 -0.2994 -0.0571 -0.3201
 4368TIP3   OH234518   4.914   1.027  12.851 -0.5456  0.1388 -0.1154
 4368TIP3    H134519   4.890   0.967  12.780 -2.2665  0.8796 -0.2105
 4368TIP3    H234520   4.914   0.972  12.929 -1.1661 -0.1860 -0.3344
 4369TIP3   OH234521   2.783   5.621  11.984  0.9269  0.1475 -0.2735
 4369TIP3    H134522   2.861   5.630  12.038  0.3328  0.1887  0.6158
 4369TIP3    H234523   2.742   5.540  12.015  0.3933  0.3575 -0.4157
 4370TIP3   OH234524   2.000   3.607  12.405  0.3209  0.7011 -0.3002
 4370TIP3    H134525   2.013   3.682  12.463  2.0354  0.9912 -1.0183
 4370TIP3    H234526   2.045   3.535  12.450 -1.8042 -0.0991  0.6737
 4371TIP3   OH234527   6.766   3.479   1.532 -0.3868 -0.2614  0.4899
 4371TIP3    H134528   6.723   3.545   1.479  0.5424  0.6224  0.7986
 4371TIP3    H234529   6.747   3.396   1.488 -1.9858  0.1453  0.3824
 4372TIP3   OH234530   4.474   4.301  16.293  0.8270  0.1064 -0.1888
 4372TIP3    H134531   4.538   4.362  16.328  1.8131 -1.3615  0.7110
 4372TIP3    H234532   4.500   4.288  16.202  1.4746 -0.0399  0.0117
 4373TIP3   OH234533   6.221   6.514   4.302 -0.3737  0.2237  0.3616
 4373TIP3    H134534   6.292   6.556   4.351 -0.0993 -0.7737  0.8338
 4373TIP3    H234535   6.253   6.425   4.285 -1.7609 -0.4370  1.1261
 4374TIP3   OH234536   6.102   2.101   2.724 -0.1711 -0.2323 -0.3808
 4374TIP3    H134537   6.158   2.179   2.733 -1.2681  0.4917  0.5432
 4374TIP3    H234538   6.124   2.047   2.799  0.2269 -0.5860 -0.7468
 4375TIP3   OH234539   5.323   2.637  16.467  0.2094 -0.0819  0.5352
 4375TIP3    H134540   5.290   2.658  16.555  0.6563  0.1367  0.6528
 4375TIP3    H234541   5.280   2.555  16.445 -0.6569  0.3559  0.5523
 4376TIP3   OH234542   6.691   6.309  12.853 -0.1847  0.7782  0.5071
 4376TIP3    H134543   6.656   6.237  12.906 -0.0833 -1.0479 -1.7741
 4376TIP3    H234544   6.781   6.283  12.834 -0.5771  0.7273 -1.5340
 4377TIP3   OH234545   5.612   1.173   0.059 -0.2820  0.1650 -0.1677
 4377TIP3    H134546   5.542   1.206   0.003 -1.0505 -0.2027  0.5532
 4377TIP3    H234547   5.585   1.084   0.082  0.2120  0.1671  0.4649
 4378TIP3   OH234548   3.332   1.708  11.154  0.6605 -0.1564  0.5157
 4378TIP3    H134549   3.251   1.688  11.200  0.9743 -0.2399  1.0433
 4378TIP3    H234550   3.329   1.655  11.074 -0.2390  0.5661  0.0620
 4379TIP3   OH234551   3.630   5.303  16.913 -0.3455 -0.2618 -0.2941
 4379TIP3    H134552   3.712   5.290  16.961 -1.6469 -0.5644  1.9907
 4379TIP3    H234553   3.596   5.386  16.947 -1.3806 -0.5492 -0.5872
 4380TIP3   OH234554   0.502   2.480   5.099  0.2907 -0.0647  0.3834
 4380TIP3    H134555   0.442   2.435   5.158  1.8314 -0.4260  1.7449
 4380TIP3    H234556   0.446   2.516   5.030 -1.5279  0.1528  1.9119
 4381TIP3   OH234557   2.901   2.665  13.333 -0.2739 -0.3742 -0.0985
 4381TIP3    H134558   2.825   2.699  13.380 -0.4220  1.4175 -1.5395
 4381TIP3    H234559   2.867   2.596  13.277 -0.6708 -0.1911 -0.0817
 4382TIP3   OH234560   0.407   6.306  11.027 -0.1489 -0.0384  0.3549
 4382TIP3    H134561   0.367   6.367  10.965  1.4548 -0.7203 -1.4534
 4382TIP3    H234562   0.343   6.235  11.036 -0.9930  0.7309  0.6188
 4383TIP3   OH234563   2.294   6.643  11.215  0.0999  0.0689  0.1745
 4383TIP3    H134564   2.313   6.578  11.147 -1.5648  1.3676 -1.6335
 4383TIP3    H234565   2.255   6.716  11.168 -0.2209  1.4416  2.4447
 4384TIP3   OH234566   3.410   3.614  17.106 -1.1614  0.1970 -0.2862
 4384TIP3    H134567   3.460   3.693  17.130  0.5066 -1.0754  0.6491
 4384TIP3    H234568   3.388   3.627  17.014  1.6388  0.5302 -1.0132
 4385TIP3   OH234569   0.484   3.380  12.057 -0.0551  0.6382 -0.7751
 4385TIP3    H134570   0.451   3.294  12.081  0.9182  0.5262  0.2748
 4385TIP3    H234571   0.406   3.435  12.049 -0.5913  0.0983  0.4189
 4386TIP3   OH234572   6.277   3.897  16.144 -0.0075  0.3340 -0.1583
 4386TIP3    H134573   6.268   3.964  16.075 -1.2723 -0.8844 -1.2402
 4386TIP3    H234574   6.353   3.845  16.117  0.0418  0.4034 -0.1532
 4387TIP3   OH234575   5.306   5.571  11.397  0.3850 -0.5178 -0.0193
 4387TIP3    H134576   5.239   5.624  11.354 -0.9865 -2.1026  0.0657
 4387TIP3    H234577   5.362   5.635  11.442 -0.7396  0.8778 -0.5386
 4388TIP3   OH234578   3.495   4.714   4.257 -0.2066  0.1647 -0.0771
 4388TIP3    H134579   3.429   4.647   4.238  0.1501 -0.2081 -0.0274
 4388TIP3    H234580   3.451   4.777   4.314 -0.3735 -0.3494  0.3662
 4389TIP3   OH234581   4.272   5.571   0.745 -0.0717 -0.1611  0.1115
 4389TIP3    H134582   4.310   5.487   0.771 -1.9718 -0.5278  1.9778
 4389TIP3    H234583   4.342   5.635   0.759  0.7102 -1.1369  0.7951
 4390TIP3   OH234584   5.493   3.332  12.312  0.6582  0.6735  0.5730
 4390TIP3    H134585   5.453   3.315  12.227  1.8866  0.6060 -0.0217
 4390TIP3    H234586   5.420   3.333  12.374  0.0673 -3.1212  0.1287
 4391TIP3   OH234587   0.339   3.626  11.987 -0.3932  0.4073  0.3971
 4391TIP3    H134588   0.246   3.647  11.975 -0.4194  1.1594  1.6579
 4391TIP3    H234589   0.385   3.699  11.946 -0.3998  0.8241  1.1182
 4392TIP3   OH234590   0.845   6.311  16.414  0.5391 -0.1250  0.4702
 4392TIP3    H134591   0.869   6.318  16.506  1.4488  0.1384  0.2307
 4392TIP3    H234592   0.754   6.341  16.410  0.2625 -0.7931  1.3717
 4393TIP3   OH234593   6.310   0.794  14.420 -0.5372  0.7233 -0.0665
 4393TIP3    H134594   6.319   0.707  14.459  0.7373  0.6917 -0.3870
 4393TIP3    H234595   6.217   0.802  14.402 -0.5809 -0.9042 -0.7528
 4394TIP3   OH234596   5.120   0.285   4.230 -0.7268  0.3390  0.2607
 4394TIP3    H134597   5.165   0.283   4.145  0.1725  2.2450  0.6370
 4394TIP3    H234598   5.150   0.366   4.271 -1.3687 -0.3933  2.2942
 4395TIP3   OH234599   3.573   5.293  14.682 -0.0257 -0.1268 -0.2682
 4395TIP3    H134600   3.565   5.197  14.682 -1.4577 -0.0420 -1.5530
 4395TIP3    H234601   3.564   5.318  14.590 -0.8305  1.3217  0.1690
 4396TIP3   OH234602   2.004   3.410  15.491  0.4264  0.0829  0.7715
 4396TIP3    H134603   1.914   3.443  15.496 -0.4657 -2.2238  1.2347
 4396TIP3    H234604   2.025   3.415  15.397 -0.2162  0.5394  0.6395
 4397TIP3   OH234605   2.633   0.790   5.420  0.0353  0.0111 -0.1337
 4397TIP3    H134606   2.604   0.828   5.503  1.4800  0.3510  0.2341
 4397TIP3    H234607   2.614   0.697   5.428 -0.5683  0.1570  0.2381
 4398TIP3   OH234608   1.860   5.666   0.143  0.0483 -0.3455 -0.1868
 4398TIP3    H134609   1.951   5.644   0.165  0.4399  0.4735 -0.9515
 4398TIP3    H234610   1.859   5.675   0.048 -0.7539  0.0130 -0.1566
 4399TIP3   OH234611   1.634   2.931   4.108  0.5066  0.1856 -0.1358
 4399TIP3    H134612   1.565   2.986   4.072 -0.4740 -0.2744  0.9800
 4399TIP3    H234613   1.656   2.971   4.192  1.2733  0.0572 -0.2691
 4400TIP3   OH234614   5.707   2.330   3.496 -0.3763 -0.3123  0.1112
 4400TIP3    H134615   5.619   2.294   3.488 -0.3117 -0.9434  1.7980
 4400TIP3    H234616   5.709   2.404   3.435 -1.9673 -0.4653 -0.1594
 4401TIP3   OH234617   3.384   3.760   3.427  0.1617 -0.2783 -0.1818
 4401TIP3    H134618   3.324   3.790   3.359  0.3439  0.4601 -0.0211
 4401TIP3    H234619   3.458   3.820   3.423 -0.2209  0.3404  1.2537
 4402TIP3   OH234620   4.144   6.437   2.395 -0.0959  0.5997 -0.0526
 4402TIP3    H134621   4.207   6.484   2.450  1.9082  1.0388 -2.5210
 4402TIP3    H234622   4.066   6.493   2.396  0.3402  1.2341  1.2852
 4403TIP3   OH234623   2.693   1.104   2.690 -0.3091  0.3780 -0.0559
 4403TIP3    H134624   2.669   1.104   2.783 -0.4853  0.2249 -0.1031
 4403TIP3    H234625   2.641   1.034   2.651  0.1182  0.1235 -0.1778
 4404TIP3   OH234626   3.662   4.696   5.119  0.1657 -0.2120 -0.4162
 4404TIP3    H134627   3.744   4.690   5.168  0.2558  3.0543  0.0411
 4404TIP3    H234628   3.677   4.766   5.055 -3.1933  3.1611  2.0216
 4405TIP3   OH234629   3.202   5.533  15.772 -0.2268  0.0103  0.3394
 4405TIP3    H134630   3.244   5.619  15.762 -2.3073  1.1448  0.5666
 4405TIP3    H234631   3.147   5.525  15.694 -0.6832 -0.7285  0.7348
 4406TIP3   OH234632   4.407   6.295  16.251 -0.1375  0.0647  0.1985
 4406TIP3    H134633   4.325   6.343  16.249 -0.3148 -0.0345  2.4086
 4406TIP3    H234634   4.474   6.362  16.265 -0.0309 -0.0188  0.0941
 4407TIP3   OH234635   5.815   4.275  16.728 -1.0310 -0.6446  0.3910
 4407TIP3    H134636   5.786   4.251  16.640  1.4916  0.1003 -0.7451
 4407TIP3    H234637   5.772   4.359  16.746 -1.8691 -0.9939  0.0565
 4408TIP3   OH234638   5.002   2.809   4.786 -0.3700  0.3672 -0.1309
 4408TIP3    H134639   4.959   2.894   4.787 -1.9647 -0.4005  0.1849
 4408TIP3    H234640   4.954   2.759   4.719  0.3206 -0.3926 -0.0779
 4409TIP3   OH234641   0.446   6.188   1.268 -0.0143 -0.0516  0.2824
 4409TIP3    H134642   0.535   6.217   1.290  1.0698 -2.3165 -0.7553
 4409TIP3    H234643   0.447   6.179   1.172 -1.1441 -0.7314  0.3202
 4410TIP3   OH234644   3.286   1.865  15.733  0.1560  0.0127 -0.1747
 4410TIP3    H134645   3.334   1.874  15.650 -0.8213  2.3442 -0.5661
 4410TIP3    H234646   3.194   1.874  15.709 -0.4445 -2.6865  0.7975
 4411TIP3   OH234647   2.272   5.392  12.785  0.3816 -0.1961  0.3819
 4411TIP3    H134648   2.296   5.315  12.733  2.2935  1.3375 -1.1455
 4411TIP3    H234649   2.217   5.444  12.727 -0.1440  0.0382  1.0777
 4412TIP3   OH234650   0.232   3.544  15.527 -0.3457  0.3627  0.1310
 4412TIP3    H134651   0.158   3.580  15.576  0.1980  0.5529  0.8243
 4412TIP3    H234652   0.239   3.453  15.557  0.3271  0.6371  0.8138
 4413TIP3   OH234653   4.198   4.552  12.969  0.8636  0.6172 -0.7188
 4413TIP3    H134654   4.285   4.517  12.991 -0.1450 -1.0255  0.8944
 4413TIP3    H234655   4.153   4.478  12.927 -0.3422  0.8651  0.1090
 4414TIP3   OH234656   5.783   5.057   2.794  0.2241 -0.3116 -0.1852
 4414TIP3    H134657   5.800   4.970   2.758 -0.2692 -0.5399  0.1209
 4414TIP3    H234658   5.756   5.109   2.718  0.1879 -0.5178 -0.3155
 4415TIP3   OH234659   1.216   4.635   1.432  0.0051  0.0742 -0.6698
 4415TIP3    H134660   1.261   4.714   1.460  0.7792 -0.4444 -0.4454
 4415TIP3    H234661   1.230   4.632   1.337  1.1684 -0.5170 -0.4980
 4416TIP3   OH234662   5.324   3.684   4.744 -0.4972  0.0293 -0.2967
 4416TIP3    H134663   5.294   3.667   4.833 -1.0381 -0.8334 -0.6247
 4416TIP3    H234664   5.243   3.689   4.693 -0.1759  0.1545 -0.8011
 4417TIP3   OH234665   3.139   3.777   2.453 -0.9186 -0.2205 -0.1219
 4417TIP3    H134666   3.108   3.791   2.543 -0.2420 -1.2841  0.2941
 4417TIP3    H234667   3.060   3.787   2.399 -1.4689 -0.2439  0.6521
 4418TIP3   OH234668   4.637   1.528  16.075 -0.2949  0.6186  0.2775
 4418TIP3    H134669   4.591   1.551  15.995  0.7705  0.7947 -0.3111
 4418TIP3    H234670   4.583   1.460  16.116 -1.1120  0.8973 -0.3175
 4419TIP3   OH234671   5.901   4.660  15.926  0.0601 -0.1421  0.4087
 4419TIP3    H134672   5.968   4.667  15.858 -0.4447  1.5878  0.0304
 4419TIP3    H234673   5.872   4.569  15.923  1.8166 -0.7324  0.0515
 4420TIP3   OH234674   0.959   1.338   6.744  0.0549  0.2040  0.0582
 4420TIP3    H134675   0.936   1.246   6.731 -1.8363  0.3208  2.0587
 4420TIP3    H234676   1.054   1.341   6.730  0.1082 -1.9322 -0.4903
 4421TIP3   OH234677   3.937   4.853  16.320 -0.2808  0.0433  0.4874
 4421TIP3    H134678   3.905   4.869  16.232 -0.2394  0.3570  0.5282
 4421TIP3    H234679   3.868   4.801  16.362 -0.4136  0.1070  0.3498
 4422TIP3   OH234680   3.822   2.134  14.545 -0.7705  0.0333 -0.1528
 4422TIP3    H134681   3.851   2.055  14.501 -2.6180 -1.1532  0.6457
 4422TIP3    H234682   3.890   2.151  14.611 -0.3641 -0.8790 -0.3241
 4423TIP3   OH234683   5.203   3.691  14.571 -0.4624  0.2526  0.3504
 4423TIP3    H134684   5.288   3.655  14.549 -0.8700  0.2128 -1.2632
 4423TIP3    H234685   5.212   3.785  14.555 -0.4514  0.3950  1.1284
 4424TIP3   OH234686   4.752   2.345   2.575  0.2624  0.2662  0.8908
 4424TIP3    H134687   4.746   2.420   2.516 -1.6756 -0.5258  0.0317
 4424TIP3    H234688   4.678   2.355   2.634  0.0584 -0.9063  0.8501
 4425TIP3   OH234689   4.542   5.868  10.556 -0.4425 -0.0546  0.4568
 4425TIP3    H134690   4.499   5.790  10.522 -1.3796  0.1904  1.0435
 4425TIP3    H234691   4.494   5.941  10.516 -1.3563  0.2301  2.0197
 4426TIP3   OH234692   6.587   2.006  16.515 -0.2564 -0.1230 -0.4966
 4426TIP3    H134693   6.595   1.988  16.422 -1.0873 -2.8538 -0.1505
 4426TIP3    H234694   6.492   2.007  16.531 -0.1406  0.8468  0.2629
 4427TIP3   OH234695   3.216   2.393  13.220  0.7468 -0.3037 -0.1176
 4427TIP3    H134696   3.152   2.348  13.276 -0.1214  2.0708  0.9395
 4427TIP3    H234697   3.162   2.439  13.155  1.4709  0.4390 -0.2124
 4428TIP3   OH234698   1.361   1.528  15.822  0.2619  0.1976  0.1326
 4428TIP3    H134699   1.395   1.617  15.830 -0.9381  0.5206  2.7516
 4428TIP3    H234700   1.281   1.537  15.770 -2.5220  1.6784  4.1132
 4429TIP3   OH234701   0.159   3.299   4.716 -0.1137 -0.8013 -0.4906
 4429TIP3    H134702   0.177   3.360   4.788  0.6560 -0.9571 -0.5520
 4429TIP3    H234703   0.189   3.214   4.749 -0.1671 -0.9523 -0.8308
 4430TIP3   OH234704   5.745   0.538   0.278  0.5267 -0.5695 -0.1937
 4430TIP3    H134705   5.661   0.522   0.320 -0.6143 -0.3903 -2.3064
 4430TIP3    H234706   5.792   0.455   0.285 -0.1679 -0.9326  0.2400
 4431TIP3   OH234707   0.868   5.492   2.154  0.1714 -0.2744  0.1004
 4431TIP3    H134708   0.895   5.435   2.083  0.1310 -2.0672  1.4620
 4431TIP3    H234709   0.949   5.518   2.197  0.0710 -2.3998  1.7354
 4432TIP3   OH234710   6.362   4.543   3.091  1.2244 -0.9675 -0.0732
 4432TIP3    H134711   6.356   4.638   3.093  1.3834 -0.9541 -0.2322
 4432TIP3    H234712   6.393   4.522   3.003  1.9923 -1.1134  0.2233
 4433TIP3   OH234713   5.808   3.199  14.125 -0.8206  0.4223 -0.0702
 4433TIP3    H134714   5.819   3.156  14.040 -0.3658 -0.9659  0.6616
 4433TIP3    H234715   5.897   3.216  14.155 -0.9059 -0.7807  0.9368
 4434TIP3   OH234716   6.609   5.627  15.986 -0.4619  0.0498 -0.2156
 4434TIP3    H134717   6.576   5.546  15.947 -1.6908  0.3503  0.1675
 4434TIP3    H234718   6.628   5.605  16.077 -1.1848  0.2801 -0.0017
 4435TIP3   OH234719   6.244   3.530   1.099  0.5618  0.0500 -0.0227
 4435TIP3    H134720   6.212   3.525   1.190  0.9546 -0.1010  0.1094
 4435TIP3    H234721   6.244   3.440   1.069 -1.4369  0.2811 -0.8430
 4436TIP3   OH234722   6.626   1.239  15.015 -0.3985 -0.4452 -0.1574
 4436TIP3    H134723   6.542   1.284  15.013 -1.3449 -2.0628  0.8423
 4436TIP3    H234724   6.646   1.228  15.108  1.0330  0.0925 -0.3743
 4437TIP3   OH234725   0.200   4.934  15.921 -0.3277  0.3285  1.0555
 4437TIP3    H134726   0.163   4.855  15.882  0.0441  0.3642  0.6222
 4437TIP3    H234727   0.125   4.979  15.960 -0.7799  0.4997  0.0210
 4438TIP3   OH234728   6.203   2.801   2.543  0.0543 -0.2646  0.1556
 4438TIP3    H134729   6.231   2.866   2.608 -0.4540 -0.5992  0.7159
 4438TIP3    H234730   6.148   2.851   2.482  0.3838  0.0103  0.0766
 4439TIP3   OH234731   5.762   5.523   3.203  0.1667 -0.1685 -0.6824
 4439TIP3    H134732   5.766   5.480   3.118 -0.3266  0.2081 -0.9061
 4439TIP3    H234733   5.714   5.605   3.186 -2.6587 -1.4352  0.4677
 4440TIP3   OH234734   4.280   1.062  13.996 -0.2657  0.7151 -0.1054
 4440TIP3    H134735   4.186   1.067  13.979 -0.1042  0.0904 -1.2387
 4440TIP3    H234736   4.307   0.977  13.961  0.5557  0.4691  1.0554
 4441TIP3   OH234737   3.291   0.785  16.688 -0.3097 -0.8544 -0.3178
 4441TIP3    H134738   3.382   0.766  16.668 -0.5987 -2.3319 -0.3407
 4441TIP3    H234739   3.285   0.775  16.783  0.2727  2.6632  0.2259
 4442TIP3   OH234740   3.758   1.532   5.554  0.3098 -0.4417  0.4385
 4442TIP3    H134741   3.846   1.501   5.529 -0.2541 -2.2761  0.5945
 4442TIP3    H234742   3.731   1.587   5.480  1.9309  0.9567  0.8068
 4443TIP3   OH234743   0.333   3.250  15.241 -0.6947 -0.2257  0.0403
 4443TIP3    H134744   0.275   3.236  15.166 -1.8534 -0.0028  0.8718
 4443TIP3    H234745   0.311   3.337  15.274  2.1321  1.1550 -1.3170
 4444TIP3   OH234746   3.202   2.270   5.446 -0.1076  0.3236  0.0710
 4444TIP3    H134747   3.170   2.309   5.527  0.2049  0.3983  0.1584
 4444TIP3    H234748   3.156   2.318   5.377 -1.4027 -0.6316  0.2198
 4445TIP3   OH234749   0.816   1.471   2.801 -0.0839  0.1014  0.2633
 4445TIP3    H134750   0.751   1.513   2.744 -0.0923 -2.4111 -1.8019
 4445TIP3    H234751   0.884   1.537   2.814 -0.9270  1.3279 -1.2534
 4446TIP3   OH234752   1.140   6.113  16.165 -0.2562  0.3178  0.0685
 4446TIP3    H134753   1.206   6.135  16.100 -0.1962  1.4135  0.4684
 4446TIP3    H234754   1.062   6.161  16.137 -1.3431 -2.0039 -1.1403
 4447TIP3   OH234755   5.742   0.899  13.141  0.5165  0.2358  0.3717
 4447TIP3    H134756   5.717   0.980  13.097 -1.5286 -0.1561  0.6862
 4447TIP3    H234757   5.774   0.842  13.071  0.1256  0.6447 -0.1444
 4448TIP3   OH234758   5.617   1.731   5.069 -0.5747  0.0333  0.1238
 4448TIP3    H134759   5.640   1.638   5.070  0.1691  0.1769  2.4129
 4448TIP3    H234760   5.701   1.777   5.061 -0.9311  0.5310 -0.9535
 4449TIP3   OH234761   2.282   3.997  11.924  0.2421  0.3360 -0.0620
 4449TIP3    H134762   2.302   3.971  11.834 -1.5419  0.3762 -0.4954
 4449TIP3    H234763   2.187   4.005  11.927  0.0999 -1.3436  2.3014
 4450TIP3   OH234764   3.151   1.248  15.137  1.2560  0.2154 -0.5426
 4450TIP3    H134765   3.056   1.238  15.132  1.4258 -0.8593 -5.0786
 4450TIP3    H234766   3.181   1.171  15.186 -0.0910  0.4640  0.7573
 4451TIP3   OH234767   0.974   0.990  14.274  0.1057  0.7109 -0.2793
 4451TIP3    H134768   0.918   1.060  14.237 -1.7130 -0.5778 -0.1125
 4451TIP3    H234769   1.023   0.957  14.199 -0.8265  0.5777 -0.8570
 4452TIP3   OH234770   3.885   2.341   2.309 -0.7169 -0.5346  0.1183
 4452TIP3    H134771   3.817   2.297   2.258 -1.6165  0.7076  0.2049
 4452TIP3    H234772   3.837   2.386   2.379  0.2787 -0.3318  0.6876
 4453TIP3   OH234773   1.536   4.465   6.032 -0.3543  0.1094  0.0988
 4453TIP3    H134774   1.488   4.485   6.112 -0.4767  2.1470 -0.4127
 4453TIP3    H234775   1.606   4.406   6.059 -1.2343 -0.3644  1.4306
 4454TIP3   OH234776   0.474   3.932   0.098  0.2597 -0.1990  0.3293
 4454TIP3    H134777   0.511   3.927   0.186 -1.6249  0.5406  1.2170
 4454TIP3    H234778   0.478   4.025   0.076 -0.2003 -0.2433  0.0492
 4455TIP3   OH234779   6.073   5.877  12.903  0.2574  0.4291 -0.3177
 4455TIP3    H134780   6.094   5.971  12.908  1.3329  0.1950 -0.1730
 4455TIP3    H234781   6.065   5.859  12.810  2.0368  0.2738 -0.4733
 4456TIP3   OH234782   2.802   6.617  11.901 -0.2051 -0.0070  0.0513
 4456TIP3    H134783   2.781   6.647  11.990 -0.1766  0.6512 -0.1561
 4456TIP3    H234784   2.745   6.541  11.888 -0.8342  0.4030  0.3206
 4457TIP3   OH234785   4.818   0.154  14.904  0.6413 -0.0667  0.6489
 4457TIP3    H134786   4.801   0.063  14.881  0.6054  0.2637 -0.7354
 4457TIP3    H234787   4.860   0.150  14.990 -0.7231 -1.2812  1.2926
 4458TIP3   OH234788   6.036   1.301  11.218  0.6573  0.2735 -0.0718
 4458TIP3    H134789   6.107   1.342  11.169  2.2275 -2.0752  0.0679
 4458TIP3    H234790   6.053   1.324  11.309  1.1950 -0.1950 -0.0502
 4459TIP3   OH234791   2.545   3.836  14.722  0.6493  0.3349  0.3902
 4459TIP3    H134792   2.544   3.837  14.818  1.2348 -0.4410  0.4160
 4459TIP3    H234793   2.615   3.775  14.699  0.0384 -0.0494 -0.5325
 4460TIP3   OH234794   2.348   3.402  13.830  0.3991  0.1982 -0.5266
 4460TIP3    H134795   2.388   3.342  13.893  1.5793  0.1303 -1.2913
 4460TIP3    H234796   2.294   3.345  13.775 -0.2159  0.1788  0.0917
 4461TIP3   OH234797   2.213   4.262   2.915 -0.0026  0.6207 -0.0092
 4461TIP3    H134798   2.228   4.175   2.876 -1.1792  0.3652  0.0652
 4461TIP3    H234799   2.136   4.250   2.970 -0.7209  1.9192 -0.6826
 4462TIP3   OH234800   1.909   0.896   6.636  0.0557  0.3444 -0.3760
 4462TIP3    H134801   1.940   0.942   6.558 -0.1762  2.1187  0.5166
 4462TIP3    H234802   1.974   0.915   6.703  1.6852 -3.3190 -0.6820
 4463TIP3   OH234803   4.946   3.993  16.088 -0.0929  0.4863  0.0540
 4463TIP3    H134804   4.940   4.000  15.993  0.3775 -1.6350 -0.1655
 4463TIP3    H234805   5.028   3.947  16.105  0.0626  1.2303  1.5206
 4464TIP3   OH234806   4.366   4.496   2.941  0.2147  0.2976  0.3882
 4464TIP3    H134807   4.298   4.450   2.890 -0.0015  1.6394 -0.5803
 4464TIP3    H234808   4.319   4.534   3.015  0.4469 -1.2406  1.3783
 4465TIP3   OH234809   0.036   3.082   3.700  0.3005 -0.0068 -0.6904
 4465TIP3    H134810   0.021   3.173   3.726  2.2366  0.4713 -1.0799
 4465TIP3    H234811   0.047   3.035   3.782 -0.5922  0.1160 -0.4889
 4466TIP3   OH234812   2.344   0.694  12.412  0.0123 -0.0127  0.2385
 4466TIP3    H134813   2.384   0.739  12.338 -1.7927 -0.4175 -1.0586
 4466TIP3    H234814   2.293   0.623  12.373 -0.7014 -0.4867  1.9014
 4467TIP3   OH234815   5.329   5.912   5.055 -0.0811  0.8369 -0.2707
 4467TIP3    H134816   5.311   5.905   5.149  0.9140  0.7009 -0.0796
 4467TIP3    H234817   5.290   5.996   5.030  0.5779  1.3845  0.4951
 4468TIP3   OH234818   4.343   0.508  13.624 -0.2169 -0.5743 -0.0085
 4468TIP3    H134819   4.410   0.439  13.623 -0.3074 -0.6813 -1.7639
 4468TIP3    H234820   4.306   0.507  13.536 -1.5704  0.4357  0.5159
 4469TIP3   OH234821   3.432   1.034   5.290  0.0655 -0.1095 -0.4829
 4469TIP3    H134822   3.420   1.128   5.276 -1.2430 -0.3308 -0.9219
 4469TIP3    H234823   3.348   1.003   5.322  0.0134 -1.4024 -1.7916
 4470TIP3   OH234824   2.320   4.195  14.419 -0.4695 -0.4542 -0.5540
 4470TIP3    H134825   2.291   4.282  14.390 -0.0132  0.8104  2.3218
 4470TIP3    H234826   2.243   4.158  14.462  0.4916  0.6475  2.3850
 4471TIP3   OH234827   2.496   6.294  11.291  1.0315  0.3112  0.3058
 4471TIP3    H134828   2.586   6.308  11.262  1.0983 -0.3114  0.2073
 4471TIP3    H234829   2.458   6.234  11.227  0.6068  0.4021  0.4644
 4472TIP3   OH234830   2.787   0.864   4.292  0.5190  0.3853  0.1553
 4472TIP3    H134831   2.831   0.834   4.212 -0.1811 -1.4166  0.4001
 4472TIP3    H234832   2.859   0.891   4.350  1.0364  1.6065 -1.0140
 4473TIP3   OH234833   6.671   2.923  12.847 -0.0071  0.2818  0.5757
 4473TIP3    H134834   6.641   3.010  12.873  0.6856  1.3786 -1.9885
 4473TIP3    H234835   6.603   2.892  12.786  0.8866  0.0990 -0.3600
 4474TIP3   OH234836   0.712   6.366  15.325  0.0340 -0.3767 -0.1643
 4474TIP3    H134837   0.767   6.335  15.398  1.2179 -1.3802 -1.4182
 4474TIP3    H234838   0.719   6.297  15.259  1.2538  1.6639 -2.3422
 4475TIP3   OH234839   6.735   2.877  12.352 -0.4278  1.1678  0.1821
 4475TIP3    H134840   6.745   2.856  12.445  1.2404 -1.1723 -0.4188
 4475TIP3    H234841   6.805   2.939  12.334  2.7796 -2.2382 -0.4133
 4476TIP3   OH234842   6.660   4.028  17.324  0.1664 -0.2816  0.4263
 4476TIP3    H134843   6.691   3.943  17.292 -0.2199 -1.1427  2.2005
 4476TIP3    H234844   6.573   4.037  17.286  1.3361  0.8172 -2.2555
 4477TIP3   OH234845   3.234   4.021   3.753 -0.4463 -0.1256  0.0915
 4477TIP3    H134846   3.149   4.022   3.709  0.1577  0.5505 -1.1184
 4477TIP3    H234847   3.253   4.112   3.773 -0.4529 -0.3732  1.2922
 4478TIP3   OH234848   4.266   1.102  14.523  0.0279 -0.3126 -0.2187
 4478TIP3    H134849   4.285   1.024  14.470  1.2265 -0.0322 -0.2202
 4478TIP3    H234850   4.350   1.146  14.532 -0.2173 -0.1207  1.5490
 4479TIP3   OH234851   1.814   0.996  16.474  0.4577  0.8405  0.6461
 4479TIP3    H134852   1.752   1.065  16.498 -0.2967  0.1917  0.5977
 4479TIP3    H234853   1.900   1.036  16.486  0.0436  1.5571  1.3092
 4480TIP3   OH234854   3.281   6.454  12.933  0.0110  0.1035  0.1154
 4480TIP3    H134855   3.247   6.377  12.887 -0.9017  1.6305 -1.8712
 4480TIP3    H234856   3.369   6.465  12.897 -0.7237  1.3312 -1.4247
 4481TIP3   OH234857   5.345   2.185  15.328  0.3169  0.2689  0.3351
 4481TIP3    H134858   5.387   2.131  15.395  1.4484  1.8303  0.9611
 4481TIP3    H234859   5.337   2.127  15.253  2.0539 -0.6281  0.7677
 4482TIP3   OH234860   2.514   1.858   2.800 -0.4705 -0.0551 -0.3757
 4482TIP3    H134861   2.586   1.871   2.738  0.7008  0.5433  1.0470
 4482TIP3    H234862   2.475   1.775   2.774 -0.4457  0.4868 -2.3139
 4483TIP3   OH234863   0.015   5.174  13.326 -0.2202  0.2214  0.3832
 4483TIP3    H134864   0.048   5.263  13.335 -0.0460  0.4033 -1.6390
 4483TIP3    H234865  -0.058   5.182  13.265  1.2659 -1.2868 -1.7397
 4484TIP3   OH234866   5.694   4.798  11.222  0.2039 -0.2360 -0.0862
 4484TIP3    H134867   5.650   4.877  11.251 -1.9695 -1.0926 -0.8509
 4484TIP3    H234868   5.739   4.765  11.300  1.2324  1.7344  0.2182
 4485TIP3   OH234869   4.212   5.992  12.726  0.1656  0.0047  0.3341
 4485TIP3    H134870   4.234   6.080  12.756  0.8489 -1.0782  3.3901
 4485TIP3    H234871   4.287   5.966  12.671  0.1512  1.1343 -0.2431
 4486TIP3   OH234872   2.854   2.327  17.271  0.2410  0.3374  0.3091
 4486TIP3    H134873   2.836   2.333  17.177  0.8681  0.7276  0.2071
 4486TIP3    H234874   2.781   2.277  17.306  0.9986 -1.6041 -0.7049
 4487TIP3   OH234875   0.046   4.375   1.454  0.1750  0.2043 -0.5403
 4487TIP3    H134876   0.078   4.288   1.431  0.1314  0.0970 -0.2022
 4487TIP3    H234877  -0.038   4.360   1.497  0.8146  0.2950  0.8059
 4488TIP3   OH234878   5.315   6.194  16.103  0.2288  0.4112 -0.4767
 4488TIP3    H134879   5.241   6.161  16.051 -0.7919 -0.9555  1.7164
 4488TIP3    H234880   5.276   6.261  16.160  0.6186 -0.4161  0.8000
 4489TIP3   OH234881   6.695   5.419  16.550 -0.2087 -0.1987  0.4923
 4489TIP3    H134882   6.690   5.326  16.526 -0.1145  0.3319 -1.8326
 4489TIP3    H234883   6.666   5.422  16.641  0.4981 -2.5841  0.8625
 4490TIP3   OH234884   5.894   4.684  17.075  0.0953  0.3385  0.1933
 4490TIP3    H134885   5.831   4.686  17.146 -0.6521 -1.2979 -0.3867
 4490TIP3    H234886   5.945   4.605  17.089  0.7020  0.5942 -0.4583
 4491TIP3   OH234887   6.764   4.022   0.242  0.1571 -0.0580  0.5034
 4491TIP3    H134888   6.704   4.003   0.169  2.9655 -1.9350 -1.5533
 4491TIP3    H234889   6.755   4.116   0.256 -0.6548  0.3706 -2.2092
 4492TIP3   OH234890   2.250   2.970  14.122 -0.5177 -0.4039 -0.0649
 4492TIP3    H134891   2.298   3.051  14.140 -1.5420  0.7764 -2.1926
 4492TIP3    H234892   2.306   2.923  14.060 -0.7670 -0.4188 -0.2804
 4493TIP3   OH234893   0.733   4.002  16.164 -0.1713 -0.4092  0.6247
 4493TIP3    H134894   0.687   3.969  16.241 -1.0653 -1.6028 -0.3660
 4493TIP3    H234895   0.767   3.924  16.121  0.0246  0.2021 -0.3626
 4494TIP3   OH234896   0.103   1.314  13.848  0.1674 -0.3766  0.3976
 4494TIP3    H134897   0.049   1.393  13.852  0.7884  0.0646  0.1019
 4494TIP3    H234898   0.043   1.243  13.875 -0.9211 -0.0950 -1.1658
 4495TIP3   OH234899   5.786   0.259  16.552  0.2666  0.0763  0.7206
 4495TIP3    H134900   5.804   0.180  16.500  0.2442 -0.6966  1.8430
 4495TIP3    H234901   5.828   0.330  16.504  0.1243 -0.5810 -0.4209
 4496TIP3   OH234902   6.053   3.862   1.433 -0.2600  0.0807  0.4089
 4496TIP3    H134903   6.029   3.895   1.519  1.6333  1.2408  0.5498
 4496TIP3    H234904   6.128   3.915   1.407 -1.0390  0.0379 -2.1614
 4497TIP3   OH234905   2.729   4.917   1.278  0.0519  0.3454 -0.2547
 4497TIP3    H134906   2.724   4.940   1.185 -2.0390 -1.2950 -0.6295
 4497TIP3    H234907   2.797   4.849   1.282  0.0993  0.3724 -0.5922
 4498TIP3   OH234908   2.679   5.557   0.055 -0.2068  0.6824  0.4147
 4498TIP3    H134909   2.736   5.619   0.100 -0.3671  0.7481  0.5288
 4498TIP3    H234910   2.738   5.489   0.023  0.1276  1.5133 -0.7831
 4499TIP3   OH234911   3.245   0.791   6.064 -0.1739  0.4247  0.1733
 4499TIP3    H134912   3.254   0.823   5.974 -0.0057  0.2572  0.1305
 4499TIP3    H234913   3.329   0.748   6.082 -0.1067  0.6854  0.4988
 4500TIP3   OH234914   3.528   1.005  14.504  0.3411  0.6522 -0.4127
 4500TIP3    H134915   3.499   0.924  14.463  0.3841 -0.0475  0.8868
 4500TIP3    H234916   3.618   0.986  14.532  0.0158  0.8206  0.7553
 4501TIP3   OH234917   6.477   4.526  14.374 -0.2154  0.3277  0.4485
 4501TIP3    H134918   6.542   4.592  14.348  0.4594 -1.2160 -2.0704
 4501TIP3    H234919   6.529   4.452  14.404 -0.9626  0.4361  2.1502
 4502TIP3   OH234920   1.163   0.292  15.355 -0.1814 -0.3948  0.9730
 4502TIP3    H134921   1.078   0.249  15.350  0.0646 -0.7335 -0.8099
 4502TIP3    H234922   1.181   0.320  15.266 -0.2372  3.3279  1.9494
 4503TIP3   OH234923   4.397   5.048   1.261 -0.2235  0.2178 -0.3337
 4503TIP3    H134924   4.475   5.034   1.315 -1.5688 -0.2489  1.5863
 4503TIP3    H234925   4.359   5.129   1.294 -0.5274  0.4749 -1.2932
 4504TIP3   OH234926   5.185   0.995  17.271 -0.1834  0.0041 -0.0809
 4504TIP3    H134927   5.194   1.070  17.329  0.2957  1.3827 -1.8315
 4504TIP3    H234928   5.106   1.014  17.220 -0.8180 -1.3550  0.3650
 4505TIP3   OH234929   5.738   0.003   2.330 -0.4510 -0.1951 -0.0481
 4505TIP3    H134930   5.833   0.004   2.342 -0.7177 -0.9219  2.9066
 4505TIP3    H234931   5.719  -0.083   2.292  0.0917  0.3340 -1.6093
 4506TIP3   OH234932   4.649   0.144  12.681 -0.2412  0.3073  0.0660
 4506TIP3    H134933   4.612   0.231  12.668 -0.8717 -0.0428 -0.5503
 4506TIP3    H234934   4.718   0.137  12.615 -1.8101 -0.5480 -1.5740
 4507TIP3   OH234935   5.713   6.125  11.240 -0.1904  0.6508  0.4921
 4507TIP3    H134936   5.713   6.060  11.170 -1.2027  2.0834 -0.9361
 4507TIP3    H234937   5.650   6.091  11.304 -2.1199  0.9882 -1.0939
 4508TIP3   OH234938   2.823   4.537  17.081 -0.1614 -0.1993 -0.0287
 4508TIP3    H134939   2.859   4.453  17.109 -1.1990 -0.5707  0.2199
 4508TIP3    H234940   2.784   4.574  17.160  1.4834  1.1868  0.2129
 4509TIP3   OH234941   1.348   5.018  14.139  0.1294  0.6339  0.4670
 4509TIP3    H134942   1.255   4.997  14.128 -0.0135  0.8330  1.2606
 4509TIP3    H234943   1.377   5.043  14.052 -0.1956 -0.8823 -0.1166
 4510TIP3   OH234944   2.015   2.357  14.229  0.2673 -0.4104 -0.0254
 4510TIP3    H134945   2.052   2.292  14.170  0.2754 -0.8047  0.4041
 4510TIP3    H234946   1.926   2.372  14.196  0.1513 -0.8863  0.0606
 4511TIP3   OH234947   1.842   2.773  14.147  0.4588  0.5075  0.2212
 4511TIP3    H134948   1.881   2.750  14.232  0.9375 -3.7421 -0.9336
 4511TIP3    H234949   1.753   2.801  14.170  0.7102 -0.0878  2.1943
 4512TIP3   OH234950   5.847   4.007  12.350  0.3166 -0.0161 -0.4442
 4512TIP3    H134951   5.823   4.029  12.440 -1.2651 -1.7978 -0.3577
 4512TIP3    H234952   5.930   3.960  12.358  0.0705 -0.3662  0.1444
 4513TIP3   OH234953   2.679   2.517   0.410  0.2502  0.4994 -0.3832
 4513TIP3    H134954   2.587   2.517   0.434  0.2361 -1.1675 -0.2886
 4513TIP3    H234955   2.710   2.605   0.432 -1.1088  0.8201  0.3671
 4514TIP3   OH234956   3.784   3.262  15.102 -0.1464  0.4299 -0.7895
 4514TIP3    H134957   3.764   3.303  15.187 -1.7173  0.5712 -1.1880
 4514TIP3    H234958   3.868   3.219  15.116  1.3436  3.2691 -0.1740
 4515TIP3   OH234959   4.214   2.009  11.516  0.1780 -0.1614  0.3475
 4515TIP3    H134960   4.183   2.034  11.604  0.7267 -0.4952  0.6396
 4515TIP3    H234961   4.288   2.068  11.499  1.2144 -1.2741  0.8661
 4516TIP3   OH234962   4.454   4.462   5.981 -0.4125 -0.0882 -0.0466
 4516TIP3    H134963   4.498   4.480   6.064 -0.6486 -0.7183  0.2267
 4516TIP3    H234964   4.391   4.533   5.971 -0.2404  0.1035  0.2127
 4517TIP3   OH234965   3.481   6.365   0.139 -0.5019  0.0288  0.7237
 4517TIP3    H134966   3.433   6.448   0.147  0.7388  1.0206 -1.2262
 4517TIP3    H234967   3.457   6.332   0.052  0.9980 -0.2952  0.4105
 4518TIP3   OH234968   3.879   6.446   3.115  0.0860 -0.0014 -0.1388
 4518TIP3    H134969   3.947   6.504   3.082 -1.6389  1.3732 -1.5390
 4518TIP3    H234970   3.871   6.378   3.048 -0.2073  0.1066 -0.2164
 4519TIP3   OH234971   1.598   4.256  15.931  0.4483  0.2218  0.5417
 4519TIP3    H134972   1.668   4.262  15.866  1.6199 -1.1733  1.6051
 4519TIP3    H234973   1.603   4.165  15.963 -1.0820  0.4367  1.4844
 4520TIP3   OH234974   4.523   6.310   5.869  0.6384  0.3946 -0.0130
 4520TIP3    H134975   4.554   6.379   5.927  0.4871  0.5678 -0.1356
 4520TIP3    H234976   4.602   6.267   5.838  0.7201  0.3332  0.2845
 4521TIP3   OH234977   6.572   6.644  17.195  0.1587 -0.1940 -0.4789
 4521TIP3    H134978   6.648   6.700  17.209  0.3477  0.1740 -2.5808
 4521TIP3    H234979   6.609   6.562  17.162 -0.2856 -0.5481 -0.1113
 4522TIP3   OH234980   1.403   1.680   2.900 -0.2854  0.3582  0.2491
 4522TIP3    H134981   1.376   1.620   2.831 -3.1655 -0.0241  1.5872
 4522TIP3    H234982   1.375   1.638   2.981  1.8150  1.4027  1.6008
 4523TIP3   OH234983   4.008   5.349   4.485 -0.2072 -0.5614 -0.7032
 4523TIP3    H134984   4.091   5.366   4.441  0.9322 -0.1847  1.4645
 4523TIP3    H234985   3.954   5.426   4.467  1.2173  0.8305  0.6570
 4524TIP3   OH234986   0.671   4.209  17.325  0.6438  0.0665 -0.7202
 4524TIP3    H134987   0.723   4.163  17.390 -0.0564 -1.4853 -1.1967
 4524TIP3    H234988   0.591   4.234  17.371  1.6012  2.1211 -0.0869
 4525TIP3   OH234989   2.002   0.908   1.846 -0.1248 -0.3806  0.6717
 4525TIP3    H134990   2.048   0.824   1.840  0.9909  0.3315 -2.4105
 4525TIP3    H234991   2.069   0.970   1.875  0.2147  0.1484 -1.1273
 4526TIP3   OH234992   4.532   0.046   5.493  0.6621  0.0995 -0.2420
 4526TIP3    H134993   4.623   0.034   5.465 -0.2820 -0.9714 -3.2615
 4526TIP3    H234994   4.483   0.054   5.411 -1.8486  1.9089  1.3056
 4527TIP3   OH234995   4.740   1.616   3.845 -0.2701 -0.0638 -0.6323
 4527TIP3    H134996   4.781   1.556   3.783  1.0209 -0.0707  0.2038
 4527TIP3    H234997   4.689   1.676   3.789 -0.2354 -0.8990 -1.5899
 4528TIP3   OH234998   1.234   1.859   1.232  0.3028 -0.6046  0.3198
 4528TIP3    H134999   1.306   1.857   1.169  0.6503 -1.9401  0.7435
 4528TIP3    H235000   1.157   1.878   1.179  0.7716 -0.4689 -0.3274
 4529TIP3   OH235001   5.989   3.036   4.103  0.1276 -0.6780  0.2711
 4529TIP3    H135002   6.084   3.032   4.088  0.4578  0.4624  1.8338
 4529TIP3    H235003   5.977   3.112   4.159 -1.5528 -1.7844  1.4994
 4530TIP3   OH235004   5.334   0.174  16.771 -0.0559 -0.1041 -0.3197
 4530TIP3    H135005   5.289   0.141  16.693 -0.8392 -0.0776  0.1095
 4530TIP3    H235006   5.404   0.110  16.788  0.5088  0.2165 -1.3877
 4531TIP3   OH235007   1.336   0.170   5.633 -0.0627  0.0840 -0.1676
 4531TIP3    H135008   1.296   0.115   5.565 -1.3567  0.9934 -0.1935
 4531TIP3    H235009   1.396   0.112   5.679 -0.1428 -0.8992 -1.2533
 4532TIP3   OH235010   4.299   6.483  17.075  0.6065 -0.4036 -0.1662
 4532TIP3    H135011   4.313   6.572  17.109 -0.1147 -0.3530  0.0115
 4532TIP3    H235012   4.382   6.438  17.091  0.6062 -0.0915  0.7817
 4533TIP3   OH235013   0.653   1.403  13.896 -0.0145 -0.6868 -0.2248
 4533TIP3    H135014   0.663   1.308  13.890  0.3633 -0.6737  0.1319
 4533TIP3    H235015   0.672   1.434  13.808  1.0099 -0.8561 -0.0779
 4534TIP3   OH235016   3.465   5.839  10.977  0.4292 -0.3022  0.0323
 4534TIP3    H135017   3.431   5.838  11.067 -1.5393  0.8347 -0.6171
 4534TIP3    H235018   3.393   5.876  10.926  2.0074  0.3707 -1.8077
 4535TIP3   OH235019   5.672   2.446  15.899  0.0510 -0.7563 -0.4464
 4535TIP3    H135020   5.650   2.523  15.951  0.3298  0.3908 -1.9586
 4535TIP3    H235021   5.610   2.446  15.827  1.4643 -0.6061 -1.7307
 4536TIP3   OH235022   6.201   5.681  15.625 -0.4050  0.2025 -0.1196
 4536TIP3    H135023   6.210   5.744  15.696 -0.2417  2.2933 -1.8831
 4536TIP3    H235024   6.124   5.710  15.577 -0.7971 -1.4488 -0.5601
 4537TIP3   OH235025   3.029   4.526  12.862  0.3416  0.0063  0.3802
 4537TIP3    H135026   3.065   4.521  12.774  0.9149  0.9383  0.5570
 4537TIP3    H235027   3.103   4.508  12.920  0.3027  0.9037  0.7158
 4538TIP3   OH235028   4.050   4.560  15.200  0.5081  0.3144 -0.4942
 4538TIP3    H135029   4.141   4.587  15.193  0.5882 -0.3167 -2.3027
 4538TIP3    H235030   4.005   4.637  15.235  2.0442 -0.1457  2.8695
 4539TIP3   OH235031   4.724   1.553  11.384  0.0803  0.2147  0.4065
 4539TIP3    H135032   4.796   1.582  11.441 -0.0143  0.6916  0.2876
 4539TIP3    H235033   4.738   1.602  11.303  0.9272 -1.3437 -0.4410
 4540TIP3   OH235034   0.636   4.699   5.171  0.3854 -0.4406 -0.6437
 4540TIP3    H135035   0.662   4.608   5.162 -0.4253 -0.9268  1.3652
 4540TIP3    H235036   0.653   4.720   5.262  1.6196  1.8009 -1.3122
 4541TIP3   OH235037   3.878   0.827   5.079 -0.3422 -0.3906  0.1201
 4541TIP3    H135038   3.800   0.845   5.132  0.0109 -0.3616  0.6310
 4541TIP3    H235039   3.921   0.754   5.123  0.7921  0.6497  0.7795
 4542TIP3   OH235040   1.027   3.002  13.554 -0.0316  0.0634 -0.3091
 4542TIP3    H135041   1.033   2.945  13.477  0.9679  1.0285 -0.9809
 4542TIP3    H235042   1.116   3.002  13.590 -0.5124 -0.4869  0.9570
 4543TIP3   OH235043   2.946   6.246  17.143  0.2895  0.4519  0.4242
 4543TIP3    H135044   2.975   6.275  17.230  0.8735  0.7695  0.1324
 4543TIP3    H235045   2.870   6.300  17.124  0.7069  1.0312  0.3579
 4544TIP3   OH235046   3.277   3.841  15.590  0.0695 -0.2401 -0.3675
 4544TIP3    H135047   3.320   3.914  15.545  0.6297 -0.7833 -0.7295
 4544TIP3    H235048   3.244   3.879  15.672 -2.1101  1.0989 -1.7472
 4545TIP3   OH235049   4.679   1.729   1.515  0.2416  0.3931 -0.0177
 4545TIP3    H135050   4.754   1.745   1.457  0.0511  0.0103 -0.3809
 4545TIP3    H235051   4.604   1.726   1.456 -0.0359  0.5767  0.3222
 4546TIP3   OH235052   5.858   4.592  13.198  0.1159  0.3520  0.2004
 4546TIP3    H135053   5.812   4.616  13.118 -1.1983  0.8606  1.0866
 4546TIP3    H235054   5.940   4.553  13.167  0.9987  3.1870 -1.3611
 4547TIP3   OH235055   6.249   1.243  17.327  0.3463  0.3699  0.1793
 4547TIP3    H135056   6.276   1.326  17.288 -0.8735  1.2643  1.1779
 4547TIP3    H235057   6.184   1.207  17.266  0.4807  0.4007  0.0152
 4548TIP3   OH235058   2.562   6.383   3.637  0.6368 -0.2496 -0.0649
 4548TIP3    H135059   2.475   6.359   3.669  1.8250 -2.5696  1.7569
 4548TIP3    H235060   2.612   6.403   3.716  1.6980  1.3961 -1.0973
 4549TIP3   OH235061   2.922   4.669   3.890  0.4848 -0.6849 -0.2100
 4549TIP3    H135062   2.969   4.699   3.813  2.5239 -0.7000  0.9486
 4549TIP3    H235063   2.906   4.576   3.874  1.5189 -0.8498 -0.3375
 4550TIP3   OH235064   2.467   0.362  14.339  0.0083 -0.3971  0.4215
 4550TIP3    H135065   2.472   0.390  14.247 -0.2972 -1.6857 -0.0141
 4550TIP3    H235066   2.375   0.372  14.362 -0.2243 -1.5225  0.0728
 4551TIP3   OH235067   2.545   2.758  16.636 -0.1776  0.4811 -0.3600
 4551TIP3    H135068   2.585   2.671  16.640 -0.6794  0.2499 -0.2638
 4551TIP3    H235069   2.497   2.759  16.554 -0.9449  0.3194  0.0791
 4552TIP3   OH235070   4.787   1.995  11.932 -0.2355 -0.0214 -0.7075
 4552TIP3    H135071   4.707   2.046  11.921 -0.4331 -0.2039 -0.1915
 4552TIP3    H235072   4.848   2.029  11.866  0.4279  2.4362  1.0099
 4553TIP3   OH235073   4.240   4.407  13.585 -0.3932 -0.1697 -0.0604
 4553TIP3    H135074   4.270   4.400  13.494 -2.0187 -0.9694 -0.5851
 4553TIP3    H235075   4.310   4.453  13.631  0.0342  1.1469 -1.9252
 4554TIP3   OH235076   6.039   0.383  13.653  0.3775  0.4692  0.1482
 4554TIP3    H135077   6.059   0.406  13.744 -0.1485 -0.1245  0.4174
 4554TIP3    H235078   6.088   0.302  13.638  0.8410  0.8184 -0.2534
 4555TIP3   OH235079   4.248   1.253  11.859 -0.1184 -0.0465  0.5324
 4555TIP3    H135080   4.274   1.253  11.767 -2.1316 -0.3707 -0.0891
 4555TIP3    H235081   4.213   1.341  11.875  1.9394  0.6400  1.5662
 4556TIP3   OH235082   4.738   0.439  14.908 -0.6365 -0.1875 -0.0009
 4556TIP3    H135083   4.787   0.356  14.900 -1.1927 -0.4751 -0.5074
 4556TIP3    H235084   4.804   0.502  14.936 -0.2367 -0.8371  0.5706
 4557TIP3   OH235085   3.957   4.515  17.229  0.5576 -0.0427 -0.1412
 4557TIP3    H135086   3.958   4.600  17.185 -0.4532  0.7312  1.2671
 4557TIP3    H235087   4.041   4.475  17.206  0.0182  0.2156 -2.9092
 4558TIP3   OH235088   6.676   5.355  11.577 -0.2427 -0.2684 -0.1332
 4558TIP3    H135089   6.736   5.301  11.630  0.7728 -0.0115 -0.9972
 4558TIP3    H235090   6.591   5.344  11.619  0.3952 -0.6909  1.0920
 4559TIP3   OH235091   0.667   2.650  14.988 -0.4331 -0.3475 -0.2752
 4559TIP3    H135092   0.743   2.651  15.047 -1.4392 -2.1260  1.1687
 4559TIP3    H235093   0.658   2.740  14.959 -0.2875  0.8245  2.8956
 4560TIP3   OH235094   3.057   4.380  13.626 -0.5006 -0.5949 -0.3847
 4560TIP3    H135095   3.092   4.468  13.632  0.2027 -0.9084  0.2578
 4560TIP3    H235096   2.979   4.389  13.570 -0.3300  0.3857 -0.4840
 4561TIP3   OH235097   1.845   5.895   5.128  0.5769  0.4246  0.1697
 4561TIP3    H135098   1.911   5.935   5.072  0.7379 -0.4861 -0.3034
 4561TIP3    H235099   1.806   5.969   5.176  0.7520  1.1560 -0.7925
 4562TIP3   OH235100   0.227   2.238   1.580  0.2274 -0.1582  0.5380
 4562TIP3    H135101   0.318   2.258   1.557 -0.1976  0.6983 -0.5119
 4562TIP3    H235102   0.201   2.312   1.635  0.3841 -0.7898  1.4806
 4563TIP3   OH235103   4.798   0.130  15.597 -0.1547  0.3663  0.0957
 4563TIP3    H135104   4.752   0.051  15.625 -0.0504  0.5763  0.8753
 4563TIP3    H235105   4.761   0.149  15.511 -1.5554  0.5340  0.6981
 4564TIP3   OH235106   3.082   3.518  14.345  0.1404  0.0984  0.4544
 4564TIP3    H135107   3.133   3.599  14.346 -0.4995  0.5176  0.0838
 4564TIP3    H235108   3.122   3.465  14.276  0.1638  0.3653  0.2619
 4565TIP3   OH235109   0.251   4.070   2.278 -0.2026 -0.4148 -0.5074
 4565TIP3    H135110   0.282   3.993   2.229  1.2555  0.4132 -0.9614
 4565TIP3    H235111   0.166   4.044   2.314 -0.2321 -1.8556 -1.5500
 4566TIP3   OH235112   6.628   4.039   0.990  0.3769 -0.4183 -0.2096
 4566TIP3    H135113   6.589   3.960   0.952 -0.3856 -0.1244 -0.0683
 4566TIP3    H235114   6.580   4.111   0.948  0.5622 -0.0554  0.2012
 4567TIP3   OH235115   5.562   0.485   2.282  0.0281 -0.0059 -0.5585
 4567TIP3    H135116   5.471   0.467   2.262 -1.0091  1.1512  2.5781
 4567TIP3    H235117   5.593   0.408   2.328 -0.2465  0.6810  0.8117
 4568TIP3   OH235118   5.942   6.209   2.730 -0.1957 -0.1476  0.6220
 4568TIP3    H135119   6.014   6.148   2.715 -0.4786 -0.5720  0.9594
 4568TIP3    H235120   5.870   6.154   2.760 -1.6063 -0.1403 -2.3922
 4569TIP3   OH235121   5.195   1.537   1.467  0.1377  0.7101  0.1931
 4569TIP3    H135122   5.181   1.529   1.562  1.7935 -0.0122  0.4005
 4569TIP3    H235123   5.221   1.449   1.439 -1.2984  0.6613 -1.1416
 4570TIP3   OH235124   1.914   4.719  15.505  0.1765 -0.0044  0.3836
 4570TIP3    H135125   1.967   4.772  15.564  0.4402  1.2066 -0.9035
 4570TIP3    H235126   1.826   4.755  15.513  0.0775 -0.2788  0.5384
 4571TIP3   OH235127   2.611   2.522  17.183 -0.1401 -0.0951 -0.3657
 4571TIP3    H135128   2.649   2.527  17.271  0.8014  0.7334 -0.7980
 4571TIP3    H235129   2.591   2.613  17.160  0.6158 -0.1646 -1.4042
 4572TIP3   OH235130   3.814   1.168   1.848 -0.1493 -0.6331 -1.2233
 4572TIP3    H135131   3.721   1.170   1.867 -0.7555  0.9055 -3.7489
 4572TIP3    H235132   3.823   1.108   1.774  1.0542 -1.5971 -0.3402
 4573TIP3   OH235133   4.884   2.512  15.862  0.2164 -0.1705  0.2854
 4573TIP3    H135134   4.938   2.487  15.937 -0.0782 -2.0224 -0.0657
 4573TIP3    H235135   4.896   2.440  15.799 -3.0698 -1.0064  0.4270
 4574TIP3   OH235136   5.078   0.911   1.154  0.3437 -0.4281 -0.3480
 4574TIP3    H135137   5.140   0.838   1.148 -0.9393 -1.5058 -1.0713
 4574TIP3    H235138   5.047   0.909   1.244  1.1245 -0.0851 -0.0704
 4575TIP3   OH235139   4.017   6.438  12.694  0.0650 -0.1638 -0.3018
 4575TIP3    H135140   3.978   6.457  12.608 -1.7085 -0.5730  0.3830
 4575TIP3    H235141   3.962   6.369  12.731 -0.0545  0.9381  1.7235
 4576TIP3   OH235142   1.756   6.165  14.652  0.1064 -0.0520 -0.3212
 4576TIP3    H135143   1.824   6.186  14.717 -1.6350 -3.1486  2.8130
 4576TIP3    H235144   1.805   6.143  14.573  2.4285  2.4492  0.2422
 4577TIP3   OH235145   6.393   0.451   2.452  0.8965  0.3474  0.5017
 4577TIP3    H135146   6.423   0.529   2.405  0.7406  0.9213  1.3237
 4577TIP3    H235147   6.394   0.477   2.544  2.0501 -1.0098  0.9233
 4578TIP3   OH235148   4.152   0.606   3.966  0.2251  0.2031 -0.0739
 4578TIP3    H135149   4.077   0.565   3.922 -0.8767  1.7314  0.2860
 4578TIP3    H235150   4.214   0.535   3.980 -0.9436 -1.0087 -0.8563
 4579TIP3   OH235151   1.029   4.247  15.970  0.1850 -0.6192 -0.6711
 4579TIP3    H135152   1.070   4.181  16.025  0.2936 -0.9134 -1.0959
 4579TIP3    H235153   1.019   4.204  15.885  0.9738  0.1615 -1.1790
 4580TIP3   OH235154   1.981   5.385   5.522  0.2784 -0.0918 -0.7984
 4580TIP3    H135155   1.906   5.327   5.504  1.2075 -1.2356 -1.0953
 4580TIP3    H235156   2.053   5.346   5.473  0.7076  1.9458 -1.8845
 4581TIP3   OH235157   3.075   5.281  11.408  0.5743  0.2031 -0.3427
 4581TIP3    H135158   2.999   5.223  11.419  1.5210 -1.5316 -2.2490
 4581TIP3    H235159   3.048   5.344  11.341  0.2901  0.6091  0.1468
 4582TIP3   OH235160   4.003   0.096   2.225  0.4563  0.3058  0.1460
 4582TIP3    H135161   3.999   0.191   2.221 -2.2293  0.3286  1.2694
 4582TIP3    H235162   4.078   0.073   2.170  1.3965  3.0491  0.1236
 4583TIP3   OH235163   2.582   1.039   5.072  0.6644  0.0394  0.5772
 4583TIP3    H135164   2.677   1.026   5.070  0.7181  0.4589 -0.9301
 4583TIP3    H235165   2.568   1.120   5.024 -0.2360  1.7901  3.5440
 4584TIP3   OH235166   0.634   6.451   4.287  0.1915  0.2673 -0.2326
 4584TIP3    H135167   0.565   6.494   4.337  0.7546  0.9614 -0.0192
 4584TIP3    H235168   0.714   6.499   4.311  0.3257  1.4365 -2.7015
 4585TIP3   OH235169   6.760   2.244  16.612  0.2936  0.3645  0.0021
 4585TIP3    H135170   6.729   2.156  16.592 -0.0810  0.2330  1.0863
 4585TIP3    H235171   6.836   2.231  16.669 -1.0201  0.7206  1.9381
 4586TIP3   OH235172   0.241   2.919   3.623  0.5717 -0.1742  0.1144
 4586TIP3    H135173   0.185   2.845   3.600  0.3437 -0.0007  0.1092
 4586TIP3    H235174   0.180   2.990   3.641  0.5530 -0.9644  3.8837
 4587TIP3   OH235175   0.138   5.674   5.137 -0.2306  0.6703  0.2772
 4587TIP3    H135176   0.151   5.613   5.209  1.9466 -0.4539 -0.9489
 4587TIP3    H235177   0.218   5.726   5.135 -0.3460  0.8436 -1.1214
 4588TIP3   OH235178   5.174   0.726   3.199  0.5775 -0.0901  0.1265
 4588TIP3    H135179   5.124   0.721   3.280 -0.8975  0.9497 -0.6708
 4588TIP3    H235180   5.249   0.668   3.213  0.0771 -0.3422  2.0136
 4589TIP3   OH235181   2.882   2.137  15.435  0.0235  0.2195 -0.4373
 4589TIP3    H135182   2.828   2.076  15.385  0.5824  0.6745 -1.6341
 4589TIP3    H235183   2.957   2.155  15.378 -0.5617  2.7279 -0.5330
 4590TIP3   OH235184   5.057   5.433  14.868  0.1761 -0.2447 -0.2398
 4590TIP3    H135185   5.031   5.525  14.857 -1.1025 -0.7770 -2.3004
 4590TIP3    H235186   5.001   5.385  14.807  0.8847 -2.4056  0.7094
 4591TIP3   OH235187   0.136   4.063  15.037  0.4222  0.2864 -0.2114
 4591TIP3    H135188   0.055   4.069  15.089  1.6271 -2.2913  2.2397
 4591TIP3    H235189   0.153   4.153  15.010 -2.5272  1.1355  0.3247
 4592TIP3   OH235190   0.859   5.792  16.048  0.3504 -0.2008  0.1090
 4592TIP3    H135191   0.820   5.708  16.072  0.7471 -0.1230  1.0350
 4592TIP3    H235192   0.803   5.825  15.977 -0.7386 -0.5167  0.8062
 4593TIP3   OH235193   0.064   1.221  11.343 -0.0710  0.6914 -0.0866
 4593TIP3    H135194   0.019   1.232  11.427 -0.1960 -2.3569  0.3729
 4593TIP3    H235195   0.018   1.281  11.284 -1.8172  0.9301  1.4022
 4594TIP3   OH235196   6.646   5.355   4.347 -0.4241 -0.6012  0.2429
 4594TIP3    H135197   6.627   5.285   4.286 -1.5073 -0.0130 -0.1178
 4594TIP3    H235198   6.720   5.402   4.308 -1.6558  0.2959 -1.1026
 4595TIP3   OH235199   3.090   5.094   2.244  0.4926 -0.0783 -0.3204
 4595TIP3    H135200   3.088   5.159   2.314  2.0912 -0.6023  0.2574
 4595TIP3    H235201   3.041   5.134   2.173 -0.7464  0.6754  0.9121
 4596TIP3   OH235202   5.502   2.608   3.756  0.3400  0.2894  0.5374
 4596TIP3    H135203   5.499   2.635   3.847  1.1552 -0.0014  0.6591
 4596TIP3    H235204   5.593   2.582   3.741 -0.0516 -0.8592 -0.0040
 4597TIP3   OH235205   5.395   5.264   4.534  0.0183  0.0213 -0.0946
 4597TIP3    H135206   5.485   5.234   4.520  0.4619  0.9443  0.7034
 4597TIP3    H235207   5.401   5.325   4.607 -0.9841  1.4195 -1.1238
 4598TIP3   OH235208   3.710   1.164   1.349  0.0265  0.1312 -0.3607
 4598TIP3    H135209   3.711   1.141   1.442 -0.5993 -0.5076 -0.5043
 4598TIP3    H235210   3.789   1.217   1.337  0.2011  0.0854  0.4992
 4599TIP3   OH235211   4.187   0.173  16.581 -0.2912 -0.1308 -0.3547
 4599TIP3    H135212   4.256   0.234  16.551 -0.3814  0.5824  0.8269
 4599TIP3    H235213   4.186   0.105  16.514  1.6013 -0.1860 -0.4003
 4600TIP3   OH235214   6.754   1.784  14.617 -0.2858 -0.1247  0.6971
 4600TIP3    H135215   6.760   1.691  14.599 -0.4388  0.0040 -0.0435
 4600TIP3    H235216   6.674   1.794  14.668 -0.2592 -0.3939  0.7919
 4601TIP3   OH235217   0.709   4.502  14.347 -0.2754  0.0070  0.2274
 4601TIP3    H135218   0.694   4.595  14.329 -2.1999 -0.5037 -1.1618
 4601TIP3    H235219   0.744   4.467  14.266  0.1757 -0.5401  0.6519
 4602TIP3   OH235220   1.569   5.572  16.382 -0.7926 -0.6247  0.1954
 4602TIP3    H135221   1.546   5.626  16.457 -1.1444 -0.3292 -0.1188
 4602TIP3    H235222   1.651   5.530  16.406 -0.7662 -0.3241  0.6330
 4603TIP3   OH235223   4.772   5.064  12.906  0.5361  0.1770  0.3193
 4603TIP3    H135224   4.859   5.062  12.945  0.9082  2.7989 -0.2069
 4603TIP3    H235225   4.719   5.114  12.969 -0.0736  0.3089 -0.2883
 4604TIP3   OH235226   5.351   3.758   0.517 -0.8976 -0.2604 -0.9170
 4604TIP3    H135227   5.304   3.804   0.447 -1.2044 -0.6385 -0.9604
 4604TIP3    H235228   5.430   3.723   0.475 -0.5688  0.3693 -0.8453
 4605TIP3   OH235229   2.316   6.102   2.366  0.2942 -0.4314  0.3872
 4605TIP3    H135230   2.344   6.081   2.455  1.1923  1.2238  0.5362
 4605TIP3    H235231   2.241   6.161   2.377 -1.5020 -2.5155 -0.0129
 4606TIP3   OH235232   2.234   2.117  13.431 -0.0007  0.0225  0.0114
 4606TIP3    H135233   2.147   2.116  13.392 -0.6164 -0.2592  1.3065
 4606TIP3    H235234   2.265   2.027  13.424  0.0253  0.0411 -0.1126
 4607TIP3   OH235235   5.327   5.119   3.950 -0.4689  0.1710 -0.4561
 4607TIP3    H135236   5.243   5.091   3.987 -0.2436  0.2349  0.1048
 4607TIP3    H235237   5.390   5.055   3.982 -0.6163 -1.1434 -2.5966
 4608TIP3   OH235238   3.113   5.706   4.143  0.5073  0.2691  0.1048
 4608TIP3    H135239   3.171   5.775   4.174  0.3844 -0.8359  3.1575
 4608TIP3    H235240   3.027   5.728   4.180  0.3679 -1.2038  0.7440
 4609TIP3   OH235241   6.715   6.454   3.243 -0.1240  0.2691  0.1962
 4609TIP3    H135242   6.678   6.414   3.322 -0.1000  2.0698  1.1781
 4609TIP3    H235243   6.810   6.443   3.253 -0.1218  0.4768  0.4167
 4610TIP3   OH235244   2.731   2.748   1.281 -0.1280  0.0862 -0.3576
 4610TIP3    H135245   2.638   2.742   1.302 -0.1316 -0.3966 -0.4910
 4610TIP3    H235246   2.752   2.663   1.242  0.6293 -0.2500  0.7405
 4611TIP3   OH235247   1.614   3.217   1.613  0.1879  0.2998 -0.2799
 4611TIP3    H135248   1.555   3.276   1.661  0.0400  0.3453 -0.5132
 4611TIP3    H235249   1.685   3.199   1.675  0.1667  0.6162 -0.1577
 4612TIP3   OH235250   3.947   5.983  15.767  0.2317 -0.0246  0.1807
 4612TIP3    H135251   3.901   5.953  15.689  0.4937 -2.5077  0.8879
 4612TIP3    H235252   3.952   5.905  15.823  0.5727  1.5083  2.4255
 4613TIP3   OH235253   2.150   5.419  14.909 -0.0804  0.3748 -0.4291
 4613TIP3    H135254   2.077   5.431  14.848 -0.2792  1.2251 -0.0320
 4613TIP3    H235255   2.227   5.448  14.861  0.0408 -0.6958 -0.9140
 4614TIP3   OH235256   2.539   0.357   4.091 -0.7135 -0.0111 -0.6857
 4614TIP3    H135257   2.573   0.358   4.180 -1.7101 -0.1137 -0.2898
 4614TIP3    H235258   2.606   0.312   4.040 -0.4026 -0.4916  0.1345
 4615TIP3   OH235259   5.215   3.181  15.964  0.1146  0.0243  0.1594
 4615TIP3    H135260   5.220   3.273  15.939  0.3094  0.2442  0.9613
 4615TIP3    H235261   5.277   3.172  16.036  0.9762 -1.0120 -0.6714
 4616TIP3   OH235262   0.785   2.309  15.404  0.2113 -0.3278  0.2595
 4616TIP3    H135263   0.792   2.347  15.491  1.9602 -0.6896  0.3247
 4616TIP3    H235264   0.713   2.356  15.362 -0.5076 -0.0022  1.8073
 4617TIP3   OH235265   6.141   6.059   5.237  0.1099  0.2743 -0.9239
 4617TIP3    H135266   6.127   6.070   5.331  0.0602 -2.0675 -0.6055
 4617TIP3    H235267   6.236   6.062   5.227  0.1181  0.4517 -0.7969
 4618TIP3   OH235268   4.444   3.574   0.429 -0.3358  0.5108 -0.3253
 4618TIP3    H135269   4.438   3.538   0.518 -1.5224  0.5087 -0.4023
 4618TIP3    H235270   4.442   3.669   0.441 -0.8105  0.5051 -0.3784
 4619TIP3   OH235271   4.897   4.076  13.390  0.3797  0.1053 -0.2981
 4619TIP3    H135272   4.912   4.088  13.484 -0.8464 -2.6566  0.3208
 4619TIP3    H235273   4.978   4.035  13.358 -0.5083 -2.2702  0.3341
 4620TIP3   OH235274   4.179   4.817  12.327 -0.2853 -0.0705  0.0529
 4620TIP3    H135275   4.116   4.798  12.258 -0.1740  0.0789 -0.0910
 4620TIP3    H235276   4.264   4.818  12.283 -0.4480  2.8394 -0.3998
 4621TIP3   OH235277   6.101   0.782   5.418  0.0439 -0.0596 -0.2036
 4621TIP3    H135278   6.023   0.726   5.417 -1.0161  1.3024  0.4769
 4621TIP3    H235279   6.137   0.771   5.506  0.6738 -0.7478 -0.5451
 4622TIP3   OH235280   2.401   4.311   6.511  0.4587  0.4177 -0.1032
 4622TIP3    H135281   2.439   4.399   6.503 -1.2913  1.2501  0.1651
 4622TIP3    H235282   2.472   4.252   6.486  1.2730  1.9568 -1.6804
 4623TIP3   OH235283   5.288   0.424  11.527 -0.1935 -0.0684 -0.2656
 4623TIP3    H135284   5.359   0.477  11.492 -0.1565  0.5944  0.7706
 4623TIP3    H235285   5.209   0.458  11.483  0.0841 -0.6457 -1.2351
 4624TIP3   OH235286   5.059   6.769   2.632 -0.1742  0.1943 -0.2310
 4624TIP3    H135287   4.989   6.728   2.581 -0.1165 -2.0738  1.3781
 4624TIP3    H235288   5.042   6.863   2.623 -2.3149 -0.2295 -1.3922
 4625TIP3   OH235289   3.423   3.072  15.659 -0.4494 -0.0959  0.0733
 4625TIP3    H135290   3.359   3.140  15.641  1.3696  1.1784 -1.9980
 4625TIP3    H235291   3.431   3.023  15.577  0.9620 -0.4370  0.3855
 4626TIP3   OH235292   4.660   2.613   1.928 -0.0591 -0.1264  0.2046
 4626TIP3    H135293   4.714   2.652   1.860  1.1142 -2.3865 -0.2678
 4626TIP3    H235294   4.699   2.643   2.010  0.3603  0.2457 -0.1258
 4627TIP3   OH235295   0.541   1.691  11.376 -0.2015  0.0354 -0.0729
 4627TIP3    H135296   0.483   1.615  11.389  1.0975 -0.8089  1.0794
 4627TIP3    H235297   0.515   1.752  11.444 -3.5517  2.2665 -2.9759
 4628TIP3   OH235298   1.625   2.568   0.258  0.8611  0.1520  0.0463
 4628TIP3    H135299   1.701   2.594   0.205  0.4249  0.6134 -0.3613
 4628TIP3    H235300   1.617   2.474   0.243  0.1310  0.4309 -1.5346
 4629TIP3   OH235301   0.187   2.243   4.921  0.3769  0.0254 -0.1439
 4629TIP3    H135302   0.098   2.277   4.908 -1.5075 -3.1038  3.0104
 4629TIP3    H235303   0.244   2.316   4.896 -3.1014  3.1584  0.1840
 4630TIP3   OH235304   1.874   1.483  12.750  0.2511 -0.0416 -0.2882
 4630TIP3    H135305   1.845   1.495  12.840  0.6785  0.1617 -0.1756
 4630TIP3    H235306   1.802   1.437  12.708 -0.3588  0.6946 -0.0834
 4631TIP3   OH235307   1.413   3.701  15.200 -0.1283 -0.0807 -0.2398
 4631TIP3    H135308   1.366   3.660  15.128  1.0762  0.3309 -1.2917
 4631TIP3    H235309   1.356   3.773  15.228 -1.2529 -1.1050  0.1948
 4632TIP3   OH235310   2.538   0.398   5.099 -0.2821 -0.5970 -0.3579
 4632TIP3    H135311   2.464   0.423   5.154 -0.9838 -0.3583 -1.3824
 4632TIP3    H235312   2.554   0.306   5.120 -0.2007 -0.3694  0.6084
 4633TIP3   OH235313   0.799   5.802   0.147  0.2942 -0.3605 -0.4349
 4633TIP3    H135314   0.733   5.796   0.216  1.1196  1.7671  0.6443
 4633TIP3    H235315   0.750   5.810   0.066 -0.7143 -1.6038  0.0255
 4634TIP3   OH235316   5.987   1.271  14.993 -0.3475  0.0086  0.1513
 4634TIP3    H135317   5.916   1.267  15.057 -0.2741 -0.6949  0.2006
 4634TIP3    H235318   6.061   1.308  15.040 -0.3619 -0.2936  0.4143
 4635TIP3   OH235319   4.211   1.121   6.707  0.1267 -0.0623  0.0245
 4635TIP3    H135320   4.191   1.199   6.656  0.3410 -1.7303 -2.8101
 4635TIP3    H235321   4.303   1.131   6.731  0.3560  0.2505 -0.9442
 4636TIP3   OH235322   4.443   4.006  15.073  0.0310  0.3573 -0.0417
 4636TIP3    H135323   4.359   4.051  15.079 -1.1432 -1.4996 -1.1858
 4636TIP3    H235324   4.429   3.922  15.118  1.5401  0.3369  0.4549
 4637TIP3   OH235325   2.382   6.654  12.282 -0.4699  0.4518 -0.2897
 4637TIP3    H135326   2.300   6.703  12.273  0.4731  2.3133  0.6698
 4637TIP3    H235327   2.420   6.655  12.194 -2.3998 -2.2894 -1.2617
 4638TIP3   OH235328   3.710   2.994  12.631  0.6422  0.4974  0.1061
 4638TIP3    H135329   3.798   3.009  12.665  0.9131  0.0500 -0.3873
 4638TIP3    H235330   3.659   3.070  12.661  0.7147 -0.1421  2.0168
 4639TIP3   OH235331   2.851   5.809   4.280  0.1492  0.4454 -0.2096
 4639TIP3    H135332   2.811   5.723   4.294 -0.5779  0.7997 -0.0931
 4639TIP3    H235333   2.795   5.870   4.328 -0.2404  1.1881 -1.5574
 4640TIP3   OH235334   2.244   4.748   4.150  0.1518 -0.1737 -0.1010
 4640TIP3    H135335   2.188   4.709   4.218 -0.7664 -3.3450 -2.4107
 4640TIP3    H235336   2.183   4.792   4.091  0.6851  0.6180 -0.0775
 4641TIP3   OH235337   1.062   2.495  14.192 -0.2413 -0.0236  0.6504
 4641TIP3    H135338   1.013   2.568  14.154 -0.1370 -0.6615 -0.7961
 4641TIP3    H235339   1.151   2.506  14.157  0.6273  0.9615  3.0043
 4642TIP3   OH235340   1.499   0.357   4.361  0.2103 -0.1161  0.0222
 4642TIP3    H135341   1.553   0.282   4.386 -0.0760 -0.2203  0.3307
 4642TIP3    H235342   1.559   0.432   4.364  1.0307 -0.5946 -2.2459
 4643TIP3   OH235343   1.790   4.444  11.016 -0.2339  0.5514 -0.0299
 4643TIP3    H135344   1.777   4.505  10.943 -0.1160  1.0283  0.3405
 4643TIP3    H235345   1.706   4.444  11.062 -0.4634 -0.1202 -0.4379
 4644TIP3   OH235346   4.785   0.858  13.272  0.9738  0.4887 -0.1692
 4644TIP3    H135347   4.846   0.919  13.313  1.5281  2.2569 -3.3147
 4644TIP3    H235348   4.698   0.895  13.290  1.0396  0.0725  1.0962
 4645TIP3   OH235349   3.498   2.529  17.172  0.0982 -0.1389 -0.8402
 4645TIP3    H135350   3.585   2.569  17.174  0.0227  0.1900 -2.3912
 4645TIP3    H235351   3.514   2.435  17.174  0.3104 -0.1221  2.1389
 4646TIP3   OH235352   4.644   0.141   3.286  0.3222  0.0950  0.1137
 4646TIP3    H135353   4.583   0.092   3.230  1.0034  0.0231 -0.5924
 4646TIP3    H235354   4.731   0.112   3.258  0.6817 -0.5620  1.8035
 4647TIP3   OH235355   3.903   0.073  12.352 -0.1990  0.0892  0.0067
 4647TIP3    H135356   3.889   0.110  12.439 -1.9386  1.5794 -0.8384
 4647TIP3    H235357   3.878  -0.019  12.361  2.6442 -0.6497  1.7621
 4648TIP3   OH235358   4.158   6.148  15.264 -0.0229  0.0725 -0.3653
 4648TIP3    H135359   4.178   6.154  15.170 -1.0900 -1.0758 -0.7142
 4648TIP3    H235360   4.128   6.057  15.275  0.1155  0.1879  1.1005
 4649TIP3   OH235361   0.280   3.712   3.018  0.2951 -0.8328  0.2027
 4649TIP3    H135362   0.244   3.691   3.104 -1.2021  2.1368  0.4661
 4649TIP3    H235363   0.231   3.657   2.957 -1.7200  0.0210  0.9603
 4650TIP3   OH235364   1.180   3.869  17.135 -0.2440  0.5296 -0.3360
 4650TIP3    H135365   1.094   3.837  17.165 -0.4074  0.2960 -1.0326
 4650TIP3    H235366   1.184   3.959  17.165 -0.1344  0.1244  0.9358
 4651TIP3   OH235367   0.764   2.227  15.665 -0.3793  0.2272 -0.1534
 4651TIP3    H135368   0.787   2.135  15.681 -2.2478 -0.0789  1.2320
 4651TIP3    H235369   0.835   2.277  15.705 -0.7989 -0.6458  1.8064
 4652TIP3   OH235370   6.053   0.867  12.191  0.5436  0.5668 -0.1495
 4652TIP3    H135371   6.105   0.851  12.270  0.0067  1.0732  0.3143
 4652TIP3    H235372   5.962   0.858  12.219  0.3599 -1.2370 -1.1512
 4653TIP3   OH235373   6.676   0.184   5.763  0.2308  0.2516 -0.6379
 4653TIP3    H135374   6.767   0.208   5.779  0.0436  1.3073 -1.0988
 4653TIP3    H235375   6.672   0.091   5.787  1.3138  0.3007 -0.1797
 4654TIP3   OH235376   5.979   3.906   4.095 -0.5772  0.2366  0.0050
 4654TIP3    H135377   5.978   3.819   4.135  1.4636 -0.1311 -0.6587
 4654TIP3    H235378   6.064   3.942   4.117 -1.4812  2.2068  0.4738
 4655TIP3   OH235379   0.491   5.392  13.034  0.1098 -0.2898  0.0299
 4655TIP3    H135380   0.533   5.419  13.116 -0.2363 -2.1981  0.9000
 4655TIP3    H235381   0.559   5.348  12.985  0.3009  0.8059 -0.7175
 4656TIP3   OH235382   5.723   6.616  17.001 -0.3378  0.2511  0.0983
 4656TIP3    H135383   5.812   6.599  16.973 -0.7048 -1.2627 -0.2323
 4656TIP3    H235384   5.668   6.566  16.940 -1.3596  0.4254  0.8382
 4657TIP3   OH235385   6.103   3.879   4.460  0.3162  0.0863  0.2135
 4657TIP3    H135386   6.024   3.832   4.433 -0.5761  2.4590 -1.6361
 4657TIP3    H235387   6.084   3.908   4.550 -0.6910  0.1221  0.0080
 4658TIP3   OH235388   3.227   3.428  15.372  0.1604 -0.0239  0.7683
 4658TIP3    H135389   3.134   3.446  15.358 -0.1508 -1.3847  0.9715
 4658TIP3    H235390   3.265   3.434  15.284 -0.1547  0.3498  0.6552
 4659TIP3   OH235391   4.629   1.749  12.202 -0.1687 -0.4300 -0.3868
 4659TIP3    H135392   4.547   1.760  12.154 -0.6652 -0.0733  0.5069
 4659TIP3    H235393   4.694   1.730  12.135 -0.8578 -0.0575 -1.1806
 4660TIP3   OH235394   4.658   6.092   4.957  0.5950  0.6435 -0.0743
 4660TIP3    H135395   4.703   6.100   4.873  2.3315 -0.3142  0.7089
 4660TIP3    H235396   4.717   6.133   5.019  1.1031 -1.8473  1.2059
 4661TIP3   OH235397   5.527   0.972  15.598 -0.1336 -0.3012  0.4132
 4661TIP3    H135398   5.469   0.999  15.669  0.1660 -1.6930  1.2230
 4661TIP3    H235399   5.567   1.053  15.567 -0.0993  0.3072  1.9947
 4662TIP3   OH235400   0.752   2.776   6.051 -0.0737 -0.5987 -0.2195
 4662TIP3    H135401   0.724   2.826   6.127  2.7895 -1.2435  1.4111
 4662TIP3    H235402   0.781   2.692   6.087  0.0438 -1.4733 -2.2176
 4663TIP3   OH235403   4.577   4.794  13.297 -0.6167 -0.0334 -0.0962
 4663TIP3    H135404   4.501   4.768  13.245 -0.2952 -2.3121  0.4526
 4663TIP3    H235405   4.543   4.801  13.386 -0.0156 -2.3673  0.3824
 4664TIP3   OH235406   0.059   4.482  11.104 -0.7459 -0.4786 -0.1644
 4664TIP3    H135407   0.063   4.561  11.051  0.9527  0.1989  0.8981
 4664TIP3    H235408   0.102   4.415  11.052  1.0039  0.2071  0.3495
 4665TIP3   OH235409   2.275   5.211  14.388 -0.0675 -0.3359 -0.2070
 4665TIP3    H135410   2.363   5.172  14.384 -0.3911 -1.2807  1.0467
 4665TIP3    H235411   2.276   5.279  14.321  1.0956 -1.3866 -1.3174
 4666TIP3   OH235412   3.331   0.214   4.976 -0.2018 -0.1482 -0.3043
 4666TIP3    H135413   3.401   0.276   4.998 -0.8916  0.6934 -0.3964
 4666TIP3    H235414   3.373   0.128   4.979  0.5712  0.2423  0.7297
 4667TIP3   OH235415   2.395   2.494  13.227  0.8412 -0.0082 -0.3279
 4667TIP3    H135416   2.374   2.518  13.137  0.7310 -0.3546 -0.3974
 4667TIP3    H235417   2.355   2.408  13.238 -0.4051  0.6688  0.5286
 4668TIP3   OH235418   2.469   0.560  12.074  0.1056  0.3459  0.1525
 4668TIP3    H135419   2.485   0.655  12.079 -0.7208  0.4401  1.5981
 4668TIP3    H235420   2.446   0.535  12.164  0.3602 -1.2430 -0.1979
 4669TIP3   OH235421   4.866   0.652  16.375 -0.3733  0.6661  1.3130
 4669TIP3    H135422   4.786   0.661  16.428 -2.0646  0.8109 -1.0658
 4669TIP3    H235423   4.926   0.716  16.412 -1.6538  1.1402  2.7073
 4670TIP3   OH235424   3.794   6.468  11.580  0.3816 -0.6265  0.3305
 4670TIP3    H135425   3.767   6.514  11.500 -0.1894 -0.8232  0.4003
 4670TIP3    H235426   3.850   6.530  11.626 -1.4413  0.5714  1.0763
 4671TIP3   OH235427   1.365   3.465  17.262  0.0943  0.0283  0.5503
 4671TIP3    H135428   1.298   3.432  17.201  0.3770 -0.0656  0.2899
 4671TIP3    H235429   1.427   3.393  17.271  0.3773  0.2626  0.4751
 4672TIP3   OH235430   4.414   5.967  14.608  0.1954  0.1092 -0.3857
 4672TIP3    H135431   4.357   6.036  14.572 -1.4286 -1.0115 -0.0520
 4672TIP3    H235432   4.503   5.998  14.589 -0.5269  0.9883 -2.7159
 4673TIP3   OH235433   4.858   3.325  15.561  0.1281 -0.0777  0.3950
 4673TIP3    H135434   4.861   3.328  15.466 -0.8052  2.0341  0.3821
 4673TIP3    H235435   4.896   3.239  15.583  0.4929 -0.5623 -1.8332
 4674TIP3   OH235436   4.820   5.662  12.314 -0.4767  0.1859  0.6920
 4674TIP3    H135437   4.831   5.697  12.402 -0.1149  0.4676  0.5379
 4674TIP3    H235438   4.762   5.724  12.270  0.1423  0.5874  0.4282
 4675TIP3   OH235439   3.489   6.692  15.488 -1.1363 -0.3706  0.3718
 4675TIP3    H135440   3.428   6.731  15.550 -2.5808  0.0204 -1.2352
 4675TIP3    H235441   3.438   6.628  15.439  0.3110 -1.6871  0.4885
 4676TIP3   OH235442   0.464   5.252  12.205 -0.0846 -0.2591  0.1055
 4676TIP3    H135443   0.495   5.318  12.142  0.9542  0.7974  1.6618
 4676TIP3    H235444   0.541   5.231  12.258 -0.7011 -1.8692  0.4181
 4677TIP3   OH235445   6.047   3.537  12.833  0.1036  0.6020  0.1267
 4677TIP3    H135446   5.987   3.468  12.803  0.6491 -1.6889  3.6688
 4677TIP3    H235447   5.990   3.612  12.851 -0.9643  0.0950 -0.9554
 4678TIP3   OH235448   1.216   0.124   5.385 -0.1169  0.0702  0.0890
 4678TIP3    H135449   1.248   0.214   5.384  1.1591 -0.3738 -0.9716
 4678TIP3    H235450   1.183   0.109   5.296 -0.3772 -0.4880  0.2733
 4679TIP3   OH235451   1.977   3.652   6.675 -0.0610  0.0869 -0.3732
 4679TIP3    H135452   2.042   3.723   6.668 -1.0558  0.9127 -1.6722
 4679TIP3    H235453   2.026   3.573   6.649  1.5414 -0.0948  2.7736
 4680TIP3   OH235454   1.643   2.250  11.357 -0.4997 -0.4543  0.3013
 4680TIP3    H135455   1.708   2.210  11.415  1.0087  1.2642 -0.0840
 4680TIP3    H235456   1.646   2.197  11.278  0.8646 -0.1285  0.0968
 4681TIP3   OH235457   4.682   2.679  12.171 -0.0590 -0.3559 -0.0438
 4681TIP3    H135458   4.765   2.635  12.153 -0.1568 -0.8514  0.6813
 4681TIP3    H235459   4.644   2.696  12.085  0.6666 -0.3704 -0.3694
 4682TIP3   OH235460   2.391   2.832   0.918  0.0544 -0.1898  0.2751
 4682TIP3    H135461   2.365   2.741   0.932 -1.9533  0.2338 -0.3585
 4682TIP3    H235462   2.396   2.870   1.006 -1.6050 -0.3107  0.4527
 4683TIP3   OH235463   3.675   4.667  16.788  0.4105  0.0232 -0.3874
 4683TIP3    H135464   3.769   4.680  16.802  0.3220  0.6448 -0.3396
 4683TIP3    H235465   3.633   4.730  16.847 -0.1012 -1.8526  1.3599
 4684TIP3   OH235466   2.350   5.843   6.130  0.4137 -0.5998 -0.0686
 4684TIP3    H135467   2.290   5.836   6.204 -0.8411  0.4675 -0.9408
 4684TIP3    H235468   2.309   5.793   6.060  0.7109 -0.1773 -0.5628
 4685TIP3   OH235469   0.842   5.477  11.920  0.0866  0.0480  0.0912
 4685TIP3    H135470   0.803   5.563  11.935 -0.0719  0.0042 -0.0743
 4685TIP3    H235471   0.781   5.416  11.961  0.3155  0.0325  0.4097
 4686TIP3   OH235472   5.547   4.625  12.120  0.4342  0.6391 -0.0444
 4686TIP3    H135473   5.558   4.715  12.090 -0.9646  0.8298 -0.0415
 4686TIP3    H235474   5.500   4.582  12.049  1.3991 -0.2051 -0.2026
 4687TIP3   OH235475   0.480   5.133   4.944 -0.2882  0.1271  0.4070
 4687TIP3    H135476   0.492   5.038   4.947  0.2914  0.1626 -0.4795
 4687TIP3    H235477   0.565   5.168   4.916 -0.7065  0.8494 -0.0040
 4688TIP3   OH235478   5.090   4.279   5.079  0.0182 -0.0555  0.4711
 4688TIP3    H135479   5.146   4.255   5.005 -1.4647 -0.2432 -0.6413
 4688TIP3    H235480   5.140   4.255   5.157  0.7109 -1.9849 -0.5124
 4689TIP3   OH235481   2.794   1.630   3.617 -0.2863  0.5156 -0.0267
 4689TIP3    H135482   2.805   1.725   3.615 -1.1121  0.6196 -0.1954
 4689TIP3    H235483   2.758   1.612   3.704  2.5201  0.0062  1.1422
 4690TIP3   OH235484   5.134   6.217   2.942 -0.5186 -0.1720 -0.8460
 4690TIP3    H135485   5.200   6.171   2.889  0.3222 -0.2369  0.2127
 4690TIP3    H235486   5.075   6.257   2.878  0.5442 -0.1201 -1.8283
 4691TIP3   OH235487   5.976   2.344  16.900 -0.1908 -0.5594 -0.2508
 4691TIP3    H135488   5.917   2.328  16.974 -1.2939  2.1455 -0.4238
 4691TIP3    H235489   5.917   2.362  16.827  0.7831  1.8593 -0.5250
 4692TIP3   OH235490   4.723   1.330   4.311  0.0380 -0.0640  0.2301
 4692TIP3    H135491   4.667   1.252   4.316  0.9291 -0.9781 -2.2350
 4692TIP3    H235492   4.699   1.372   4.228  1.7801  0.4536 -0.0644
 4693TIP3   OH235493   2.355   3.778   0.486  0.3512 -0.0413 -0.2578
 4693TIP3    H135494   2.358   3.686   0.512 -1.3607 -0.0341  0.0389
 4693TIP3    H235495   2.405   3.824   0.553 -0.9249 -0.4704  1.0362
 4694TIP3   OH235496   0.669   2.788   1.208 -0.0788 -0.4894  0.0873
 4694TIP3    H135497   0.657   2.770   1.301 -0.8815 -0.6801 -0.0416
 4694TIP3    H235498   0.692   2.703   1.169  0.6027 -0.3417  0.1617
 4695TIP3   OH235499   5.520   0.130  15.952  0.0542  0.2787  0.2584
 4695TIP3    H135500   5.511   0.037  15.969 -0.6477  0.3514  0.3293
 4695TIP3    H235501   5.549   0.167  16.036 -2.1399  0.4553  1.0109
 4696TIP3   OH235502   1.035   3.292  13.930  0.2882  0.1086  0.0742
 4696TIP3    H135503   1.032   3.199  13.954  0.2755  0.3420  1.0221
 4696TIP3    H235504   0.969   3.301  13.862 -0.1058 -0.4765  0.3704
 4697TIP3   OH235505   4.031   1.287  14.828  0.0179 -0.3925 -0.6103
 4697TIP3    H135506   4.064   1.198  14.825  0.2714 -0.3450  0.4243
 4697TIP3    H235507   4.108   1.342  14.818  0.1799 -0.2900  0.9538
 4698TIP3   OH235508   2.359   6.040   4.601  0.9653 -0.6257 -1.0892
 4698TIP3    H135509   2.331   6.069   4.514  1.2902  0.4530 -0.8506
 4698TIP3    H235510   2.315   6.100   4.661  1.8171 -0.5033 -0.5814
 4699TIP3   OH235511   3.910   4.014   3.733  0.1058  0.2375 -0.0025
 4699TIP3    H135512   3.844   3.961   3.778  0.3488 -1.3954 -1.4536
 4699TIP3    H235513   3.906   4.099   3.777 -2.1619 -0.1447  0.6978
 4700TIP3   OH235514   6.150   6.011   0.239 -0.3571  0.5526  0.0504
 4700TIP3    H135515   6.124   6.037   0.328 -0.6701 -1.5148  0.6127
 4700TIP3    H235516   6.076   5.959   0.207  0.2908  0.2215 -0.9458
 4701TIP3   OH235517   4.000   2.837   1.863 -0.5495 -0.2911  0.6914
 4701TIP3    H135518   4.023   2.929   1.876  1.4277 -0.6334  0.0420
 4701TIP3    H235519   3.961   2.834   1.776 -1.2510  0.0245  0.9903
 4702TIP3   OH235520   3.657   4.463   6.037  0.7169 -0.2941  0.0675
 4702TIP3    H135521   3.688   4.396   5.976  2.3908  1.0448 -0.6125
 4702TIP3    H235522   3.569   4.433   6.061  0.0577 -1.0153 -2.7953
 4703TIP3   OH235523   2.900   2.296   4.348 -0.1751  0.0955 -0.0889
 4703TIP3    H135524   2.887   2.354   4.273  2.5560  1.6931  0.5256
 4703TIP3    H235525   2.879   2.350   4.424  0.7652 -0.2193  0.4180
 4704TIP3   OH235526   5.637   4.773  15.452 -0.2018  0.2954  0.0670
 4704TIP3    H135527   5.623   4.829  15.376  0.5990  2.5676  1.5127
 4704TIP3    H235528   5.727   4.789  15.478 -0.5680 -0.1394  1.7155
 4705TIP3   OH235529   4.095   2.707   5.298  0.4617  0.0643 -0.3973
 4705TIP3    H135530   4.092   2.751   5.383 -1.6973  2.0700 -1.4320
 4705TIP3    H235531   4.110   2.615   5.321 -1.0870  0.3582  2.2447
 4706TIP3   OH235532   2.619   0.901   1.481 -0.2930  0.0343  0.1788
 4706TIP3    H135533   2.714   0.904   1.475 -0.3391 -0.2530 -0.8006
 4706TIP3    H235534   2.589   0.939   1.398 -1.0436  1.0596  0.8853
 4707TIP3   OH235535   5.306   0.407   0.308  0.3413  0.5132  0.2539
 4707TIP3    H135536   5.261   0.487   0.282  1.5415  0.3193 -2.8757
 4707TIP3    H235537   5.399   0.430   0.307  0.6088 -0.3166  1.8695
 4708TIP3   OH235538   2.594   4.353   2.190  0.4716 -0.5362 -0.3231
 4708TIP3    H135539   2.633   4.437   2.167  1.0284 -0.7000 -0.0134
 4708TIP3    H235540   2.626   4.336   2.279 -0.4614 -0.5911  0.0103
 4709TIP3   OH235541   5.032   3.420  13.653  0.5787 -0.2678  0.0834
 4709TIP3    H135542   5.127   3.422  13.655  0.6020  0.3585 -1.0447
 4709TIP3    H235543   5.006   3.469  13.731  1.1769  0.0150  0.1102
 4710TIP3   OH235544   3.759   1.854   0.076  0.1203 -0.3653 -0.0121
 4710TIP3    H135545   3.768   1.781   0.015  1.2313  0.6990 -1.1810
 4710TIP3    H235546   3.780   1.932   0.024 -0.3068  0.7240  1.3739
 4711TIP3   OH235547   6.584   5.868  12.574  0.2786  0.0439  0.5241
 4711TIP3    H135548   6.635   5.788  12.589  0.1525 -0.0258  0.5803
 4711TIP3    H235549   6.649   5.932  12.545  0.1211 -0.6090 -1.4394
 4712TIP3   OH235550   4.177   3.942  12.454  0.1205  0.0434  0.2021
 4712TIP3    H135551   4.186   3.875  12.521  0.1564  0.3747  0.5312
 4712TIP3    H235552   4.090   3.979  12.469  0.3649  0.5200  0.4390
 4713TIP3   OH235553   1.295   0.621   2.376 -0.5355 -0.0270 -0.2183
 4713TIP3    H135554   1.246   0.585   2.302 -1.2645 -2.2651  1.2458
 4713TIP3    H235555   1.317   0.545   2.429  1.5576  1.3128  0.9634
 4714TIP3   OH235556   5.861   4.121  11.477 -0.2280 -0.4857  0.0513
 4714TIP3    H135557   5.913   4.166  11.410  1.6646 -0.0007  1.7541
 4714TIP3    H235558   5.924   4.067  11.524 -1.4593 -0.6403  1.5964
 4715TIP3   OH235559   5.784   2.670  16.229  0.5313 -0.0845 -0.2858
 4715TIP3    H135560   5.706   2.658  16.175  0.5617 -0.6598 -0.2098
 4715TIP3    H235561   5.754   2.654  16.318  0.1977  2.0937  0.0451
 4716TIP3   OH235562   3.901   2.636   6.324 -0.4909  0.2340 -0.0689
 4716TIP3    H135563   3.967   2.631   6.393 -1.9699  0.9831  1.4911
 4716TIP3    H235564   3.926   2.569   6.262 -0.4478 -2.2697  2.4422
 4717TIP3   OH235565   0.799   4.902  16.009 -0.1243  0.5001 -0.4197
 4717TIP3    H135566   0.843   4.821  15.983  1.1557  1.0147  0.0349
 4717TIP3    H235567   0.726   4.872  16.064  1.1245 -0.3325  0.8766
 4718TIP3   OH235568   3.702   3.756   4.836 -0.5434 -0.1514  0.2815
 4718TIP3    H135569   3.787   3.799   4.831  0.4137 -1.7212  1.8985
 4718TIP3    H235570   3.684   3.726   4.747 -0.1660  1.5318 -0.3891
 4719TIP3   OH235571   5.572   1.645   3.002 -0.3660  0.0410  0.2427
 4719TIP3    H135572   5.531   1.729   2.982 -1.8581 -0.9374 -1.0254
 4719TIP3    H235573   5.573   1.641   3.098  1.7623  2.4108  0.4199
 4720TIP3   OH235574   2.128   4.503  13.774 -0.3953  0.4085  0.3896
 4720TIP3    H135575   2.170   4.438  13.831  2.4511  1.2210 -0.6177
 4720TIP3    H235576   2.035   4.484  13.780 -0.0513 -0.7524  3.7781
 4721TIP3   OH235577   1.321   3.150   5.909  0.2733  0.1644 -0.2210
 4721TIP3    H135578   1.306   3.157   6.004  0.5634 -2.5041  0.0898
 4721TIP3    H235579   1.359   3.063   5.897 -0.6580  0.0517 -2.9242
 4722TIP3   OH235580   4.850   5.725  13.264 -0.2772 -0.1713  0.2598
 4722TIP3    H135581   4.804   5.768  13.192 -1.0280 -2.4986 -0.7459
 4722TIP3    H235582   4.793   5.736  13.339 -1.9537 -1.9220 -0.6809
 4723TIP3   OH235583   2.379   3.502   0.557  0.5820 -0.1863  0.8081
 4723TIP3    H135584   2.462   3.465   0.588  0.9886 -0.7016 -0.8238
 4723TIP3    H235585   2.316   3.480   0.626  1.6923 -0.1808  1.8603
 4724TIP3   OH235586   1.768   5.624  12.307  0.2832 -0.4457  0.0936
 4724TIP3    H135587   1.690   5.673  12.333 -0.3182 -1.1576 -0.3228
 4724TIP3    H235588   1.739   5.569  12.234  1.9310  1.6233 -2.2989
 4725TIP3   OH235589   3.381   0.873   4.186  0.1660 -0.3052 -0.1257
 4725TIP3    H135590   3.423   0.793   4.215 -0.7121 -1.0411 -0.8316
 4725TIP3    H235591   3.396   0.875   4.091 -1.4647 -0.6691 -0.4273
 4726TIP3   OH235592   6.604   3.665   0.151  0.4641  0.8790 -0.5548
 4726TIP3    H135593   6.674   3.600   0.141 -0.1107 -0.0771  1.2913
 4726TIP3    H235594   6.563   3.669   0.064  1.8749  0.3925 -1.2668
 4727TIP3   OH235595   1.377   0.633  12.676  0.1947  0.8997  0.1208
 4727TIP3    H135596   1.461   0.615  12.718 -0.4573  1.5004  1.7424
 4727TIP3    H235597   1.390   0.717  12.632  0.8903  0.2467 -1.0006
 4728TIP3   OH235598   5.752   4.209   5.535 -0.1681  0.0094  0.2668
 4728TIP3    H135599   5.727   4.235   5.623  0.4805  0.8570  0.2089
 4728TIP3    H235600   5.847   4.193   5.541 -0.2490 -0.6459 -0.1077
 4729TIP3   OH235601   1.225   0.888   3.198 -0.0424 -0.0278 -0.1298
 4729TIP3    H135602   1.307   0.902   3.245 -0.5814  0.9944  0.5321
 4729TIP3    H235603   1.249   0.893   3.105  0.3797  2.0692  0.0422
 4730TIP3   OH235604   4.599   4.852  17.179  0.1994  0.0790 -0.4077
 4730TIP3    H135605   4.533   4.784  17.172  0.2145 -0.3999  2.6081
 4730TIP3    H235606   4.549   4.934  17.182 -0.1276 -0.1262 -0.1534
 4731TIP3   OH235607   6.302   2.755   0.845  0.1044  0.0260 -0.5516
 4731TIP3    H135608   6.241   2.829   0.849 -0.1946 -0.2399  0.0484
 4731TIP3    H235609   6.370   2.783   0.784  0.2046  0.9514 -0.0421
 4732TIP3   OH235610   6.537   0.171  10.580  0.4500  0.3490  0.6257
 4732TIP3    H135611   6.561   0.108  10.513  0.6278  1.8281 -0.7755
 4732TIP3    H235612   6.586   0.144  10.658  0.1491 -1.4702  0.2110
 4733TIP3   OH235613   0.382   4.415  13.269 -0.0720  0.0580 -0.2712
 4733TIP3    H135614   0.465   4.464  13.265 -0.4631  0.8880  1.3576
 4733TIP3    H235615   0.351   4.426  13.358 -1.1296 -1.6457 -0.3810
 4734TIP3   OH235616   2.795   0.299  13.973  0.2947  0.4469 -0.3278
 4734TIP3    H135617   2.751   0.316  13.890  1.2024 -0.3929 -1.0068
 4734TIP3    H235618   2.817   0.386  14.006 -3.8664  1.1241  1.2438
 4735TIP3   OH235619   0.986   1.012   3.220  0.2572 -0.2584 -0.6046
 4735TIP3    H135620   0.943   1.014   3.135  1.0988 -0.7611 -1.0558
 4735TIP3    H235621   1.058   0.950   3.209  0.7087  0.0845  0.3147
 4736TIP3   OH235622   4.171   4.637  15.914 -0.2040 -0.3792 -0.1919
 4736TIP3    H135623   4.178   4.619  16.008 -2.7922  1.7382  0.5349
 4736TIP3    H235624   4.144   4.729  15.909  3.6189  0.8984 -3.2328
 4737TIP3   OH235625   6.143   0.893   1.037 -0.0536  0.0864  0.1016
 4737TIP3    H135626   6.160   0.951   0.963  0.3757 -1.1968 -0.8468
 4737TIP3    H235627   6.165   0.805   1.004  2.0044 -0.3352  2.2909
 4738TIP3   OH235628   5.304   1.400  15.988  0.3140 -0.1758 -0.1562
 4738TIP3    H135629   5.234   1.451  16.028 -0.4144 -0.4022 -1.1159
 4738TIP3    H235630   5.325   1.334  16.054  0.7107  0.8364  0.7687
 4739TIP3   OH235631   5.960   5.165  11.723  0.9335  0.5422  0.8207
 4739TIP3    H135632   5.884   5.186  11.669  0.9207  0.5885  0.8563
 4739TIP3    H235633   6.035   5.177  11.664  0.7652 -2.6424 -0.2235
 4740TIP3   OH235634   3.739   6.202   2.717 -0.1575 -0.3488 -0.0382
 4740TIP3    H135635   3.804   6.177   2.783  0.0637 -0.7369 -0.3935
 4740TIP3    H235636   3.790   6.247   2.650 -0.5464  1.0508  0.5711
 4741TIP3   OH235637   5.003   4.709   4.388  0.7757  0.2998  0.1114
 4741TIP3    H135638   4.954   4.632   4.416  0.1502  0.6163 -0.0861
 4741TIP3    H235639   5.095   4.681   4.389  0.3796 -1.7410 -3.8335
 4742TIP3   OH235640   5.450   5.482   5.403  0.3763 -0.3538  0.2515
 4742TIP3    H135641   5.478   5.395   5.375  1.9967  0.2175  0.0097
 4742TIP3    H235642   5.530   5.526   5.430 -0.1521  1.6662 -1.2296
 4743TIP3   OH235643   0.818   1.632  17.315  0.6294  0.1071 -0.5653
 4743TIP3    H135644   0.859   1.717  17.302 -0.7212  0.7221 -0.9694
 4743TIP3    H235645   0.753   1.625  17.245  1.3859 -1.7095 -1.1698
 4744TIP3   OH235646   0.752   0.839  17.164  0.4596 -0.2132  0.0716
 4744TIP3    H135647   0.754   0.823  17.070 -1.3954  2.3748 -0.5201
 4744TIP3    H235648   0.834   0.887  17.181  0.3022  0.2514 -0.4457
 4745TIP3   OH235649   5.098   5.002   3.641 -0.1795  0.1632  0.1862
 4745TIP3    H135650   5.194   4.998   3.642 -0.0383  1.6378 -1.9032
 4745TIP3    H235651   5.073   4.944   3.569 -1.0754 -1.9735  2.0879
 4746TIP3   OH235652   3.133   2.760   0.841  0.3258  0.3412 -0.2275
 4746TIP3    H135653   3.200   2.695   0.860  0.2108  0.4335  0.5515
 4746TIP3    H235654   3.092   2.777   0.926  2.7741  4.1262  0.4150
 4747TIP3   OH235655   1.279   6.716   2.279 -0.2533 -0.5744  0.4169
 4747TIP3    H135656   1.236   6.796   2.310  0.4017  0.8848 -2.0974
 4747TIP3    H235657   1.210   6.650   2.277 -1.1621  0.3212  1.1895
 4748TIP3   OH235658   1.613   6.402  11.542 -1.0134  0.7782  0.4101
 4748TIP3    H135659   1.687   6.457  11.517 -1.3303  0.3340 -1.6146
 4748TIP3    H235660   1.544   6.424  11.480 -1.6069 -0.8951  0.4233
 4749TIP3   OH235661   0.148   3.404  10.800 -0.5559 -0.3420  0.2141
 4749TIP3    H135662   0.239   3.421  10.827 -0.1931 -0.3903 -0.9380
 4749TIP3    H235663   0.095   3.441  10.871  0.2838  2.2958 -0.4090
 4750TIP3   OH235664   5.933   6.617   2.509 -0.5628  0.3188 -0.4916
 4750TIP3    H135665   5.846   6.585   2.484 -0.1957 -0.7718 -0.4225
 4750TIP3    H235666   5.988   6.539   2.510  0.5119  1.0551 -0.8960
 4751TIP3   OH235667   3.308   6.251  14.613 -0.3613  0.7359  0.1255
 4751TIP3    H135668   3.241   6.291  14.669 -1.3225  3.0302 -2.4386
 4751TIP3    H235669   3.267   6.171  14.580  0.7111 -1.4144  3.5013
 4752TIP3   OH235670   6.028   4.532  14.684  0.0886  0.2726 -0.0268
 4752TIP3    H135671   6.081   4.469  14.635 -1.2426 -0.4893 -0.5328
 4752TIP3    H235672   5.991   4.481  14.756  0.3596  0.8931  0.5571
 4753TIP3   OH235673   1.702   4.772   4.860 -0.6318 -0.0187  0.0161
 4753TIP3    H135674   1.649   4.692   4.867 -1.4657  0.1886 -2.6252
 4753TIP3    H235675   1.791   4.743   4.880 -1.1768 -1.1830  0.9320
 4754TIP3   OH235676   0.714   3.104   1.275  0.0167  0.2039 -0.5348
 4754TIP3    H135677   0.808   3.084   1.275 -0.2910 -1.3627  0.4938
 4754TIP3    H235678   0.671   3.019   1.282 -1.5359  0.8220 -1.9805
 4755TIP3   OH235679   1.658   2.038   4.357  0.4797  0.5025 -0.0564
 4755TIP3    H135680   1.593   2.018   4.424 -0.6122 -1.4686 -1.6139
 4755TIP3    H235681   1.718   1.963   4.358  0.4029  0.4062 -1.3146
 4756TIP3   OH235682   4.579   3.759   4.076  0.2089  0.2806 -0.0408
 4756TIP3    H135683   4.536   3.751   4.161 -0.6152  0.3474 -0.4403
 4756TIP3    H235684   4.569   3.673   4.036 -1.4767  0.8755 -1.0096
 4757TIP3   OH235685   2.613   0.434  12.687 -0.2448 -0.1728 -0.6084
 4757TIP3    H135686   2.670   0.478  12.624  0.3201  0.8337  0.5615
 4757TIP3    H235687   2.524   0.448  12.653 -0.0527  1.5643 -0.5105
 4758TIP3   OH235688   5.348   6.032  10.246 -0.2198  0.4495 -0.2563
 4758TIP3    H135689   5.431   6.079  10.255  0.1369 -0.2807  0.4254
 4758TIP3    H235690   5.290   6.093  10.202 -0.0048  1.8150  1.2633
 4759TIP3   OH235691   5.798   0.065   1.933  0.7084  0.3513 -0.2139
 4759TIP3    H135692   5.767   0.134   1.875  2.0402  3.3261  2.3521
 4759TIP3    H235693   5.865   0.107   1.987  0.0552 -2.3442  3.0186
 4760TIP3   OH235694   2.617   5.645  15.889  0.0127  0.0039 -0.0980
 4760TIP3    H135695   2.664   5.617  15.810 -0.9439 -1.5372 -0.1585
 4760TIP3    H235696   2.675   5.622  15.961 -0.8820 -2.6969 -0.1111
 4761TIP3   OH235697   5.509   6.459  11.701  0.5033  0.1200 -0.4116
 4761TIP3    H135698   5.532   6.395  11.769  1.7197  0.4075 -0.5270
 4761TIP3    H235699   5.497   6.541  11.748 -3.1401 -0.5207  0.0297
 4762TIP3   OH235700   0.765   1.887  11.797 -0.0312 -0.0709 -0.3057
 4762TIP3    H135701   0.810   1.808  11.768  0.2826  0.2147 -0.6159
 4762TIP3    H235702   0.743   1.933  11.716  0.1914  0.3738 -0.1181
 4763TIP3   OH235703   3.999   4.363   2.086 -0.2264  0.6629 -0.5717
 4763TIP3    H135704   3.945   4.378   2.164  0.6523  2.6695 -0.2950
 4763TIP3    H235705   3.951   4.405   2.015  0.3921  1.4530 -0.5352
 4764TIP3   OH235706   1.486   2.541  16.388  0.2729  0.0934  0.9580
 4764TIP3    H135707   1.435   2.620  16.372 -0.2606 -0.4908 -0.3429
 4764TIP3    H235708   1.552   2.540  16.318 -0.0582 -0.8703  0.6359
 4765TIP3   OH235709   5.684   3.524   3.467 -0.6950  0.1514 -0.0934
 4765TIP3    H135710   5.589   3.535   3.462 -0.8975 -1.3761 -0.0615
 4765TIP3    H235711   5.712   3.588   3.533 -1.7155  0.4786  0.0415
 4766TIP3   OH235712   2.981   6.307  14.552 -0.2491  0.0808 -0.0732
 4766TIP3    H135713   2.971   6.336  14.462 -0.6752 -1.8185 -0.6894
 4766TIP3    H235714   2.909   6.348  14.599 -0.2444  0.7845 -0.6622
 4767TIP3   OH235715   3.363   1.408  13.571 -0.0930  0.1315 -0.3031
 4767TIP3    H135716   3.293   1.345  13.588 -0.1230  0.1130 -0.5006
 4767TIP3    H235717   3.438   1.354  13.545  0.2988  0.0710  0.8827
 4768TIP3   OH235718   3.945   3.110  16.348 -0.5358  0.0052 -1.0800
 4768TIP3    H135719   4.034   3.127  16.379 -0.6030  0.5867 -1.1968
 4768TIP3    H235720   3.934   3.166  16.272 -0.5010 -1.1484 -1.9701
 4769TIP3   OH235721   5.161   6.376  17.036 -0.4165  0.6226 -0.1232
 4769TIP3    H135722   5.074   6.376  17.078 -0.3209 -2.6220  0.3763
 4769TIP3    H235723   5.222   6.381  17.109 -0.2687 -1.8143  0.0248
 4770TIP3   OH235724   1.108   1.296  15.626  0.0906  0.8018  0.1385
 4770TIP3    H135725   1.035   1.238  15.606  0.9996 -0.2890 -0.1705
 4770TIP3    H235726   1.172   1.239  15.670  0.2523  2.0017  1.5478
 4771TIP3   OH235727   6.647   1.795   1.673 -0.0868 -0.2100 -0.0983
 4771TIP3    H135728   6.609   1.846   1.602  1.7000  1.5729  0.1103
 4771TIP3    H235729   6.673   1.861   1.738  0.4665 -1.5786  1.1334
 4772TIP3   OH235730   0.310   0.826   6.850  0.3383 -0.1773 -0.2369
 4772TIP3    H135731   0.361   0.865   6.921 -0.6762  1.0013 -0.1297
 4772TIP3    H235732   0.308   0.732   6.871  1.0856 -0.0140  0.6152
 4773TIP3   OH235733   1.153   1.690  16.248 -0.4716  0.1316 -0.3113
 4773TIP3    H135734   1.244   1.670  16.228 -0.9834 -1.7361 -0.9720
 4773TIP3    H235735   1.146   1.680  16.343  0.4228  2.2892  0.0397
 4774TIP3   OH235736   6.642   4.971  13.468  0.6684  0.4055  0.0604
 4774TIP3    H135737   6.639   5.019  13.551  1.1885 -0.7469  0.7755
 4774TIP3    H235738   6.682   5.031  13.406  0.6536  1.1392  0.7550
 4775TIP3   OH235739   3.972   1.785  15.218  0.5831 -0.2315 -0.5171
 4775TIP3    H135740   4.013   1.871  15.222  2.7031 -1.1985 -0.1525
 4775TIP3    H235741   3.879   1.803  15.233  1.1647  1.8394  1.1747
 4776TIP3   OH235742   3.862   2.020  15.283  0.0963  0.5463  0.4550
 4776TIP3    H135743   3.855   2.087  15.215 -0.8534 -0.0794 -0.0907
 4776TIP3    H235744   3.773   2.010  15.317  0.6740  1.3130  2.2852
 4777TIP3   OH235745   1.762   5.126   1.493 -0.4761  0.5144  0.1334
 4777TIP3    H135746   1.668   5.122   1.475 -0.6495  1.1767  0.8535
 4777TIP3    H235747   1.781   5.042   1.535 -0.5283 -0.0523 -0.9281
 4778TIP3   OH235748   1.362   4.807   3.154  0.4352 -0.0654  0.5903
 4778TIP3    H135749   1.417   4.733   3.128  0.4036 -0.5529  1.8505
 4778TIP3    H235750   1.403   4.882   3.112  0.7724 -0.7136 -0.2866
 4779TIP3   OH235751   1.331   3.777  12.256 -0.0429  0.1129 -0.1657
 4779TIP3    H135752   1.276   3.716  12.207 -0.4136 -0.6015  1.0832
 4779TIP3    H235753   1.409   3.726  12.279 -0.0656  0.2980  0.3370
 4780TIP3   OH235754   4.811   4.892  14.777  0.3642 -0.2393  0.3900
 4780TIP3    H135755   4.791   4.809  14.734  0.1961  0.8248 -1.7321
 4780TIP3    H235756   4.726   4.933  14.792  0.4859 -0.0566  0.5994
 4781TIP3   OH235757   0.826   0.618  14.818  0.9325 -0.2896 -0.4947
 4781TIP3    H135758   0.869   0.611  14.733  1.2026  0.5778 -0.4398
 4781TIP3    H235759   0.858   0.701  14.854  0.3296 -0.3420  0.1779
 4782TIP3   OH235760   5.676   0.535  16.140 -0.3898 -0.0710 -0.4992
 4782TIP3    H135761   5.736   0.566  16.072  0.1786 -1.5697 -0.7096
 4782TIP3    H235762   5.604   0.495  16.092 -0.6158  0.0073 -0.2247
 4783TIP3   OH235763   2.445   2.393  11.915  0.2409  0.2247  0.0896
 4783TIP3    H135764   2.541   2.393  11.911  0.2278 -0.3701 -0.3792
 4783TIP3    H235765   2.425   2.415  12.006  0.8402 -0.6641  0.4536
 4784TIP3   OH235766   5.500   6.100  16.522  0.1105 -0.4900 -0.6016
 4784TIP3    H135767   5.485   6.172  16.460 -0.6282 -1.0782 -1.1152
 4784TIP3    H235768   5.500   6.142  16.608  0.2489  0.2051 -0.9342
 4785TIP3   OH235769   2.027   4.317  12.504  0.0722  0.7093 -0.4560
 4785TIP3    H135770   1.971   4.256  12.456  2.3005 -0.9087 -1.1643
 4785TIP3    H235771   2.020   4.289  12.595 -1.3821  1.4879 -0.3032
 4786TIP3   OH235772   4.765   1.700  11.976 -0.4495  0.1131  0.1143
 4786TIP3    H135773   4.811   1.622  11.946 -1.9070 -0.6427 -0.2877
 4786TIP3    H235774   4.830   1.770  11.970  1.1567 -1.2004  1.3419
 4787TIP3   OH235775   5.104   0.827   5.196 -0.2940 -0.5281  0.0359
 4787TIP3    H135776   5.036   0.893   5.211 -1.1086 -1.4648  0.5966
 4787TIP3    H235777   5.183   0.865   5.235  0.6637  2.3938 -4.0773
 4788TIP3   OH235778   2.937   0.144  14.433  0.4785 -0.8663 -0.4439
 4788TIP3    H135779   2.989   0.065  14.445  0.7590 -0.7839 -1.0721
 4788TIP3    H235780   2.895   0.159  14.518  1.9480 -0.5812  0.2597
 4789TIP3   OH235781   2.208   1.345   3.591  0.5972 -0.1764  0.3347
 4789TIP3    H135782   2.196   1.260   3.634  0.0336 -0.1501  0.2386
 4789TIP3    H235783   2.221   1.407   3.662 -0.6923 -0.0725  0.5059
 4790TIP3   OH235784   3.629   0.158  13.617  0.1727  0.2428 -0.0927
 4790TIP3    H135785   3.714   0.187  13.582 -0.4730  1.8080 -0.4895
 4790TIP3    H235786   3.565   0.212  13.570 -1.1918 -1.9661 -0.9382
 4791TIP3   OH235787   1.858   2.434   4.712  0.5400  0.2618 -0.0121
 4791TIP3    H135788   1.800   2.360   4.695 -0.1320  0.2270  2.1412
 4791TIP3    H235789   1.819   2.506   4.663  0.2154 -0.3849 -0.7337
 4792TIP3   OH235790   1.683   4.261  13.042  0.4513  0.0821 -0.8888
 4792TIP3    H135791   1.642   4.210  13.112  0.1249  0.3345 -0.8910
 4792TIP3    H235792   1.770   4.282  13.076 -0.2363  1.5013  0.1057
 4793TIP3   OH235793   3.904   5.129  14.153 -0.4079  0.2804 -0.3196
 4793TIP3    H135794   3.930   5.037  14.149  1.4074  0.7412 -0.2300
 4793TIP3    H235795   3.843   5.134  14.226  0.7176 -0.6008  0.7144
 4794TIP3   OH235796   0.218   0.740   1.261  0.4719 -0.0034 -0.0490
 4794TIP3    H135797   0.186   0.805   1.198 -0.4523  0.0430  0.4549
 4794TIP3    H235798   0.307   0.720   1.231 -0.2045 -0.5752 -1.8636
 4795TIP3   OH235799   3.577   2.546   4.039  0.5805 -0.2199 -0.0141
 4795TIP3    H135800   3.586   2.486   4.113 -0.6545 -0.7411 -0.2663
 4795TIP3    H235801   3.612   2.498   3.964  0.6599 -0.1716 -0.0088
 4796TIP3   OH235802   4.708   5.139   5.314 -0.6045 -0.3212  0.3439
 4796TIP3    H135803   4.804   5.149   5.316 -0.7859  1.7260  1.1038
 4796TIP3    H235804   4.678   5.183   5.394 -2.4215  2.3748 -1.6560
 4797TIP3   OH235805   6.379   2.786   0.344  0.3990 -0.7562 -0.2420
 4797TIP3    H135806   6.397   2.701   0.383  0.1872 -0.0185  1.5511
 4797TIP3    H235807   6.317   2.828   0.404 -2.7379 -0.8510 -3.1021
 4798TIP3   OH235808   1.833   0.233   3.550  0.3057 -0.0116  0.4977
 4798TIP3    H135809   1.921   0.270   3.546 -0.2184  2.4077  4.8110
 4798TIP3    H235810   1.776   0.305   3.524 -0.4851 -0.3686  1.1999
 4799TIP3   OH235811   0.923   3.355  12.938 -0.6083 -0.3814  0.1953
 4799TIP3    H135812   0.880   3.440  12.952  0.6859  0.1222  1.3535
 4799TIP3    H235813   0.970   3.338  13.020 -0.2181 -1.8595 -0.3010
 4800TIP3   OH235814   2.316   1.701  11.929 -0.2188  0.0459  0.2881
 4800TIP3    H135815   2.305   1.690  11.835  1.4050  0.7532 -0.0259
 4800TIP3    H235816   2.228   1.687  11.966 -0.8245 -0.4965 -1.2863
 4801TIP3   OH235817   1.609   3.249   4.057  0.0430  0.1942  0.2754
 4801TIP3    H135818   1.580   3.339   4.039 -1.5246 -0.3675 -0.1305
 4801TIP3    H235819   1.682   3.236   3.997  0.9149  1.4975  0.9929
 4802TIP3   OH235820   5.723   0.783   0.931 -0.1982  0.0622 -0.3085
 4802TIP3    H135821   5.736   0.873   0.961 -0.2584  0.2899 -0.9508
 4802TIP3    H235822   5.764   0.781   0.844 -1.7997 -0.0107 -1.0964
 4803TIP3   OH235823   5.841   0.129   5.330  0.8418 -0.4788 -0.8427
 4803TIP3    H135824   5.855   0.201   5.269 -0.9456  0.2593 -0.4385
 4803TIP3    H235825   5.772   0.077   5.290 -2.6547  1.6996  1.7693
 4804TIP3   OH235826   0.874   3.560   1.613 -0.4241  0.1521  0.6394
 4804TIP3    H135827   0.819   3.623   1.567 -0.1098  0.5473  0.8046
 4804TIP3    H235828   0.837   3.556   1.701 -1.9548 -1.6955  0.0094
 4805TIP3   OH235829   6.477   1.240   5.364 -0.1597  0.2011 -0.4748
 4805TIP3    H135830   6.385   1.247   5.390 -0.1308 -2.0406  0.4046
 4805TIP3    H235831   6.526   1.253   5.446  0.1380 -1.7639 -0.3020
 4806TIP3   OH235832   3.413   2.663  13.824  0.5286  0.3759  0.2236
 4806TIP3    H135833   3.466   2.741  13.833 -0.0779  0.7402  0.7029
 4806TIP3    H235834   3.394   2.658  13.730  2.4559 -0.4841 -0.1655
 4807TIP3   OH235835   4.830   4.489   1.086  0.5325 -0.1754 -0.6655
 4807TIP3    H135836   4.897   4.437   1.131  1.0714  0.0183 -1.2348
 4807TIP3    H235837   4.795   4.429   1.020  0.7407 -0.0042 -0.9310
 4808TIP3   OH235838   3.234   5.453  12.565  0.5622  0.1845 -0.4361
 4808TIP3    H135839   3.207   5.508  12.638  1.1063  0.9402 -0.7850
 4808TIP3    H235840   3.248   5.367  12.603  0.6269  0.5155  0.3073
 4809TIP3   OH235841   2.094   6.175  14.213  0.1027  0.0125 -0.2570
 4809TIP3    H135842   2.148   6.102  14.182 -0.2099 -1.5570  2.5485
 4809TIP3    H235843   2.157   6.238  14.247  0.2825 -0.7901  0.9400
 4810TIP3   OH235844   0.295   6.117  16.313 -0.4253 -0.5256 -0.3850
 4810TIP3    H135845   0.304   6.067  16.394 -0.9578 -0.5744 -0.3524
 4810TIP3    H235846   0.202   6.112  16.292 -0.4706  0.3624 -0.4370
 4811TIP3   OH235847   6.005   3.678  14.597 -0.3344  0.4905  0.5209
 4811TIP3    H135848   6.016   3.631  14.515  0.6675 -1.7045  1.8113
 4811TIP3    H235849   5.911   3.693  14.604 -0.5242 -0.0799 -0.6248
 4812TIP3   OH235850   3.662   1.116   3.249 -0.2458  0.2019 -0.3066
 4812TIP3    H135851   3.606   1.147   3.321  1.1141  0.5664  0.6249
 4812TIP3    H235852   3.618   1.147   3.170 -1.0012  1.0871  0.4352
 4813TIP3   OH235853   0.133   5.378   3.923  0.5603 -0.0292  0.2943
 4813TIP3    H135854   0.181   5.403   3.844 -0.9017  3.3614  0.3057
 4813TIP3    H235855   0.165   5.290   3.944  2.3700 -0.2993 -2.9609
 4814TIP3   OH235856   3.088   3.044   4.495  0.5753  0.6256  0.0192
 4814TIP3    H135857   3.001   3.084   4.492 -0.2415 -0.9475  1.3788
 4814TIP3    H235858   3.142   3.106   4.544 -0.0026  1.2028 -0.0630
 4815TIP3   OH235859   0.743   0.264   1.765 -0.1737 -0.4405  0.7438
 4815TIP3    H135860   0.792   0.197   1.718 -0.5219 -0.6191  0.6349
 4815TIP3    H235861   0.810   0.317   1.809  0.0889 -0.9385  0.9411
 4816TIP3   OH235862   2.619   0.229   3.199  0.0952  0.1684  0.1312
 4816TIP3    H135863   2.609   0.324   3.189 -1.8413 -0.1579 -1.7776
 4816TIP3    H235864   2.579   0.209   3.284 -1.9746  0.8136 -0.6255
 4817TIP3   OH235865   1.897   3.253  15.710 -0.1517  0.3045 -0.4157
 4817TIP3    H135866   1.932   3.289  15.629 -1.4727 -0.8952 -1.5654
 4817TIP3    H235867   1.815   3.301  15.725  0.6176  1.2975  0.8521
 4818TIP3   OH235868   2.337   1.123  14.194  0.2917  0.0989  0.1059
 4818TIP3    H135869   2.352   1.106  14.287  1.2091  1.0909  0.1630
 4818TIP3    H235870   2.296   1.210  14.192  0.6298  0.2495 -0.4302
 4819TIP3   OH235871   0.353   2.664  11.940 -0.4762  0.0670 -0.2063
 4819TIP3    H135872   0.259   2.648  11.948 -0.3540 -0.2774  0.5843
 4819TIP3    H235873   0.365   2.753  11.972 -0.5391  0.1316 -0.3613
 4820TIP3   OH235874   0.262   1.406  16.344  0.0254 -0.2259  0.5661
 4820TIP3    H135875   0.329   1.432  16.280 -0.5317  1.3288  0.5704
 4820TIP3    H235876   0.310   1.355  16.409  0.8732 -0.6171 -0.3337
 4821TIP3   OH235877   1.538   3.757  15.470 -0.2671 -0.2857  0.5867
 4821TIP3    H135878   1.517   3.731  15.381  1.1617 -1.8733  0.6595
 4821TIP3    H235879   1.459   3.800  15.502 -0.4878  1.1964 -1.7346
 4822TIP3   OH235880   5.294   5.600  12.693 -0.3843  0.3944 -0.3470
 4822TIP3    H135881   5.229   5.592  12.763  1.3950 -0.1374  1.3211
 4822TIP3    H235882   5.323   5.510  12.678  0.4199  0.6938 -0.6083
 4823TIP3   OH235883   0.316   2.262  15.243  0.7018  0.6864  0.3315
 4823TIP3    H135884   0.395   2.209  15.235  1.4155  1.1573  3.0166
 4823TIP3    H235885   0.348   2.353  15.243  0.1254  0.9019  0.9228
 4824TIP3   OH235886   1.114   1.623  16.529  0.0836  0.4288  0.4383
 4824TIP3    H135887   1.048   1.691  16.546 -1.8226 -1.3739  0.6970
 4824TIP3    H235888   1.170   1.625  16.606 -0.9720  0.5940  1.2258
 4825TIP3   OH235889   0.284   3.617  14.659  0.6008  0.1659 -0.2262
 4825TIP3    H135890   0.346   3.569  14.604 -0.2258  0.0832 -1.1178
 4825TIP3    H235891   0.338   3.677  14.710  1.3704  0.5547 -1.4504
 4826TIP3   OH235892   0.041   2.779  13.723 -0.1673  0.7562 -0.2085
 4826TIP3    H135893   0.019   2.687  13.738  3.9307 -0.1602  1.5109
 4826TIP3    H235894   0.093   2.779  13.642  0.5139  1.4181  0.2173
 4827TIP3   OH235895   0.193   1.657   5.338  0.7408 -0.7958 -0.1256
 4827TIP3    H135896   0.246   1.630   5.263  0.1452 -0.0323 -0.8469
 4827TIP3    H235897   0.133   1.723   5.303  0.7866 -0.0372  1.1257
 4828TIP3   OH235898   5.492   3.468  12.912 -0.2310  0.3968 -0.1006
 4828TIP3    H135899   5.403   3.502  12.922 -0.5840 -0.9215  1.9701
 4828TIP3    H235900   5.485   3.402  12.843 -0.4307  1.5188 -1.1933
 4829TIP3   OH235901   5.443   5.839  13.457  0.0897 -0.3455 -0.8415
 4829TIP3    H135902   5.352   5.831  13.429 -0.4196 -0.0911  0.6494
 4829TIP3    H235903   5.458   5.933  13.463 -0.1198 -0.3749  0.5718
 4830TIP3   OH235904   3.130   3.187  16.698 -0.7016  0.1317  0.0878
 4830TIP3    H135905   3.146   3.101  16.659 -1.0731  0.5523 -1.0253
 4830TIP3    H235906   3.040   3.182  16.730 -1.9202  1.0842 -2.8248
 4831TIP3   OH235907   1.880   5.490  11.876  1.0309  0.1209 -0.2195
 4831TIP3    H135908   1.830   5.492  11.795  1.8847  0.7144 -0.7416
 4831TIP3    H235909   1.839   5.556  11.932 -0.4725 -1.2719  0.4189
 4832TIP3   OH235910   0.837   4.047   0.202  0.2827 -0.0818 -0.4992
 4832TIP3    H135911   0.766   4.042   0.267  0.2148  2.1299 -0.3123
 4832TIP3    H235912   0.913   4.010   0.247 -0.2875 -0.6337  0.0285
 4833TIP3   OH235913   0.893   6.680  12.820 -0.1361 -0.0031  0.4607
 4833TIP3    H135914   0.804   6.662  12.789  0.3407  0.4461 -1.2692
 4833TIP3    H235915   0.900   6.630  12.901 -1.7654 -0.5220  0.3263
 4834TIP3   OH235916   4.338   6.733  17.172  0.4026  0.1294  1.0509
 4834TIP3    H135917   4.260   6.780  17.142 -1.6512 -1.6324  3.2216
 4834TIP3    H235918   4.400   6.802  17.198  0.2421  1.5987 -2.0094
 4835TIP3   OH235919   5.565   3.241   2.639  0.8326  0.6883  0.5696
 4835TIP3    H135920   5.563   3.328   2.599  0.4851  0.2654 -0.3555
 4835TIP3    H235921   5.646   3.239   2.690  3.2717 -0.0301 -3.0162
 4836TIP3   OH235922   4.697   4.503  14.354  0.0213  0.5190  0.0119
 4836TIP3    H135923   4.655   4.471  14.434 -0.7191  2.1614  0.3266
 4836TIP3    H235924   4.791   4.497  14.371 -0.1195 -0.3913  0.4819
 4837TIP3   OH235925   4.384   0.112  15.319 -0.1903  0.0680  0.0752
 4837TIP3    H135926   4.446   0.039  15.326 -0.9729 -0.7454 -1.0694
 4837TIP3    H235927   4.310   0.087  15.375 -0.6592 -0.2359 -0.6750
 4838TIP3   OH235928   5.140   3.909   5.374  0.3980 -0.4828 -0.1607
 4838TIP3    H135929   5.085   3.982   5.343 -0.3310  0.5705  3.2064
 4838TIP3    H235930   5.082   3.833   5.373 -0.2817  0.0082  0.6315
 4839TIP3   OH235931   4.733   4.036  16.853 -0.1317  0.1486 -0.1165
 4839TIP3    H135932   4.751   3.968  16.918  1.8109 -0.0268 -0.7878
 4839TIP3    H235933   4.660   4.001  16.802 -0.5825 -0.4500  0.9019
 4840TIP3   OH235934   3.287   0.126   3.696  0.0593 -0.2395  0.2206
 4840TIP3    H135935   3.343   0.119   3.619  0.3723  2.3161  0.1166
 4840TIP3    H235936   3.263   0.036   3.717  1.8206 -1.1822 -1.4844
 4841TIP3   OH235937   0.508   2.352   0.182  0.5238 -0.2221  0.2267
 4841TIP3    H135938   0.548   2.342   0.268  0.0333 -0.8561  0.3869
 4841TIP3    H235939   0.481   2.443   0.179  0.4741 -0.2126  0.7807
 4842TIP3   OH235940   5.203   4.585  13.176 -0.1055  0.5049  0.0488
 4842TIP3    H135941   5.215   4.530  13.098 -0.4148 -1.0563  1.0649
 4842TIP3    H235942   5.292   4.607  13.203  0.0518  0.0351 -0.0637
 4843TIP3   OH235943   2.221   0.021  12.533 -0.1289 -0.0577  0.2196
 4843TIP3    H135944   2.280  -0.055  12.531 -2.2650 -1.7986 -0.5994
 4843TIP3    H235945   2.176   0.018  12.448 -2.3429  0.3461  1.3111
 4844TIP3   OH235946   6.698   0.965  12.272  0.1723 -0.5215  0.1574
 4844TIP3    H135947   6.683   0.888  12.327  0.8748 -0.1821  0.8592
 4844TIP3    H235948   6.647   1.034  12.314 -1.3258 -0.8265 -1.0819
 4845TIP3   OH235949   4.407   2.152  16.501 -0.1775  0.2534 -0.0631
 4845TIP3    H135950   4.319   2.189  16.500  0.5640  2.1226  0.1055
 4845TIP3    H235951   4.466   2.228  16.503  1.4318 -0.9144  1.7136
 4846TIP3   OH235952   0.872   4.229   3.449  0.6518 -0.7503 -0.1207
 4846TIP3    H135953   0.933   4.216   3.521  1.5777  0.0649 -0.7280
 4846TIP3    H235954   0.843   4.320   3.459 -0.7313 -1.2122  0.3434
 4847TIP3   OH235955   6.014   6.370  17.008  0.2498  0.5447 -0.0603
 4847TIP3    H135956   6.105   6.349  17.030 -0.4738 -2.6902  0.1868
 4847TIP3    H235957   5.972   6.388  17.092 -0.1930 -1.9164  0.3063
 4848TIP3   OH235958   3.409   2.336   0.154  0.3638 -0.6038  0.2823
 4848TIP3    H135959   3.393   2.313   0.063 -0.2759  0.3107  0.1493
 4848TIP3    H235960   3.495   2.299   0.174  0.1965 -1.4086 -0.4784
 4849TIP3   OH235961   4.097   0.775   0.344 -0.4343 -0.4119 -0.0011
 4849TIP3    H135962   4.187   0.745   0.334 -0.3604 -0.2673  0.2179
 4849TIP3    H235963   4.074   0.812   0.259  0.6286  2.0275  0.6791
 4850TIP3   OH235964   4.450   1.245   6.340 -0.2026  0.1976  0.5830
 4850TIP3    H135965   4.372   1.190   6.342 -0.0194 -0.0828 -0.0427
 4850TIP3    H235966   4.511   1.200   6.282  0.4811  0.3488  1.1630
 4851TIP3   OH235967   5.316   1.194  16.666 -0.2050 -0.0320 -0.0171
 4851TIP3    H135968   5.358   1.131  16.607  0.7533 -0.8773  1.5162
 4851TIP3    H235969   5.306   1.273  16.612  1.4509 -0.4789 -1.0677
 4852TIP3   OH235970   5.771   1.262   6.114  1.2862  0.3462  0.6008
 4852TIP3    H135971   5.808   1.293   6.197  3.3780  1.8057 -0.7907
 4852TIP3    H235972   5.692   1.315   6.102 -0.1418 -1.1727  2.4656
 4853TIP3   OH235973   2.951   4.899  12.050 -0.6918 -0.0807 -0.2015
 4853TIP3    H135974   2.984   4.811  12.064  2.4010  1.0670  0.4042
 4853TIP3    H235975   2.867   4.901  12.097  1.1205 -1.5110  3.4764
 4854TIP3   OH235976   4.771   5.312  13.961 -0.4252  0.8154  0.4957
 4854TIP3    H135977   4.723   5.248  14.013  0.3908  1.0842  1.6429
 4854TIP3    H235978   4.706   5.351  13.903 -0.9053 -1.1199 -0.3299
 4855TIP3   OH235979   5.640   3.716  12.915 -0.0036  0.8876  0.2266
 4855TIP3    H135980   5.605   3.626  12.914 -0.3016  1.0001 -0.4292
 4855TIP3    H235981   5.664   3.733  12.824  0.0696  1.4716  0.3512
 4856TIP3   OH235982   6.379   4.065  13.822 -0.2857 -0.0707  0.2575
 4856TIP3    H135983   6.380   4.158  13.845 -0.2092 -0.0896  0.3356
 4856TIP3    H235984   6.315   4.057  13.751  1.6818  0.5189 -1.7114
 4857TIP3   OH235985   0.977   0.945  11.515  0.8892  0.3710 -0.6738
 4857TIP3    H135986   1.042   0.941  11.445  1.2370  3.1593 -0.6339
 4857TIP3    H235987   1.027   0.968  11.593  0.1612  0.0464 -0.1017
 4858TIP3   OH235988   1.924   2.559  14.843  0.2094 -0.2664  0.6722
 4858TIP3    H135989   1.924   2.654  14.834 -3.8916 -0.1062  0.5599
 4858TIP3    H235990   1.991   2.529  14.782  1.1803  2.4912  0.2535
 4859TIP3   OH235991   2.602   2.589  10.715 -0.7020 -0.2514 -0.0402
 4859TIP3    H135992   2.532   2.652  10.703 -1.6237 -1.1424  0.5453
 4859TIP3    H235993   2.603   2.571  10.809 -0.4238 -1.0674 -0.1895
 4860TIP3   OH235994   6.632   2.068   5.940  0.1305 -0.3650  0.3582
 4860TIP3    H135995   6.681   1.991   5.910 -1.4410 -1.1558 -0.2937
 4860TIP3    H235996   6.608   2.047   6.031 -0.5182 -0.7837  0.0987
 4861TIP3   OH235997   4.185   4.000   2.798 -0.0770  0.2544 -0.1196
 4861TIP3    H135998   4.159   4.087   2.767  1.0495  0.8307  0.5100
 4861TIP3    H235999   4.210   3.953   2.719 -0.7211  0.4796 -0.4691
 4862TIP3   OH236000   5.033   4.900   2.680  0.1336  0.3124 -0.2934
 4862TIP3    H136001   5.062   4.810   2.674 -1.1441 -0.1247 -0.3274
 4862TIP3    H236002   4.995   4.920   2.594 -0.8832  0.3898  0.1562
 4863TIP3   OH236003   2.151   6.103   0.526  0.2794 -0.0554  0.3299
 4863TIP3    H136004   2.240   6.133   0.541  0.6384 -0.6001 -0.6101
 4863TIP3    H236005   2.115   6.088   0.613  0.9199  0.6747  0.7300
 4864TIP3   OH236006   6.726   3.162   0.153  0.2734 -0.3064 -0.3631
 4864TIP3    H136007   6.661   3.166   0.223 -0.5256 -1.6030 -0.9887
 4864TIP3    H236008   6.683   3.202   0.078  1.8530  2.9809  0.3239
 4865TIP3   OH236009   5.640   0.204   1.755 -0.1242  0.7324  0.1828
 4865TIP3    H136010   5.673   0.294   1.757  1.8398  0.0689 -0.3078
 4865TIP3    H236011   5.612   0.191   1.665  1.1001  0.3742 -0.1655
 4866TIP3   OH236012   5.447   2.475  16.255  0.1719 -0.5665 -0.0407
 4866TIP3    H136013   5.445   2.439  16.344  2.0569 -0.5108  0.0640
 4866TIP3    H236014   5.386   2.421  16.206 -3.7691  1.5649  1.9864
 4867TIP3   OH236015   5.879   3.352  11.821 -0.1371 -0.3147 -0.3583
 4867TIP3    H136016   5.926   3.435  11.815  0.3507 -0.5962 -0.5053
 4867TIP3    H236017   5.894   3.311  11.736 -0.3256 -0.5787 -0.2625
 4868TIP3   OH236018   5.514   4.784   3.184 -0.1536  0.3670  0.6509
 4868TIP3    H136019   5.576   4.793   3.257 -0.4736  0.1820  0.9492
 4868TIP3    H236020   5.444   4.729   3.219 -0.4584  0.5278  0.2973
 4869TIP3   OH236021   3.965   6.444   4.111  0.0554 -0.1026 -0.1087
 4869TIP3    H136022   3.919   6.467   4.030  0.1989  0.9481  0.0964
 4869TIP3    H236023   3.904   6.387   4.158 -1.9151  2.6816  0.9937
 4870TIP3   OH236024   4.199   1.492  14.368 -0.2489 -0.4806 -0.5164
 4870TIP3    H136025   4.127   1.474  14.307 -0.0066  0.4561 -1.1013
 4870TIP3    H236026   4.183   1.432  14.442 -2.1311  0.3016 -0.2243
 4871TIP3   OH236027   2.861   1.165   4.064 -0.0479 -0.2720 -0.3032
 4871TIP3    H136028   2.953   1.140   4.055  0.0063 -0.5087  0.7717
 4871TIP3    H236029   2.857   1.211   4.148 -0.4694  1.8746 -1.4285
 4872TIP3   OH236030   4.901   4.726  13.606  0.3548 -0.2606 -1.0743
 4872TIP3    H136031   4.833   4.717  13.674  0.9536 -2.6919 -0.7110
 4872TIP3    H236032   4.870   4.798  13.552 -2.2203 -0.8471 -0.5442
 4873TIP3   OH236033   0.888   3.261   1.115  0.5267  0.2771  0.1175
 4873TIP3    H136034   0.878   3.261   1.210  0.3823  3.3338  0.2170
 4873TIP3    H236035   0.806   3.298   1.083 -0.1324 -2.2353 -1.4125
 4874TIP3   OH236036   1.854   6.198   4.380 -0.1470 -1.2173  0.5869
 4874TIP3    H136037   1.915   6.271   4.372 -0.4774 -1.1613 -2.3811
 4874TIP3    H236038   1.895   6.126   4.333 -1.7599 -1.5418 -0.4251
 4875TIP3   OH236039   6.768   1.376  12.753 -0.0853 -0.0841 -0.1790
 4875TIP3    H136040   6.834   1.341  12.694 -2.9350 -2.3192 -2.3236
 4875TIP3    H236041   6.734   1.454  12.710  0.8958  0.9171  0.7963
 4876TIP3   OH236042   5.010   3.045  15.459  0.4308 -0.1102  0.0356
 4876TIP3    H136043   4.964   3.044  15.375 -0.7619  2.0688  0.5925
 4876TIP3    H236044   4.988   2.960  15.499 -1.5736  0.0810 -0.5359
 4877TIP3   OH236045   6.180   4.434   5.303  0.1940 -0.3542 -0.1066
 4877TIP3    H136046   6.242   4.400   5.367 -1.0416  0.0453  1.3630
 4877TIP3    H236047   6.146   4.514   5.343 -2.8400 -1.6671  0.1769
 4878TIP3   OH236048   4.285   4.360   2.565 -0.0770 -0.2780  0.1192
 4878TIP3    H136049   4.279   4.274   2.523  1.9475  0.4046 -1.7725
 4878TIP3    H236050   4.223   4.414   2.516  0.0013 -0.2229  0.0808
 4879TIP3   OH236051   1.114   5.651   3.690  0.2646  0.0246 -0.2960
 4879TIP3    H136052   1.039   5.710   3.696 -0.9989 -1.1345 -3.0787
 4879TIP3    H236053   1.186   5.708   3.662  0.1361  0.8812  0.9831
 4880TIP3   OH236054   1.091   6.744  12.651  0.5555  0.1769  0.0563
 4880TIP3    H136055   1.013   6.727  12.704 -0.4818  1.7970 -0.8677
 4880TIP3    H236056   1.117   6.833  12.675 -0.4878  1.3322 -2.7068
 4881TIP3   OH236057   2.155   3.189  15.842  0.0782 -0.5816 -0.1395
 4881TIP3    H136058   2.072   3.219  15.805 -1.2902 -1.6865  1.8584
 4881TIP3    H236059   2.161   3.097  15.816  0.3207 -0.7006  0.3406
 4882TIP3   OH236060   5.896   1.424   1.196  0.1691 -0.1831  0.3278
 4882TIP3    H136061   5.928   1.481   1.265 -0.0235 -0.0652  0.3205
 4882TIP3    H236062   5.804   1.449   1.185  0.1403 -0.3514  0.1819
 4883TIP3   OH236063   3.175   1.888   0.527 -0.5039  0.1143 -0.2612
 4883TIP3    H136064   3.170   1.977   0.562  2.8017  0.6532 -0.8057
 4883TIP3    H236065   3.120   1.836   0.586  0.6318  1.8785  2.5914
 4884TIP3   OH236066   4.671   5.652  16.640 -0.6428  0.2137  0.2905
 4884TIP3    H136067   4.764   5.634  16.654 -0.3555  0.8844 -0.6547
 4884TIP3    H236068   4.669   5.704  16.560 -1.8720 -0.1393  0.0768
 4885TIP3   OH236069   1.356   3.439   5.501  0.2119  0.4275  0.4940
 4885TIP3    H136070   1.362   3.534   5.510  2.5338  0.4574 -0.5222
 4885TIP3    H236071   1.342   3.407   5.590 -3.3462  1.7620  0.5827
 4886TIP3   OH236072   5.277   4.263   2.149  0.7150  0.0964 -0.8530
 4886TIP3    H136073   5.287   4.351   2.113 -0.4181  1.2585  1.5008
 4886TIP3    H236074   5.214   4.221   2.090  0.8395  1.0504 -1.6911
 4887TIP3   OH236075   1.903   0.585  16.875 -0.5921 -0.4210  0.2775
 4887TIP3    H136076   1.979   0.589  16.817  0.0136 -0.3878  1.0593
 4887TIP3    H236077   1.832   0.555  16.819 -0.2297  0.4578 -0.7018
 4888TIP3   OH236078   1.847   6.580  12.420 -0.1364 -0.5801 -0.3752
 4888TIP3    H136079   1.915   6.569  12.354  0.3346 -0.0801  0.0138
 4888TIP3    H236080   1.891   6.561  12.503 -0.9698 -2.1778 -0.2644
 4889TIP3   OH236081   4.839   1.875  16.430 -0.6845  0.2992  0.3843
 4889TIP3    H136082   4.862   1.937  16.361 -1.6625 -0.1140 -0.3374
 4889TIP3    H236083   4.856   1.789  16.391 -0.5078  0.0772  0.9386
 4890TIP3   OH236084   4.266   1.978   1.992  0.1937 -0.2354  0.4249
 4890TIP3    H136085   4.271   2.072   2.005  0.3351  0.0805 -1.5841
 4890TIP3    H236086   4.185   1.951   2.034  0.0170  0.8325  0.7758
 4891TIP3   OH236087   2.513   4.611   2.807  0.2028  0.1163 -0.1459
 4891TIP3    H136088   2.441   4.563   2.767 -0.4792  1.3531 -0.4249
 4891TIP3    H236089   2.540   4.556   2.881 -1.0158 -0.3706 -0.0403
 4892TIP3   OH236090   3.363   6.303  16.963  0.3581  0.3803 -0.3205
 4892TIP3    H136091   3.334   6.237  17.026  2.9537 -0.6142 -0.0221
 4892TIP3    H236092   3.360   6.258  16.878  3.1035 -0.6430 -0.0003
 4893TIP3   OH236093   5.349   5.579  16.888 -0.2377 -0.2403 -0.1183
 4893TIP3    H136094   5.424   5.533  16.853 -1.1029  0.0771 -2.5460
 4893TIP3    H236095   5.357   5.668  16.854 -1.1857  0.0646  0.4079
 4894TIP3   OH236096   3.638   5.166  13.821 -0.2463  0.8930  0.2197
 4894TIP3    H136097   3.695   5.099  13.858  0.5987  0.5571 -1.5982
 4894TIP3    H236098   3.556   5.119  13.802  0.3621  0.3201 -1.1019
 4895TIP3   OH236099   0.707   3.881   1.981  0.2161 -0.0389 -0.0552
 4895TIP3    H136100   0.700   3.927   2.064  2.5267 -1.8110  1.2597
 4895TIP3    H236101   0.642   3.810   1.987 -0.5736  0.6361 -0.3952
 4896TIP3   OH236102   4.530   5.851  10.991 -0.6894 -0.2239 -0.0449
 4896TIP3    H136103   4.453   5.795  10.996 -1.5054  0.9065  0.6226
 4896TIP3    H236104   4.499   5.930  10.947 -0.3275  0.8570  1.5648
 4897TIP3   OH236105   2.171   4.077  14.006 -0.4183  0.1952  0.3038
 4897TIP3    H136106   2.120   4.027  13.943  0.0626  1.0793 -0.8157
 4897TIP3    H236107   2.147   4.040  14.091 -0.6889 -1.3603 -0.4289
 4898TIP3   OH236108   3.180   2.370  14.820 -0.7284 -0.6266  0.0869
 4898TIP3    H136109   3.119   2.336  14.754  0.4143 -3.0897  0.1710
 4898TIP3    H236110   3.264   2.330  14.797  0.2995  0.5910  1.5062
 4899TIP3   OH236111   1.733   0.027  16.122 -0.3262  0.0973  0.7865
 4899TIP3    H136112   1.795   0.099  16.140 -0.1449 -0.1878  1.3276
 4899TIP3    H236113   1.776  -0.024  16.054 -0.7776  0.8906 -0.1253
 4900TIP3   OH236114   0.892   5.444  15.484  0.2016  0.4179  0.2149
 4900TIP3    H136115   0.987   5.447  15.469  0.8139 -1.3413  3.0223
 4900TIP3    H236116   0.864   5.364  15.439  0.1315  0.6428 -0.1469
 4901TIP3   OH236117   4.307   3.706  13.901  0.2202 -0.0555  0.3174
 4901TIP3    H136118   4.249   3.679  13.829 -0.1976  0.7576  0.3311
 4901TIP3    H236119   4.307   3.802  13.895  2.5585 -0.0497 -0.4667
 4902TIP3   OH236120   1.636   3.882  15.815 -0.1048  0.0526 -0.4399
 4902TIP3    H136121   1.544   3.856  15.817 -0.2745  0.5399 -1.3796
 4902TIP3    H236122   1.651   3.925  15.899 -0.5183 -0.7170  0.0410
 4903TIP3   OH236123   0.018   2.179   0.247  0.2662 -0.6001 -0.8050
 4903TIP3    H136124   0.086   2.165   0.313 -0.1820 -0.4679 -0.3058
 4903TIP3    H236125  -0.063   2.147   0.289  0.0448 -0.8898 -1.4428
 4904TIP3   OH236126   4.824   4.546   3.471  0.1011  0.1269 -0.1455
 4904TIP3    H136127   4.794   4.472   3.418  1.2768 -0.5090  0.0141
 4904TIP3    H236128   4.782   4.533   3.556  0.0892 -0.2177 -0.2015
 4905TIP3   OH236129   0.564   4.161  12.754  0.1037  0.1945  0.0447
 4905TIP3    H136130   0.587   4.096  12.687  0.3523  0.4286 -0.0983
 4905TIP3    H236131   0.612   4.133  12.832  0.2372  0.2298 -0.0262
 4906TIP3   OH236132   6.580   5.043  17.257  0.0174  0.1450  0.0773
 4906TIP3    H136133   6.486   5.051  17.239  0.2347 -0.2581 -1.3287
 4906TIP3    H236134   6.585   5.039  17.353 -1.2936  1.3411  0.2342
 4907TIP3   OH236135   2.017   1.698   1.431 -0.3483  0.0934 -0.1958
 4907TIP3    H136136   1.955   1.630   1.454 -0.1498  0.9035  3.2478
 4907TIP3    H236137   1.963   1.770   1.398 -1.0934  0.1092  1.0027
 4908TIP3   OH236138   4.660   5.549   4.836 -0.4685 -0.5980 -0.0415
 4908TIP3    H136139   4.688   5.576   4.924 -2.7107 -0.8154  0.8158
 4908TIP3    H236140   4.582   5.496   4.851 -1.1798 -0.2656 -2.1924
 4909TIP3   OH236141   2.772   0.900  10.719 -0.0241  0.0304  1.0335
 4909TIP3    H136142   2.683   0.922  10.694  0.4924  0.7235 -0.2742
 4909TIP3    H236143   2.763   0.821  10.772 -1.4611  0.4833  1.4913
 4910TIP3   OH236144   5.462   3.705  12.500 -0.1644  0.2644  0.1038
 4910TIP3    H136145   5.400   3.638  12.528 -0.9649  1.4479  1.2977
 4910TIP3    H236146   5.471   3.692  12.406 -0.5493 -1.2884  0.2612
 4911TIP3   OH236147   4.410   4.820  11.899  0.1754 -0.2105 -1.1999
 4911TIP3    H136148   4.327   4.806  11.853 -0.9414  0.4545  0.4967
 4911TIP3    H236149   4.444   4.902  11.862  0.6098 -0.9815 -2.5864
 4912TIP3   OH236150   5.251   1.798   0.001 -0.4417 -0.1397 -0.2049
 4912TIP3    H136151   5.301   1.794   0.082  2.1595 -2.0749 -1.7653
 4912TIP3    H236152   5.287   1.872  -0.047  0.3187 -0.9504 -0.9217
 4913TIP3   OH236153   2.136   6.688   3.117 -0.5202 -0.3888  0.0015
 4913TIP3    H136154   2.164   6.601   3.146 -0.2807 -0.7623 -1.3082
 4913TIP3    H236155   2.108   6.675   3.027  0.5709  1.1061 -0.5881
 4914TIP3   OH236156   2.490   5.114  13.735  0.1296  0.1534 -0.1634
 4914TIP3    H136157   2.569   5.066  13.710  0.6140  0.7801  0.1152
 4914TIP3    H236158   2.518   5.169  13.809 -0.4422  0.7370 -0.3696
 4915TIP3   OH236159   3.250   5.876  11.611 -0.0044  0.2122 -0.0450
 4915TIP3    H136160   3.293   5.937  11.551 -1.0638 -0.4989 -1.6121
 4915TIP3    H236161   3.322   5.826  11.650  0.8547  2.1884  1.0260
 4916TIP3   OH236162   0.295   1.599   5.599  0.2980 -0.3812  0.2593
 4916TIP3    H136163   0.377   1.552   5.584 -0.5029 -1.3733 -1.3127
 4916TIP3    H236164   0.263   1.620   5.511 -2.4305 -2.3967  0.6296
 4917TIP3   OH236165   1.924   1.631   6.134  0.9229  0.1034 -0.6761
 4917TIP3    H136166   2.013   1.617   6.166  0.9042  1.8284  0.2276
 4917TIP3    H236167   1.868   1.589   6.199  0.9744  1.9655  0.6609
 4918TIP3   OH236168   5.992   3.557   6.205  0.7347  0.8020 -0.3611
 4918TIP3    H136169   6.016   3.627   6.266 -0.0358  1.9893 -1.3887
 4918TIP3    H236170   5.932   3.598   6.143  1.4956 -0.3793 -1.9327
 4919TIP3   OH236171   2.102   5.955   5.005  0.1187  0.0349 -0.1439
 4919TIP3    H136172   2.165   5.964   5.076  0.5947 -0.3084 -0.5145
 4919TIP3    H236173   2.146   5.899   4.941 -0.9299 -0.9885  0.0107
 4920TIP3   OH236174   1.742   4.198  11.169  0.3352 -0.3128 -0.1903
 4920TIP3    H136175   1.796   4.123  11.144 -0.2665 -0.2037 -1.9439
 4920TIP3    H236176   1.794   4.274  11.145  0.4373 -0.1753  0.4538
 4921TIP3   OH236177   6.275   5.577  13.057 -0.6597 -0.0146 -0.1912
 4921TIP3    H136178   6.344   5.560  12.993 -0.2819  0.9661 -0.0615
 4921TIP3    H236179   6.241   5.490  13.080  1.1215 -0.5954  0.4058
 4922TIP3   OH236180   2.848   6.580  15.449 -0.8880 -0.2076 -0.0575
 4922TIP3    H136181   2.865   6.552  15.539  1.7876  1.3674  0.0505
 4922TIP3    H236182   2.905   6.524  15.396 -1.5481 -0.3171 -0.6643
 4923TIP3   OH236183   0.178   4.751   5.200 -0.2736  0.1891  0.6343
 4923TIP3    H136184   0.130   4.818   5.248 -0.1624  1.8170 -1.3879
 4923TIP3    H236185   0.267   4.784   5.194  0.0881 -0.7436  0.6589
 4924TIP3   OH236186   1.536   6.307   1.758  0.0714  0.2812  0.3289
 4924TIP3    H136187   1.471   6.245   1.790  0.8697 -0.5569  0.3367
 4924TIP3    H236188   1.572   6.266   1.679  0.7791  0.6176  0.4719
 4925TIP3   OH236189   4.409   0.769   2.063 -0.4757  0.0829 -0.6046
 4925TIP3    H136190   4.497   0.773   2.101 -0.5020 -3.8597  0.2533
 4925TIP3    H236191   4.423   0.770   1.969  0.3780  0.4438 -0.4809
 4926TIP3   OH236192   3.270   4.588   3.812 -0.0642 -0.3101  0.2623
 4926TIP3    H136193   3.292   4.635   3.893  2.2655 -1.7930  0.5550
 4926TIP3    H236194   3.213   4.649   3.765 -2.3061  0.2488  3.3767
 4927TIP3   OH236195   3.297   5.884  14.683  0.0746  0.4354  0.1327
 4927TIP3    H136196   3.385   5.858  14.657 -0.5792 -2.3917  0.4126
 4927TIP3    H236197   3.310   5.934  14.764  1.4716  1.5631 -0.7276
 4928TIP3   OH236198   4.080   3.590   0.193 -0.2548 -0.3821  0.2046
 4928TIP3    H136199   3.997   3.549   0.168 -1.3399  1.1411  1.1593
 4928TIP3    H236200   4.121   3.615   0.111 -0.9539 -0.7523 -0.2608
 4929TIP3   OH236201   6.229   2.356  16.835  0.2696  0.3218 -0.0069
 4929TIP3    H136202   6.258   2.269  16.861 -0.1403  0.2097  0.0849
 4929TIP3    H236203   6.134   2.354  16.846  0.2101  0.6402 -0.4264
 4930TIP3   OH236204   0.776   1.329  14.863  0.1318  0.1218 -0.1053
 4930TIP3    H136205   0.776   1.411  14.813  1.7556 -0.0939 -0.5238
 4930TIP3    H236206   0.697   1.284  14.833 -0.6785  1.4300 -0.0198
 4931TIP3   OH236207   4.032   1.495  12.476  0.4512  0.1893 -0.0938
 4931TIP3    H136208   4.037   1.448  12.560  0.8717  0.6876  0.1641
 4931TIP3    H236209   3.950   1.545  12.481 -0.1007 -0.6580 -0.4510
 4932TIP3   OH236210   1.424   1.275  12.421 -0.2991 -0.9525 -0.7958
 4932TIP3    H136211   1.384   1.298  12.505  0.0982 -0.0225 -0.8484
 4932TIP3    H236212   1.376   1.198  12.391  0.2748 -2.0005  0.8220
 4933TIP3   OH236213   5.441   5.416   3.517 -0.2442 -0.2677 -0.8751
 4933TIP3    H136214   5.425   5.381   3.605  0.3267 -0.2828 -0.7746
 4933TIP3    H236215   5.535   5.404   3.503 -0.3430 -0.3121 -1.5109
 4934TIP3   OH236216   3.792   1.197   4.840 -0.0801 -0.5462 -0.3760
 4934TIP3    H136217   3.850   1.179   4.914  0.0742  1.0657 -0.0794
 4934TIP3    H236218   3.730   1.261   4.874 -0.0017  0.2149 -1.6294
 4935TIP3   OH236219   2.574   5.999  12.676 -0.0369 -0.2602  0.2648
 4935TIP3    H136220   2.545   5.908  12.674  1.1577 -0.6464 -0.6184
 4935TIP3    H236221   2.662   5.996  12.715  0.0313  0.5087  0.1907
 4936TIP3   OH236222   5.751   6.737   0.605 -0.0475  0.0967  0.0676
 4936TIP3    H136223   5.829   6.788   0.583 -0.9413  1.1199 -0.8601
 4936TIP3    H236224   5.713   6.713   0.521 -0.5648 -0.6915  0.5036
 4937TIP3   OH236225   2.991   0.177  12.091  0.2571  0.0883  0.3774
 4937TIP3    H136226   3.028   0.089  12.083 -1.6598 -0.6446 -1.4729
 4937TIP3    H236227   2.897   0.164  12.079 -0.2067  2.2754  1.2382
 4938TIP3   OH236228   1.375   0.008   5.088 -0.7221  0.0316 -0.4744
 4938TIP3    H136229   1.307   0.070   5.112 -1.2197 -0.6790 -0.0001
 4938TIP3    H236230   1.416   0.045   5.010  0.1713  1.8501  0.7998
 4939TIP3   OH236231   1.746   6.129   3.733  0.1659 -0.5605  0.1290
 4939TIP3    H136232   1.740   6.144   3.638  2.0061  1.5769  0.2950
 4939TIP3    H236233   1.838   6.109   3.749  0.3488  1.2778  1.7050
 4940TIP3   OH236234   6.254   6.220  11.368  0.3555 -0.1666  1.3032
 4940TIP3    H136235   6.265   6.315  11.373 -0.3958 -0.0520  0.9232
 4940TIP3    H236236   6.272   6.189  11.457 -0.6900  0.4849  1.7590
 4941TIP3   OH236237   2.097   2.003  16.142 -0.5268 -0.0741 -0.3284
 4941TIP3    H136238   2.131   1.926  16.096 -0.1592 -0.5804  0.7534
 4941TIP3    H236239   2.175   2.042  16.183 -0.4530  1.7368 -2.0403
 4942TIP3   OH236240   5.328   4.434   3.169  0.4608  0.2133 -0.4693
 4942TIP3    H136241   5.368   4.394   3.092 -1.8269 -1.4539 -0.8815
 4942TIP3    H236242   5.234   4.422   3.157 -0.0281  0.9756  2.0136
 4943TIP3   OH236243   5.423   2.875  17.214 -0.4450 -0.4694 -0.0842
 4943TIP3    H136244   5.366   2.938  17.171 -1.2727 -0.3474  1.1328
 4943TIP3    H236245   5.503   2.923  17.233 -0.7605 -0.0041  0.0935
 4944TIP3   OH236246   4.048   6.220  16.026 -0.3146 -0.3559  0.9671
 4944TIP3    H136247   4.083   6.305  16.053 -1.7547 -0.0201  1.8673
 4944TIP3    H236248   3.967   6.241  15.980 -1.8076 -1.3214  3.0522
 4945TIP3   OH236249   3.660   0.728  13.093  0.3498  0.0573 -0.3593
 4945TIP3    H136250   3.748   0.711  13.059 -0.5107 -1.5857 -1.9070
 4945TIP3    H236251   3.662   0.694  13.182  1.6504  1.2980  0.1226
 4946TIP3   OH236252   4.449   0.559   2.504 -0.2933  0.2262  0.1602
 4946TIP3    H136253   4.461   0.620   2.431 -0.6536 -0.4615 -0.4923
 4946TIP3    H236254   4.426   0.476   2.462  1.8867 -0.8391  0.9080
 4947TIP3   OH236255   4.345   5.361  12.049 -0.0315  0.6811 -0.0393
 4947TIP3    H136256   4.274   5.297  12.055  0.6613 -0.0042  1.0580
 4947TIP3    H236257   4.425   5.309  12.051  0.5934  1.5862  2.1594
 4948TIP3   OH236258   2.374   2.311  11.081  0.1625  0.5403 -0.0510
 4948TIP3    H136259   2.339   2.326  10.993  1.9569 -0.7666 -1.0519
 4948TIP3    H236260   2.389   2.217  11.085 -0.1337  0.5295  1.7909
 4949TIP3   OH236261   0.898   6.085   2.520  0.7450 -0.3978 -0.1094
 4949TIP3    H136262   0.881   6.009   2.576 -1.5754  0.2986  0.2420
 4949TIP3    H236263   0.818   6.096   2.470  1.9981  0.2982 -2.0556
 4950TIP3   OH236264   4.914   0.426   5.494 -0.3875 -0.3935 -0.4298
 4950TIP3    H136265   4.857   0.499   5.518  0.5050  0.0075  0.4896
 4950TIP3    H236266   4.891   0.356   5.555  0.9415  0.1791  0.7650
 4951TIP3   OH236267   3.403   6.627   3.029 -0.5360 -0.0866  0.1839
 4951TIP3    H136268   3.457   6.575   2.968 -1.8325 -0.3291 -0.8092
 4951TIP3    H236269   3.462   6.695   3.061  0.8112 -1.2960  0.4096
 4952TIP3   OH236270   2.497   4.265  14.609 -0.1466  0.1071 -0.0938
 4952TIP3    H136271   2.444   4.335  14.646 -2.3704 -1.7239  0.4247
 4952TIP3    H236272   2.464   4.255  14.519  0.8447  0.3293 -0.5062
 4953TIP3   OH236273   2.477   4.441   2.541 -0.2360 -0.3129  0.8344
 4953TIP3    H136274   2.403   4.431   2.600 -0.4836  0.6959  0.7154
 4953TIP3    H236275   2.472   4.532   2.511 -0.3167 -0.8873 -1.0192
 4954TIP3   OH236276   5.952   1.455   4.454  0.0377 -0.3579 -0.2826
 4954TIP3    H136277   5.973   1.375   4.502  0.6839 -0.5164 -0.8075
 4954TIP3    H236278   6.029   1.470   4.399  1.2933  2.2846  1.9484
 4955TIP3   OH236279   1.542   0.530   6.294  0.4597 -0.1641  0.0217
 4955TIP3    H136280   1.526   0.524   6.199 -0.8770  1.1116  0.1412
 4955TIP3    H236281   1.515   0.445   6.328 -2.4231  0.5169 -0.3413
 4956TIP3   OH236282   1.162   1.437  12.390 -0.4410  0.5144 -0.3100
 4956TIP3    H136283   1.251   1.405  12.403 -0.9790 -1.5013 -1.1587
 4956TIP3    H236284   1.145   1.493  12.466  1.1765  0.1076  0.3846
 4957TIP3   OH236285   1.603   6.546  13.309 -0.4045  0.3874  0.1222
 4957TIP3    H136286   1.693   6.538  13.340  0.6797 -1.9017 -3.0202
 4957TIP3    H236287   1.550   6.546  13.388  2.2372 -0.2203  2.0368
 4958TIP3   OH236288   4.868   2.968   0.784  0.1061 -0.2616  0.4200
 4958TIP3    H136289   4.782   2.939   0.752  0.4400 -1.1502  0.2887
 4958TIP3    H236290   4.852   3.054   0.821 -0.9993 -0.7457  1.1148
 4959TIP3   OH236291   6.613   3.189   5.160 -0.0367 -0.2679 -0.2144
 4959TIP3    H136292   6.568   3.254   5.215  2.7675  0.2740  1.6518
 4959TIP3    H236293   6.588   3.105   5.199 -0.9839 -0.1085 -0.4624
 4960TIP3   OH236294   6.599   6.491   1.273 -0.1909  0.4979  0.2418
 4960TIP3    H136295   6.568   6.533   1.353 -0.2712  0.7195  0.0952
 4960TIP3    H236296   6.529   6.507   1.209 -0.5278 -0.4037  0.3556
 4961TIP3   OH236297   6.496   2.755   0.639 -0.5547 -0.7095 -0.2805
 4961TIP3    H136298   6.438   2.725   0.569  1.6026 -2.0945 -1.5719
 4961TIP3    H236299   6.515   2.676   0.690 -1.9494  0.2379  1.8599
 4962TIP3   OH236300   2.380   1.192   4.408  0.3976 -0.4168  0.5519
 4962TIP3    H136301   2.403   1.236   4.490  0.0655 -2.0852  1.5860
 4962TIP3    H236302   2.461   1.191   4.358  0.3123  1.7708  0.2361
 4963TIP3   OH236303   6.669   1.929  11.803  0.0641  0.3521  0.0321
 4963TIP3    H136304   6.576   1.911  11.793 -0.2000  1.7796 -0.1634
 4963TIP3    H236305   6.676   2.024  11.807  1.4127  0.2375  1.1395
 4964TIP3   OH236306   0.741   0.233   3.304  0.8487  0.4315 -1.4267
 4964TIP3    H136307   0.794   0.308   3.277 -1.0159  2.3903 -0.0434
 4964TIP3    H236308   0.740   0.238   3.399 -2.4758  1.1418 -1.3652
 4965TIP3   OH236309   6.153   1.070  14.661 -0.2613 -0.2598 -0.0849
 4965TIP3    H136310   6.138   1.048  14.570 -0.9034 -1.1544  0.2226
 4965TIP3    H236311   6.118   1.158  14.671 -0.6682 -0.3636 -0.5757
 4966TIP3   OH236312   6.350   3.379  12.301 -0.0817  0.4463 -0.0816
 4966TIP3    H136313   6.420   3.435  12.267 -0.1492 -0.6471 -2.1091
 4966TIP3    H236314   6.392   3.294  12.315 -0.5755  0.2993  0.5675
 4967TIP3   OH236315   1.726   5.428   1.875  0.2610  0.2685 -0.0392
 4967TIP3    H136316   1.786   5.355   1.887  0.4044  0.2145 -1.0286
 4967TIP3    H236317   1.689   5.443   1.962 -1.5054 -2.4962 -0.1872
 4968TIP3   OH236318   5.790   6.752   4.147  0.5746 -0.0006 -0.4512
 4968TIP3    H136319   5.817   6.748   4.056 -0.0351 -1.6211 -0.5881
 4968TIP3    H236320   5.701   6.717   4.148 -0.1278  1.6613  0.5322
 4969TIP3   OH236321   0.458   0.776   6.344 -0.1312 -0.1514 -0.4452
 4969TIP3    H136322   0.512   0.762   6.421  1.3363 -1.0608 -1.5874
 4969TIP3    H236323   0.468   0.869   6.324 -0.4094  0.0577  0.3527
 4970TIP3   OH236324   3.773   4.534   0.576 -0.4292  0.4301  1.0312
 4970TIP3    H136325   3.845   4.491   0.621 -0.0460  0.8691  0.8430
 4970TIP3    H236326   3.748   4.472   0.507 -0.2336  0.2755  1.0972
 4971TIP3   OH236327   1.034   4.359   1.951  0.0504 -0.1375 -0.1483
 4971TIP3    H136328   1.101   4.315   1.898 -2.4089 -0.7209 -3.0415
 4971TIP3    H236329   0.957   4.363   1.894 -1.8492  2.1891  2.3137
 4972TIP3   OH236330   5.432   0.558   5.990 -0.1314 -0.2100 -0.0449
 4972TIP3    H136331   5.418   0.513   6.073 -0.4821 -1.7735 -0.9211
 4972TIP3    H236332   5.345   0.583   5.960  0.0479  1.0240  0.3758
 4973TIP3   OH236333   2.553   0.391   0.694 -0.4405 -0.2714  0.4013
 4973TIP3    H136334   2.589   0.406   0.606  0.3729  0.1637  0.7949
 4973TIP3    H236335   2.459   0.402   0.684 -0.5700 -2.1497 -0.8180
 4974TIP3   OH236336   3.104   3.665   1.971  0.8515  0.1099  0.5862
 4974TIP3    H136337   3.013   3.697   1.973  0.4875 -0.9028  2.6166
 4974TIP3    H236338   3.153   3.736   1.931 -0.9307  0.3652 -1.3268
 4975TIP3   OH236339   0.586   2.425  13.387  0.4651 -0.2651 -0.2193
 4975TIP3    H136340   0.649   2.353  13.397  0.6638 -0.2990 -1.5589
 4975TIP3    H236341   0.638   2.504  13.401  1.0753 -0.2435 -2.1899
 4976TIP3   OH236342   6.071   3.770   2.458 -0.3648  0.1592  0.0996
 4976TIP3    H136343   5.981   3.741   2.474  0.0262 -1.0185  0.2394
 4976TIP3    H236344   6.121   3.737   2.532  0.9663 -3.0220 -2.0051
 4977TIP3   OH236345   4.903   0.731  15.199  0.3417 -0.4417  0.5365
 4977TIP3    H136346   4.816   0.757  15.166  0.4012 -1.7783 -0.7558
 4977TIP3    H236347   4.893   0.732  15.295 -0.7833  0.4240  0.4380
 4978TIP3   OH236348   5.076   4.218  11.583  0.3812  0.3021 -0.4691
 4978TIP3    H136349   5.172   4.220  11.585  0.3822  1.5251  1.9716
 4978TIP3    H236350   5.054   4.135  11.626  0.3410  0.0667 -0.9425
 4979TIP3   OH236351   0.423   4.734   3.197 -0.0813  0.2329 -0.1106
 4979TIP3    H136352   0.446   4.643   3.217 -0.1072  0.4981  1.2477
 4979TIP3    H236353   0.330   4.731   3.173  0.9921 -0.7650 -5.0851
 4980TIP3   OH236354   4.105   6.757  15.367  0.0689  0.5144  0.4088
 4980TIP3    H136355   4.015   6.723  15.365  0.2023  0.1399 -1.7163
 4980TIP3    H236356   4.158   6.683  15.338  0.6390  1.7576 -1.9121
 4981TIP3   OH236357   5.758   3.562   1.861  0.7933  0.5285  0.5076
 4981TIP3    H136358   5.817   3.613   1.916  1.2241  0.3179  0.2498
 4981TIP3    H236359   5.700   3.626   1.821  0.3647  0.6669  1.3314
 4982TIP3   OH236360   4.651   3.575  16.043  0.5619 -0.1193  0.3193
 4982TIP3    H136361   4.681   3.562  16.134 -2.2536 -1.7252  1.1225
 4982TIP3    H236362   4.639   3.670  16.036  1.5492  0.1093  1.3458
 4983TIP3   OH236363   2.606   4.821  12.663 -0.3465  0.0826  0.3724
 4983TIP3    H136364   2.538   4.764  12.627 -0.6166  0.7529 -0.1827
 4983TIP3    H236365   2.670   4.760  12.700 -1.1682 -0.5591  0.7793
 4984TIP3   OH236366   5.571   4.612  16.793  0.4946 -0.2461 -0.3276
 4984TIP3    H136367   5.540   4.614  16.884  0.0031  0.2201 -0.5036
 4984TIP3    H236368   5.596   4.703  16.775  2.3572 -0.6502 -0.0620
 4985TIP3   OH236369   0.060   2.616  11.919  0.9011  0.0699  0.0385
 4985TIP3    H136370  -0.029   2.648  11.903  1.3233  0.8132 -0.9184
 4985TIP3    H236371   0.060   2.591  12.011 -0.5736 -0.8553 -0.1758
 4986TIP3   OH236372   6.342   4.261   3.992 -0.1167  0.0564 -0.2093
 4986TIP3    H136373   6.408   4.323   3.963  0.7977 -0.2092  1.2431
 4986TIP3    H236374   6.302   4.302   4.068 -0.7607 -0.3488 -0.3216
 4987TIP3   OH236375   5.029   3.030  13.509  0.4690 -0.6740  0.1261
 4987TIP3    H136376   5.118   3.031  13.474  1.3110 -1.2320  2.1143
 4987TIP3    H236377   5.014   2.939  13.534  0.0195 -0.2758  1.4101
 4988TIP3   OH236378   1.723   0.862  11.697 -0.2485 -0.2293 -0.3935
 4988TIP3    H136379   1.684   0.949  11.692 -0.4297 -0.3848 -2.5539
 4988TIP3    H236380   1.732   0.845  11.791 -1.9631  1.3258  0.1127
 4989TIP3   OH236381   4.689   3.340   3.152  0.0459 -0.3300  0.5063
 4989TIP3    H136382   4.699   3.429   3.186  3.8301 -0.2309 -0.3923
 4989TIP3    H236383   4.678   3.352   3.058 -0.3000 -0.7880  0.4890
 4990TIP3   OH236384   6.404   4.290  14.701 -0.3499 -0.3462 -0.4123
 4990TIP3    H136385   6.384   4.363  14.643  0.3848 -1.1703 -1.7514
 4990TIP3    H236386   6.319   4.250  14.720 -0.7490  0.7683  0.2559
 4991TIP3   OH236387   6.147   4.602   2.228  0.2583 -0.8516 -0.7121
 4991TIP3    H136388   6.156   4.517   2.271  0.2955 -0.0770  0.8774
 4991TIP3    H236389   6.152   4.582   2.135 -0.3668 -2.6587 -0.3959
 4992TIP3   OH236390   5.914   2.984   5.705  0.3211  0.4822  0.4425
 4992TIP3    H136391   5.902   2.889   5.699  3.1709 -0.1377  2.3387
 4992TIP3    H236392   5.874   3.019   5.625  1.0088 -2.5097 -1.3597
 4993TIP3   OH236393   0.902   5.595  13.936  0.2596  0.3509  0.1415
 4993TIP3    H136394   0.863   5.513  13.965 -1.6417  1.0551 -0.2716
 4993TIP3    H236395   0.950   5.573  13.856  2.6234 -0.9413  1.8019
 4994TIP3   OH236396   4.092   6.290   2.073 -0.5257 -0.3728 -0.2898
 4994TIP3    H136397   4.007   6.277   2.115 -0.7253  0.8226 -0.2711
 4994TIP3    H236398   4.086   6.378   2.035  0.9690  0.0358  0.3568
 4995TIP3   OH236399   1.135   6.565  14.565 -0.0169 -0.1283  0.1553
 4995TIP3    H136400   1.228   6.575  14.585  0.1482  0.4992 -0.8490
 4995TIP3    H236401   1.112   6.645  14.518 -1.3038  0.1507  1.1916
 4996TIP3   OH236402   0.026   3.961  16.241 -0.1805  0.1088  0.0744
 4996TIP3    H136403   0.116   3.986  16.264  0.2070 -1.2427  0.1189
 4996TIP3    H236404  -0.019   3.955  16.325 -0.8836  2.6423 -0.0320
 4997TIP3   OH236405   4.673   0.982   5.329  0.4576  0.3644  0.0085
 4997TIP3    H136406   4.736   0.967   5.400 -1.3827  1.0250  1.8821
 4997TIP3    H236407   4.709   1.056   5.281  0.7064  1.3293  1.5946
 4998TIP3   OH236408   2.107   4.006   3.706 -0.5606 -0.0340  0.1673
 4998TIP3    H136409   2.105   4.078   3.643  2.2546  0.3865  0.4278
 4998TIP3    H236410   2.195   3.970   3.699 -1.0415 -1.7616  1.9590
 4999TIP3   OH236411   6.760   5.127  15.287  0.1104 -0.2966 -0.3731
 4999TIP3    H136412   6.695   5.057  15.281 -0.9548  0.6384 -0.2881
 4999TIP3    H236413   6.785   5.129  15.380 -1.3782  0.7186  0.0403
 5000TIP3   OH236414   0.807   0.225   5.129  0.1380  0.1114 -0.1233
 5000TIP3    H136415   0.839   0.150   5.180  1.8603  0.4249 -0.6645
 5000TIP3    H236416   0.712   0.216   5.129  0.1219 -0.2948  2.5116
 5001TIP3   OH236417   4.765   4.961  13.220  0.4807 -0.1351 -0.0250
 5001TIP3    H136418   4.721   5.041  13.248  0.2318 -0.6538  1.0979
 5001TIP3    H236419   4.704   4.891  13.240  0.8219 -0.6488 -0.7123
 5002TIP3   OH236420   1.091   0.980  13.430  0.5402  0.0219  0.1774
 5002TIP3    H136421   1.079   1.029  13.348  2.5093 -0.3290 -0.3501
 5002TIP3    H236422   1.024   0.912  13.426 -2.9923  3.0385  1.3644
 5003TIP3   OH236423   1.025   3.236  15.627 -0.3797  0.2185 -0.3671
 5003TIP3    H136424   0.972   3.315  15.615 -0.7865  0.3097  1.7595
 5003TIP3    H236425   0.996   3.200  15.711 -0.3391 -2.3237 -1.3559
 5004TIP3   OH236426   6.156   5.869   4.517  0.3571  0.3962  0.1539
 5004TIP3    H136427   6.091   5.938   4.526  1.9748  2.2343 -1.3175
 5004TIP3    H236428   6.210   5.896   4.443  3.3506 -0.4987  1.8041
 5005TIP3   OH236429   1.863   4.546   0.940  0.0382 -0.5288 -0.1520
 5005TIP3    H136430   1.955   4.532   0.918 -0.4078 -0.5510 -2.2420
 5005TIP3    H236431   1.839   4.626   0.895 -0.7269  0.0689  1.2451
 5006TIP3   OH236432   1.259   4.557  12.453 -0.2261 -0.2922 -0.3615
 5006TIP3    H136433   1.297   4.597  12.375  1.0001 -1.5396 -0.4530
 5006TIP3    H236434   1.327   4.567  12.520 -1.0669  0.3249  0.4158
 5007TIP3   OH236435   2.092   0.940  16.126  0.3154 -0.5390  0.2063
 5007TIP3    H136436   2.089   1.036  16.137  0.5494 -0.5409  0.2848
 5007TIP3    H236437   2.005   0.918  16.093  0.3551 -0.2621 -0.1022
 5008TIP3   OH236438   0.757   3.529   0.519  0.2716  0.4297  0.2321
 5008TIP3    H136439   0.847   3.554   0.497  0.2656  0.9851  0.8226
 5008TIP3    H236440   0.754   3.529   0.614 -1.1483  3.5380  0.3159
 5009TIP3   OH236441   6.753   1.727   2.166 -0.4402  0.2597 -0.4797
 5009TIP3    H136442   6.786   1.649   2.121  0.1820  0.1722  0.1099
 5009TIP3    H236443   6.707   1.692   2.242 -0.7489  0.4418 -0.5843
 5010TIP3   OH236444   0.483   6.669   4.483  0.0612 -0.2168 -0.1831
 5010TIP3    H136445   0.498   6.750   4.435  0.3875  0.3179  0.7920
 5010TIP3    H236446   0.565   6.653   4.529  0.5099 -1.8742 -1.4358
 5011TIP3   OH236447   4.863   2.865   5.537  0.0526  0.2436 -0.5895
 5011TIP3    H136448   4.775   2.839   5.563 -0.1101 -2.4136 -3.2102
 5011TIP3    H236449   4.919   2.840   5.611 -1.2918  2.0013  1.1181
 5012TIP3   OH236450   2.061   5.912   4.534 -0.2668  0.0599  0.1847
 5012TIP3    H136451   2.146   5.873   4.555 -0.6431 -1.4000 -0.9066
 5012TIP3    H236452   2.083   5.999   4.501  0.8197 -0.3584 -0.2427
 5013TIP3   OH236453   4.489   5.754   6.098 -0.1176  0.0528  0.6557
 5013TIP3    H136454   4.437   5.832   6.117 -0.0973 -0.4130  3.0036
 5013TIP3    H236455   4.427   5.681   6.108  0.1727 -0.3029 -0.1267
 5014TIP3   OH236456   0.019   1.318   6.011 -0.0662  0.9718 -0.2584
 5014TIP3    H136457   0.077   1.274   6.073  1.5931  1.8164 -1.1200
 5014TIP3    H236458  -0.050   1.255   5.993 -2.0333  1.4909  4.1671
 5015TIP3   OH236459   4.976   1.257   3.271  0.3736  0.7172 -0.1038
 5015TIP3    H136460   4.928   1.317   3.213 -0.6978  1.6051  1.6232
 5015TIP3    H236461   4.945   1.170   3.245  2.6940  0.6794 -3.3293
 5016TIP3   OH236462   4.371   5.529  16.145  0.0750 -0.5526  0.2625
 5016TIP3    H136463   4.433   5.589  16.185 -2.2562  1.6761  0.7719
 5016TIP3    H236464   4.387   5.445  16.189  1.2832  0.4550  1.8589
 5017TIP3   OH236465   0.020   1.210   2.737 -0.4140  0.3070  0.7675
 5017TIP3    H136466   0.097   1.243   2.691  0.4736 -1.3980  0.9460
 5017TIP3    H236467   0.042   1.220   2.830  1.2021 -3.3549  0.9374
 5018TIP3   OH236468   1.048   5.206  14.212 -0.1312  0.4311  0.4430
 5018TIP3    H136469   1.117   5.171  14.268  0.8795  1.8732  0.1212
 5018TIP3    H236470   1.093   5.248  14.139 -1.3671  0.6514 -0.2331
 5019TIP3   OH236471   1.717   2.524  16.205 -0.4015 -0.4280 -0.2368
 5019TIP3    H136472   1.758   2.486  16.128 -0.7698  0.0493 -0.6715
 5019TIP3    H236473   1.777   2.594  16.232  1.8910 -3.1130  2.3700
 5020TIP3   OH236474   1.669   4.376  16.871  0.1581  0.6280  0.0302
 5020TIP3    H136475   1.628   4.408  16.791 -0.6653 -1.0536 -0.2695
 5020TIP3    H236476   1.644   4.283  16.875  0.6054  0.5568  1.9683
 5021TIP3   OH236477   2.706   3.865   3.410  0.2683  0.2906  0.1731
 5021TIP3    H136478   2.715   3.840   3.502 -0.4251  0.2497  0.2293
 5021TIP3    H236479   2.630   3.922   3.407  0.2961  0.3061 -0.3777
 5022TIP3   OH236480   0.791   5.831  15.765 -0.1368 -0.7931  0.3777
 5022TIP3    H136481   0.788   5.909  15.709 -1.8083  0.2993  1.8966
 5022TIP3    H236482   0.755   5.761  15.710 -0.3931 -0.0719 -0.3926
 5023TIP3   OH236483   4.913   1.874   5.329  0.2320 -0.4510  0.0094
 5023TIP3    H136484   4.909   1.778   5.331  0.6056 -0.4523  2.0307
 5023TIP3    H236485   4.920   1.900   5.420  0.9479  1.4941 -0.5581
 5024TIP3   OH236486   3.310   5.049   0.376 -0.5952  0.1698 -0.1301
 5024TIP3    H136487   3.390   4.999   0.392 -0.7059 -0.1565 -0.5827
 5024TIP3    H236488   3.341   5.131   0.338 -0.3925  0.5911  0.8944
 5025TIP3   OH236489   3.224   6.612  11.695 -0.1346  0.0839  0.3758
 5025TIP3    H136490   3.172   6.579  11.768 -0.3341  0.9075  0.6216
 5025TIP3    H236491   3.311   6.576  11.709 -0.5107 -0.8876  0.2505
 5026TIP3   OH236492   6.262   6.404   5.552 -0.1382  0.0205  0.2971
 5026TIP3    H136493   6.258   6.308   5.557  2.0686 -0.0662  1.8792
 5026TIP3    H236494   6.177   6.433   5.584 -0.3383 -1.4097  1.1756
 5027TIP3   OH236495   6.429   1.472   3.742  0.1410 -0.1291  0.0465
 5027TIP3    H136496   6.383   1.482   3.659 -1.4508 -1.2007  0.7535
 5027TIP3    H236497   6.478   1.390   3.733 -0.3916 -0.4823  0.3072
 5028TIP3   OH236498   2.958   0.160   1.119  0.4677  0.0089  0.2937
 5028TIP3    H136499   2.884   0.119   1.164  0.8522 -1.3850 -0.2699
 5028TIP3    H236500   2.951   0.129   1.029 -0.4314  2.9378 -0.7392
 5029TIP3   OH236501   6.723   0.827   4.249 -0.4866 -0.0442  0.4595
 5029TIP3    H136502   6.768   0.899   4.293 -0.4448 -0.5764  1.3132
 5029TIP3    H236503   6.679   0.779   4.320  0.4380 -1.5276  0.0887
 5030TIP3   OH236504   2.060   4.802   1.459  0.0472 -0.8599  0.2736
 5030TIP3    H136505   2.075   4.708   1.449  0.6396 -0.7114 -0.3162
 5030TIP3    H236506   2.146   4.842   1.441 -0.0095 -0.2533  1.2851
 5031TIP3   OH236507   5.461   6.239   5.082  0.3065 -0.7783 -0.0473
 5031TIP3    H136508   5.372   6.257   5.112  0.8073  1.1187  0.4817
 5031TIP3    H236509   5.503   6.194   5.155  0.2231 -0.2459  0.3318
 5032TIP3   OH236510   6.735   1.018   1.459 -0.4217 -0.4188 -0.3305
 5032TIP3    H136511   6.758   0.929   1.433 -1.5577 -0.3452 -1.6725
 5032TIP3    H236512   6.654   1.008   1.509 -1.3149 -0.0313 -1.6657
 5033TIP3   OH236513   3.800   4.557   3.735 -0.0886 -0.1256 -0.1025
 5033TIP3    H136514   3.841   4.490   3.681  2.6527  1.1086  0.3196
 5033TIP3    H236515   3.726   4.588   3.682 -0.4397 -2.2756 -0.9890
 5034TIP3   OH236516   4.699   3.428   4.740  0.5250  0.6720 -0.2644
 5034TIP3    H136517   4.638   3.357   4.757  0.6789  0.8315  1.0446
 5034TIP3    H236518   4.751   3.435   4.820  2.4564  0.3587 -1.4443
 5035TIP3   OH236519   1.837   4.162  11.695 -0.7302 -0.3354 -0.4354
 5035TIP3    H136520   1.792   4.207  11.767  1.8503  2.0713 -0.1533
 5035TIP3    H236521   1.789   4.191  11.617 -1.7497 -0.5923  0.0712
 5036TIP3   OH236522   3.349   3.973  16.826 -0.3076 -0.0315 -0.2537
 5036TIP3    H136523   3.368   4.019  16.908  1.2932 -2.0885  0.6360
 5036TIP3    H236524   3.382   4.031  16.757  0.2178  0.8300  0.6976
 5037TIP3   OH236525   0.643   0.385  13.823 -0.0778  0.0740  0.8952
 5037TIP3    H136526   0.692   0.327  13.765 -0.2606 -1.3187  2.0714
 5037TIP3    H236527   0.631   0.466  13.773  2.5860  0.1332  0.2321
 5038TIP3   OH236528   5.664   5.413   3.834 -0.4518 -0.2793  0.0516
 5038TIP3    H136529   5.647   5.443   3.745 -0.0773 -0.0850  0.0418
 5038TIP3    H236530   5.696   5.323   3.823  2.1303  0.5806 -0.2521
 5039TIP3   OH236531   0.842   0.400  11.432  0.3045  0.5501 -0.1522
 5039TIP3    H136532   0.834   0.377  11.525  0.1589  1.9531  0.2109
 5039TIP3    H236533   0.767   0.358  11.391  1.0841 -1.1908  0.1049
 5040TIP3   OH236534   2.282   6.669  15.862 -0.3458 -0.1607 -0.3487
 5040TIP3    H136535   2.246   6.628  15.783  1.1253 -1.5421 -0.3507
 5040TIP3    H236536   2.377   6.670  15.847 -0.1821  1.3692  0.5779
 5041TIP3   OH236537   5.501   6.039   6.114  0.2932 -0.8090  0.6775
 5041TIP3    H136538   5.591   6.041   6.081 -0.3151  0.7044 -1.0318
 5041TIP3    H236539   5.478   5.946   6.114  0.6296 -0.9916 -2.5394
 5042TIP3   OH236540   0.188   3.194  14.986 -0.3123 -0.7248  0.2645
 5042TIP3    H136541   0.253   3.145  14.935 -1.6271 -1.6462 -0.5715
 5042TIP3    H236542   0.153   3.258  14.925 -0.1309 -0.1545  0.7469
 5043TIP3   OH236543   6.136   5.557   4.429 -0.3732 -0.0063  0.5317
 5043TIP3    H136544   6.104   5.476   4.389 -0.9435  0.7444 -0.5815
 5043TIP3    H236545   6.081   5.568   4.507 -2.4224  0.8465 -0.9212
 5044TIP3   OH236546   0.584   3.626   5.448  0.1492 -0.2022 -0.0730
 5044TIP3    H136547   0.638   3.682   5.504  0.3556 -0.7964  0.3298
 5044TIP3    H236548   0.498   3.669   5.446  0.2331 -0.0109  0.4366
 5045TIP3   OH236549   6.577   5.097   5.230  0.4210 -0.5467  0.1411
 5045TIP3    H136550   6.651   5.102   5.169 -0.2915 -1.1421 -0.7848
 5045TIP3    H236551   6.512   5.157   5.194 -0.6630 -2.1138 -0.6474
 5046TIP3   OH236552   5.032   5.850   4.345  0.1891 -0.5834  0.0133
 5046TIP3    H136553   5.019   5.939   4.312  0.1441 -0.7312 -0.3675
 5046TIP3    H236554   4.946   5.809   4.336  0.3351 -0.8248 -0.2934
 5047TIP3   OH236555   3.804   1.995  16.012  0.3388  0.1069 -0.0051
 5047TIP3    H136556   3.860   2.070  16.033  1.0152 -0.3402 -0.1851
 5047TIP3    H236557   3.766   2.016  15.926  1.6478 -0.3734 -0.7347
 5048TIP3   OH236558   4.235   1.261  15.617  0.3388  0.6446  0.3548
 5048TIP3    H136559   4.200   1.216  15.540  1.9819  0.4069 -0.2876
 5048TIP3    H236560   4.270   1.191  15.672  1.5486  0.9949  0.0562
 5049TIP3   OH236561   5.856   5.552   1.739  0.1488  0.3763 -0.2813
 5049TIP3    H136562   5.819   5.473   1.701 -0.0745  1.0232 -1.4552
 5049TIP3    H236563   5.833   5.622   1.677  1.0880  1.2188  0.2890
 5050TIP3   OH236564   2.780   3.331  17.261  0.5351  0.0655 -0.0348
 5050TIP3    H136565   2.845   3.397  17.284 -0.3758  0.5224  1.3014
 5050TIP3    H236566   2.741   3.362  17.179  2.1809 -0.3814 -1.0389
 5051TIP3   OH236567   1.122   0.852   4.617 -0.3364  0.0996 -0.6607
 5051TIP3    H136568   1.090   0.868   4.706 -1.9088 -0.1473 -1.1615
 5051TIP3    H236569   1.047   0.815   4.570  1.1836 -2.2954 -1.4094
 5052TIP3   OH236570   6.717   1.561  13.949  1.0112 -0.4615  0.2437
 5052TIP3    H136571   6.778   1.633  13.934  1.0084  0.0034  2.2146
 5052TIP3    H236572   6.668   1.554  13.867  1.9217  0.8848 -0.4485
 5053TIP3   OH236573   3.514   3.995  10.972 -0.3352 -0.3093  0.7619
 5053TIP3    H136574   3.467   4.020  10.892 -0.7765 -1.2191  0.7289
 5053TIP3    H236575   3.537   3.903  10.958 -2.2731 -1.1498  2.5568
 5054TIP3   OH236576   6.576   0.953  16.896  0.2200 -0.3107  0.0041
 5054TIP3    H136577   6.587   0.882  16.832 -2.1848 -0.9792  0.2354
 5054TIP3    H236578   6.559   0.908  16.979  0.9293  0.5694  0.6487
 5055TIP3   OH236579   3.460   4.065   1.383 -0.3309 -0.2828  0.1284
 5055TIP3    H136580   3.447   4.128   1.453 -0.4667 -0.9270  0.6902
 5055TIP3    H236581   3.536   4.014   1.410 -0.5400 -0.7014 -0.0633
 5056TIP3   OH236582   3.453   1.649  13.612 -0.0119  0.2442 -0.4566
 5056TIP3    H136583   3.541   1.636  13.648  0.1889  2.2185 -0.1115
 5056TIP3    H236584   3.415   1.561  13.608  1.1832 -0.4233  1.4577
 5057TIP3   OH236585   1.947   2.255   5.997  0.1903 -0.2299  0.1813
 5057TIP3    H136586   1.941   2.308   5.917  0.5505 -2.4074 -1.3623
 5057TIP3    H236587   1.856   2.236   6.020 -0.0297 -3.4612 -2.5396
 5058TIP3   OH236588   0.698   4.911  13.168 -0.5402  0.4395 -0.1399
 5058TIP3    H136589   0.694   4.874  13.256 -2.5707  2.0984  0.5775
 5058TIP3    H236590   0.722   5.003  13.182 -2.7072  1.2262 -1.0466
 5059TIP3   OH236591   4.146   2.885   0.843 -0.6503 -0.0157 -0.1230
 5059TIP3    H136592   4.128   2.956   0.781 -0.5440 -1.1049 -1.4557
 5059TIP3    H236593   4.140   2.806   0.790  2.2400 -0.8392  0.5928
 5060TIP3   OH236594   3.749   4.807   1.067  0.7229 -0.0064  0.4662
 5060TIP3    H136595   3.807   4.764   1.130  1.3250 -0.2211 -0.2243
 5060TIP3    H236596   3.743   4.745   0.995 -1.1352 -0.4245  0.9135
 5061TIP3   OH236597   3.228   5.929   3.669  0.1300  0.3123  0.5703
 5061TIP3    H136598   3.170   5.942   3.594  0.6054  1.7745  0.4267
 5061TIP3    H236599   3.302   5.879   3.634 -1.1057 -1.7824  0.8104
 5062TIP3   OH236600   3.211   5.108  13.980 -0.5019  0.0002 -0.7875
 5062TIP3    H136601   3.200   5.200  14.005  2.1453  0.1779  0.0125
 5062TIP3    H236602   3.278   5.110  13.912 -0.9326 -1.3133 -1.2723
 5063TIP3   OH236603   4.131   3.958   4.225  0.1551  0.0872 -0.0581
 5063TIP3    H136604   4.092   3.895   4.285 -0.1043 -1.2716 -1.5890
 5063TIP3    H236605   4.062   3.978   4.162  0.5367  1.1877 -0.1499
 5064TIP3   OH236606   2.655   4.877   5.849  0.0143 -0.2554  0.0300
 5064TIP3    H136607   2.727   4.837   5.800  0.6899  1.6048 -0.5973
 5064TIP3    H236608   2.584   4.813   5.844  0.9355 -1.2320 -1.1525
 5065TIP3   OH236609   0.940   1.031  17.221 -0.0163  0.1250 -0.5451
 5065TIP3    H136610   0.925   1.115  17.264  0.2460 -0.4066  0.6109
 5065TIP3    H236611   1.035   1.022  17.219 -0.0207  0.1751 -1.3236
 5066TIP3   OH236612   4.843   4.484  17.126  0.3765  0.0185  0.2335
 5066TIP3    H136613   4.817   4.433  17.050 -2.9511  1.5855  0.1158
 5066TIP3    H236614   4.878   4.420  17.188  1.2282 -1.5675 -1.8024
 5067TIP3   OH236615   1.672   0.870  14.360  0.6831 -0.0459  0.1208
 5067TIP3    H136616   1.579   0.855  14.379  0.4023 -0.4446 -1.4500
 5067TIP3    H236617   1.672   0.915  14.275  1.9679 -1.9494 -0.9632
 5068TIP3   OH236618   3.470   0.231  11.343 -0.1528 -0.6232  0.0128
 5068TIP3    H136619   3.422   0.167  11.291  0.6875 -0.2105 -1.3275
 5068TIP3    H236620   3.479   0.307  11.285  2.3473 -0.8008  0.0709
 5069TIP3   OH236621   3.930   5.220  11.616  0.0349  0.0539  0.5572
 5069TIP3    H136622   3.842   5.222  11.654 -0.1567  0.0516  0.1254
 5069TIP3    H236623   3.924   5.155  11.546  0.2292  0.4354  0.1780
 5070TIP3   OH236624   0.414   0.947  14.926  0.3797 -0.0842  0.3786
 5070TIP3    H136625   0.358   0.879  14.963 -0.0957  0.0906 -0.0052
 5070TIP3    H236626   0.491   0.948  14.982  0.7614 -1.4949 -0.0801
 5071TIP3   OH236627   2.077   2.355   5.390  0.2117 -0.6039  0.4074
 5071TIP3    H136628   2.089   2.319   5.302 -0.4890  1.5350 -0.6193
 5071TIP3    H236629   2.002   2.307   5.426  0.5680 -1.5651 -0.0884
 5072TIP3   OH236630   5.375   3.706  14.964  0.2525  0.8481 -0.3632
 5072TIP3    H136631   5.320   3.645  14.915 -0.5209  2.7081 -1.9847
 5072TIP3    H236632   5.335   3.792  14.948  2.4057  2.0325  0.1706
 5073TIP3   OH236633   2.152   5.530  12.019 -0.0798  0.1404 -0.2678
 5073TIP3    H136634   2.076   5.502  11.969  0.8779  0.9175 -2.2689
 5073TIP3    H236635   2.136   5.622  12.039  0.1197  0.1790 -0.2789
 5074TIP3   OH236636   4.102   2.162  14.402 -0.3467 -0.2558 -0.1283
 5074TIP3    H136637   4.052   2.140  14.481 -0.6742 -1.1310 -0.5671
 5074TIP3    H236638   4.090   2.087  14.344 -1.3717  1.0038 -1.6331
 5075TIP3   OH236639   5.924   5.047  14.985  0.2408 -0.1636 -0.2078
 5075TIP3    H136640   6.019   5.047  14.973  0.2826 -0.2965  0.1325
 5075TIP3    H236641   5.890   5.072  14.899  0.5351 -1.4828 -0.7213
 5076TIP3   OH236642   3.865   5.963  12.378  0.5152 -0.6187 -0.1459
 5076TIP3    H136643   3.842   6.037  12.322  2.6885  1.5242  1.5760
 5076TIP3    H236644   3.913   5.903  12.320  0.6079  0.3758 -1.1213
 5077TIP3   OH236645   4.364   6.608  14.510  0.2303 -0.0135  0.6270
 5077TIP3    H136646   4.415   6.687  14.523  1.0037  0.3710 -3.4355
 5077TIP3    H236647   4.426   6.536  14.525  0.7927  0.3110 -0.1306
 5078TIP3   OH236648   6.447   0.107  14.474  0.2905  0.1650  0.6289
 5078TIP3    H136649   6.433   0.014  14.452 -3.2900  0.8507 -0.6206
 5078TIP3    H236650   6.478   0.146  14.393  1.8170  0.1601  1.1627
 5079TIP3   OH236651   2.477   1.029  12.420  0.0130  0.9038  0.0987
 5079TIP3    H136652   2.403   0.981  12.382 -0.6198  1.4960  0.5619
 5079TIP3    H236653   2.552   0.973  12.403 -1.0815 -2.0317  3.5504
 5080TIP3   OH236654   4.198   0.033  13.475  0.4898 -0.1881  0.1406
 5080TIP3    H136655   4.277   0.055  13.523 -0.0287  1.4294  0.3170
 5080TIP3    H236656   4.216   0.061  13.385  0.2589 -0.1572  0.1028
 5081TIP3   OH236657   1.768   5.482  12.523 -0.1065 -0.5794 -0.0805
 5081TIP3    H136658   1.780   5.557  12.582  0.0859 -1.2147  0.6975
 5081TIP3    H236659   1.781   5.519  12.436  1.0497  0.0827  0.3440
 5082TIP3   OH236660   5.130   0.046   3.085 -0.1778 -0.0465  0.0849
 5082TIP3    H136661   5.192   0.025   3.155 -0.0852 -0.9380 -0.2554
 5082TIP3    H236662   5.154  -0.012   3.013  2.1654  3.3324 -2.1406
 5083TIP3   OH236663   1.366   4.855  16.593  0.0189  0.2684  0.4495
 5083TIP3    H136664   1.318   4.775  16.571  1.0430 -0.4473  0.7293
 5083TIP3    H236665   1.333   4.879  16.680  0.1142 -0.1815  0.6126
 5084TIP3   OH236666   0.907   3.293   5.507  0.7611 -0.1960  0.0182
 5084TIP3    H136667   0.869   3.325   5.426  0.0437 -2.7645 -0.7655
 5084TIP3    H236668   0.913   3.370   5.564 -2.2248  1.0166 -1.1346
 5085TIP3   OH236669   3.169   3.467  16.261 -0.2196  0.6170 -0.1348
 5085TIP3    H136670   3.208   3.529  16.322 -1.6659  1.2572  0.1836
 5085TIP3    H236671   3.231   3.393  16.257  1.6783  2.1604 -0.7354
 5086TIP3   OH236672   0.373   5.257  13.635  0.0715 -0.6257  0.2261
 5086TIP3    H136673   0.379   5.163  13.650  1.0903 -0.4896  0.7979
 5086TIP3    H236674   0.416   5.296  13.711 -0.2424  0.2987 -0.0554
 5087TIP3   OH236675   2.981   1.144   5.136 -0.4865 -0.1474  0.4652
 5087TIP3    H136676   2.954   1.055   5.114  0.4077  0.0078 -1.4057
 5087TIP3    H236677   2.974   1.193   5.054  0.7527  1.0635  1.0358
 5088TIP3   OH236678   3.126   2.611   0.288  0.4522 -0.1847 -0.1734
 5088TIP3    H136679   3.098   2.680   0.228  0.5508 -0.7232 -0.8371
 5088TIP3    H236680   3.051   2.552   0.295  0.9373 -0.9040 -0.9060
 5089TIP3   OH236681   2.368   3.471   4.632  0.5970 -0.6808  0.0206
 5089TIP3    H136682   2.336   3.464   4.722  1.5410 -0.1375  0.4180
 5089TIP3    H236683   2.462   3.487   4.642  0.2066  3.1621 -0.9228
 5090TIP3   OH236684   3.769   3.145  14.269  0.0427  0.1567 -0.3041
 5090TIP3    H136685   3.778   3.050  14.280 -0.3263  0.0187 -1.1559
 5090TIP3    H236686   3.723   3.173  14.348  0.2174 -0.3605 -0.0092
 5091TIP3   OH236687   4.391   6.303   3.960 -0.1193 -0.1174  0.4881
 5091TIP3    H136688   4.376   6.220   4.006  0.7994 -1.3399 -1.2887
 5091TIP3    H236689   4.363   6.286   3.870 -1.4601  2.0590  0.4233
 5092TIP3   OH236690   1.072   0.387   0.778  0.8005  0.1636  1.0848
 5092TIP3    H136691   1.131   0.340   0.837  0.5694 -1.4806  0.0697
 5092TIP3    H236692   1.014   0.319   0.743 -0.5587  1.4592  0.7064
 5093TIP3   OH236693   2.107   6.550  13.578 -1.0267 -0.1928 -0.9595
 5093TIP3    H136694   2.121   6.638  13.543 -0.8408  0.4928  0.7728
 5093TIP3    H236695   2.184   6.533  13.632 -1.4043 -1.1352 -0.6992
 5094TIP3   OH236696   3.881   2.286  14.316 -0.3594 -0.1686 -0.5890
 5094TIP3    H136697   3.863   2.243  14.399 -0.9918  2.3071  0.6711
 5094TIP3    H236698   3.976   2.299  14.315 -0.2079 -1.2511 -0.8339
 5095TIP3   OH236699   4.045   3.250  17.101  0.4690 -0.2067 -0.4560
 5095TIP3    H136700   4.067   3.223  17.191  1.0540 -2.4521 -1.1893
 5095TIP3    H236701   3.950   3.251  17.099  0.4468 -0.4976  0.0963
 5096TIP3   OH236702   4.660   6.585   2.341 -0.0104  0.0885 -0.5499
 5096TIP3    H136703   4.723   6.518   2.314 -1.3103 -0.8012 -1.4869
 5096TIP3    H236704   4.714   6.653   2.381  1.5136 -0.7680 -1.0460
 5097TIP3   OH236705   3.021   4.547   0.418  0.2947  0.3395  0.1327
 5097TIP3    H136706   3.078   4.554   0.495  0.9233 -2.9864  0.1238
 5097TIP3    H236707   2.944   4.499   0.450  0.2696 -0.5066 -1.1158
 5098TIP3   OH236708   4.838   0.793  15.864 -0.3679  0.7125 -0.0779
 5098TIP3    H136709   4.772   0.725  15.877  0.9605 -0.9445 -1.5069
 5098TIP3    H236710   4.803   0.848  15.793 -1.0296  0.9941  0.4543
 5099TIP3   OH236711   1.712   2.347  14.246 -0.1142 -0.5795  0.0457
 5099TIP3    H136712   1.743   2.261  14.272  3.4656  0.2747 -0.8168
 5099TIP3    H236713   1.639   2.365  14.304  1.0102 -2.8996  2.3847
 5100TIP3   OH236714   3.929   2.346   2.774 -0.3047  0.3763  0.4822
 5100TIP3    H136715   3.908   2.324   2.865 -1.2882  1.0689  0.4356
 5100TIP3    H236716   3.994   2.417   2.782  1.8392 -1.4745  0.6202
 5101TIP3   OH236717   5.865   4.524  17.319 -0.2197 -0.5022  0.2675
 5101TIP3    H136718   5.787   4.499  17.270 -0.2254 -1.0268  0.5393
 5101TIP3    H236719   5.854   4.483  17.405  0.8777 -1.5493 -0.0609
 5102TIP3   OH236720   5.526   6.668  11.870  0.1122  0.2013  0.9272
 5102TIP3    H136721   5.529   6.762  11.852 -0.1637  0.3030  1.4023
 5102TIP3    H236722   5.535   6.662  11.965 -0.1184 -0.2394  0.9209
 5103TIP3   OH236723   5.208   3.845  12.096 -0.3746 -0.1273 -0.4581
 5103TIP3    H136724   5.168   3.845  12.008  1.8034  1.7456 -1.5586
 5103TIP3    H236725   5.299   3.820  12.081  0.5568  2.1184  0.9418
 5104TIP3   OH236726   6.006   3.167  12.776 -0.3000 -0.4803 -0.7374
 5104TIP3    H136727   5.950   3.244  12.769 -0.9689 -0.9634 -0.8489
 5104TIP3    H236728   6.083   3.188  12.723 -0.6680 -0.0542 -1.1097
 5105TIP3   OH236729   1.564   1.156   5.093  0.6187  0.0510 -0.2797
 5105TIP3    H136730   1.542   1.092   5.162  2.6140 -0.2073  0.1864
 5105TIP3    H236731   1.498   1.225   5.103  0.2414 -0.4716  1.2329
 5106TIP3   OH236732   1.567   0.204   3.826 -0.1589 -0.3899 -0.4831
 5106TIP3    H136733   1.473   0.188   3.836 -0.3023  1.5427  2.6096
 5106TIP3    H236734   1.573   0.265   3.752 -1.4621  0.0582 -0.2501
 5107TIP3   OH236735   2.499   2.412  12.617 -0.1442 -0.1678 -0.2964
 5107TIP3    H136736   2.474   2.420  12.525 -0.2913  2.7437 -0.0905
 5107TIP3    H236737   2.591   2.387  12.615 -0.2497 -0.5188 -1.2211
 5108TIP3   OH236738   6.466   5.636  16.571 -0.0440 -0.3998 -0.3308
 5108TIP3    H136739   6.555   5.668  16.557 -0.4076  0.5294 -0.5430
 5108TIP3    H236740   6.411   5.696  16.522 -0.7608 -1.2379 -0.5733
 5109TIP3   OH236741   4.601   0.783   4.483 -0.1073  0.5676 -0.3953
 5109TIP3    H136742   4.662   0.800   4.410 -0.3661  1.5958 -0.3934
 5109TIP3    H236743   4.532   0.730   4.444  1.9487 -2.8189  0.1531
 5110TIP3   OH236744   2.649   1.297  13.123 -0.6549 -0.1884 -0.3233
 5110TIP3    H136745   2.736   1.330  13.103 -0.7913  0.3200 -0.1031
 5110TIP3    H236746   2.591   1.372  13.106 -1.3156 -1.0985 -2.5471
 5111TIP3   OH236747   0.094   5.723  11.361  0.6053  0.2853  0.2477
 5111TIP3    H136748   0.114   5.812  11.388 -0.2477  0.5496  0.0485
 5111TIP3    H236749   0.033   5.733  11.287 -1.0751 -0.4464  1.4652
 5112TIP3   OH236750   0.825   0.572  12.546  0.0020  0.6347 -0.1870
 5112TIP3    H136751   0.919   0.567  12.527  0.1522  4.3366 -1.2129
 5112TIP3    H236752   0.820   0.576  12.641  0.8047 -0.3445 -0.0901
 5113TIP3   OH236753   4.632   1.785  11.730  0.2792  0.1465  0.3021
 5113TIP3    H136754   4.667   1.738  11.805 -2.0327 -2.3470 -0.0230
 5113TIP3    H236755   4.562   1.839  11.766  1.1653  1.3557  0.2890
 5114TIP3   OH236756   3.431   3.255   0.521  0.0253  0.3459  0.1232
 5114TIP3    H136757   3.336   3.269   0.531  0.1968  1.1198  0.7690
 5114TIP3    H236758   3.458   3.211   0.601  0.2778  0.4671  0.1048
 5115TIP3   OH236759   6.526   4.552   5.379 -0.4955  0.6951  0.4764
 5115TIP3    H136760   6.615   4.519   5.373 -1.1183 -0.7859 -1.6358
 5115TIP3    H236761   6.479   4.487   5.432 -0.8759  0.1153 -0.5521
 5116TIP3   OH236762   1.221   1.894   0.105 -0.1012 -0.3270 -0.2703
 5116TIP3    H136763   1.265   1.973   0.074  0.0890 -0.9939 -1.8288
 5116TIP3    H236764   1.132   1.902   0.073  0.2479 -1.2990 -1.5983
 5117TIP3   OH236765   1.148   4.492  13.114 -0.0501 -0.4905  0.1855
 5117TIP3    H136766   1.210   4.462  13.047 -0.7352 -0.1631 -0.6142
 5117TIP3    H236767   1.165   4.586  13.121 -0.8739 -0.2748 -0.5119
 5118TIP3   OH236768   0.526   6.718   1.155  0.5665 -0.5417  0.1870
 5118TIP3    H136769   0.526   6.713   1.059 -2.4925 -1.7768  0.1611
 5118TIP3    H236770   0.470   6.646   1.183  0.2515  0.6289  2.8677
 5119TIP3   OH236771   3.361   3.705  11.770 -0.0097  0.3298  0.4967
 5119TIP3    H136772   3.403   3.734  11.689 -0.3035 -1.3826 -0.3076
 5119TIP3    H236773   3.389   3.769  11.836  0.5258  1.5484 -0.8640
 5120TIP3   OH236774   3.884   3.795  12.928  0.2615  0.4288 -0.8702
 5120TIP3    H136775   3.824   3.744  12.982  1.8708 -1.6949 -0.9738
 5120TIP3    H236776   3.826   3.841  12.867 -1.3950  0.5151  0.6744
 5121TIP3   OH236777   4.871   4.351   6.211 -0.0031 -0.3081 -0.1800
 5121TIP3    H136778   4.894   4.268   6.252 -0.9677 -0.9907 -0.9526
 5121TIP3    H236779   4.932   4.415   6.248  1.2923 -1.5055 -0.1675
 5122TIP3   OH236780   2.379   6.141  13.378 -0.2622  0.1538  0.5360
 5122TIP3    H136781   2.360   6.068  13.437  0.9657  1.6038  2.9112
 5122TIP3    H236782   2.438   6.104  13.312 -1.1025 -1.3828  0.6036
 5123TIP3   OH236783   1.201   6.108   5.078 -0.3861 -0.4133 -0.2131
 5123TIP3    H136784   1.199   6.017   5.049  0.8018 -1.0420  1.5050
 5123TIP3    H236785   1.114   6.125   5.113  0.1933 -1.9192  2.2064
 5124TIP3   OH236786   0.669   0.207   1.084  0.0923 -0.1038  0.2152
 5124TIP3    H136787   0.676   0.127   1.031 -1.2964 -0.2395  0.1992
 5124TIP3    H236788   0.626   0.270   1.026  0.7075  0.4951  0.4079
 5125TIP3   OH236789   1.198   2.403  11.310 -0.4231 -0.1858  0.1163
 5125TIP3    H136790   1.197   2.450  11.227  0.3442 -0.7374 -0.2286
 5125TIP3    H236791   1.285   2.421  11.346 -1.3826  1.5438  1.7145
 5126TIP3   OH236792   6.346   0.154   4.600  0.3467 -0.2755 -0.1719
 5126TIP3    H136793   6.397   0.168   4.521 -1.1207  0.6863 -0.9927
 5126TIP3    H236794   6.378   0.071   4.635  2.6769  0.4539 -0.4353
 5127TIP3   OH236795   3.677   0.263   1.877  0.1928  0.1515 -0.1744
 5127TIP3    H136796   3.644   0.239   1.790  0.1369  0.6728 -0.2980
 5127TIP3    H236797   3.725   0.345   1.863  0.1312  0.2717  0.2985
 5128TIP3   OH236798   6.680   0.636  11.611 -0.4286  0.4898  0.5961
 5128TIP3    H136799   6.764   0.643  11.566 -0.0184 -0.2327  1.2122
 5128TIP3    H236800   6.678   0.710  11.672  0.2482 -0.0950  1.3417
 5129TIP3   OH236801   3.176   0.712   4.247  0.5458 -0.5941  0.5522
 5129TIP3    H136802   3.236   0.759   4.190  0.0548  4.0092  3.3157
 5129TIP3    H236803   3.097   0.699   4.194  1.0010  1.1716 -0.6469
 5130TIP3   OH236804   5.303   4.794   3.529 -0.2749  0.5748 -0.1974
 5130TIP3    H136805   5.227   4.744   3.558  0.7760 -1.1628 -0.3191
 5130TIP3    H236806   5.344   4.740   3.462  0.9945  1.5456 -0.2456
 5131TIP3   OH236807   5.489   5.806   0.896 -0.1790 -0.3955  0.6211
 5131TIP3    H136808   5.420   5.872   0.889 -0.6323 -0.9743 -0.5022
 5131TIP3    H236809   5.444   5.722   0.893  0.2187 -0.8395  3.7953
 5132TIP3   OH236810   0.737   1.853  10.258  0.6725  0.0312 -0.2546
 5132TIP3    H136811   0.757   1.942  10.230 -2.3980  0.4153 -1.6215
 5132TIP3    H236812   0.667   1.863  10.322  0.1238 -1.3874 -0.5854
 5133TIP3   OH236813   1.065   2.214  14.704  0.2861 -0.4419  0.5005
 5133TIP3    H136814   0.979   2.190  14.737  0.0749 -2.0043 -1.0373
 5133TIP3    H236815   1.055   2.304  14.673 -1.1906 -0.9968 -0.7740
 5134TIP3   OH236816   0.107   5.539  12.065 -0.4137  0.0775  0.1611
 5134TIP3    H136817   0.063   5.530  11.980  0.1622  0.3609 -0.1746
 5134TIP3    H236818   0.199   5.556  12.043 -0.3774  0.8344  0.8314
 5135TIP3   OH236819   2.521   1.980   2.199 -0.1115  0.6393  0.0875
 5135TIP3    H136820   2.553   2.024   2.120 -0.7941  0.7308 -0.1447
 5135TIP3    H236821   2.598   1.973   2.255  0.5016  0.1068 -0.7924
 5136TIP3   OH236822   2.784   4.077   0.870 -0.0148 -0.1319 -0.3734
 5136TIP3    H136823   2.710   4.017   0.857 -0.3290 -0.3675  2.0834
 5136TIP3    H236824   2.851   4.023   0.912  0.1907  0.9121  0.6880
 5137TIP3   OH236825   6.220   3.783   0.780  0.1369 -0.0480  0.1452
 5137TIP3    H136826   6.264   3.763   0.862  0.5546  1.0321  0.1977
 5137TIP3    H236827   6.153   3.715   0.772  0.3379 -0.3916  1.1848
 5138TIP3   OH236828   1.342   5.234   0.850  0.4991 -0.2527  0.0679
 5138TIP3    H136829   1.316   5.142   0.857 -0.7413  0.0126 -0.7035
 5138TIP3    H236830   1.428   5.238   0.891  1.2363 -2.0455 -1.1885
 5139TIP3   OH236831   1.521   3.156   1.995 -0.1643 -0.3639  0.6448
 5139TIP3    H136832   1.464   3.112   1.931 -1.2221  0.9951  0.6255
 5139TIP3    H236833   1.484   3.243   2.005  3.1615  1.4965 -1.0964
 5140TIP3   OH236834   2.863   0.383   0.415  0.3074  0.2211  0.4222
 5140TIP3    H136835   2.783   0.424   0.446  0.5585 -0.0858  1.5224
 5140TIP3    H236836   2.914   0.366   0.494  0.6647 -1.2617 -0.0824
 5141TIP3   OH236837   6.355   1.487   3.437  0.0666  0.5504 -0.4108
 5141TIP3    H136838   6.352   1.582   3.434 -0.7996  0.5429 -0.2902
 5141TIP3    H236839   6.320   1.459   3.352  2.4388  0.3230 -1.3681
 5142TIP3   OH236840   1.661   1.248   0.462 -0.0928 -0.1792 -0.3599
 5142TIP3    H136841   1.677   1.154   0.446  0.2691 -0.3035  0.6494
 5142TIP3    H236842   1.670   1.288   0.376  0.4503 -0.9840 -0.6982
 5143TIP3   OH236843   1.584   4.862  14.174  0.0762 -0.0813 -0.2062
 5143TIP3    H136844   1.517   4.931  14.172  1.7697  1.6521  0.0618
 5143TIP3    H236845   1.667   4.909  14.172  1.3227 -2.1570 -0.3541
 5144TIP3   OH236846   2.028   6.244  13.832 -0.3040  0.5500  0.0356
 5144TIP3    H136847   2.111   6.202  13.811  0.0947  0.6670  1.2762
 5144TIP3    H236848   2.052   6.332  13.861 -0.9802  1.0389 -0.8455
 5145TIP3   OH236849   6.739   3.086  15.121 -0.1835  0.2861  0.0561
 5145TIP3    H136850   6.749   3.101  15.215 -0.2080 -0.9513  0.2792
 5145TIP3    H236851   6.825   3.105  15.084 -0.3218  1.3094  0.2426
 5146TIP3   OH236852   3.619   2.274  14.987 -0.6191  0.0781 -1.2189
 5146TIP3    H136853   3.607   2.361  14.949  0.9925  0.5110 -0.8058
 5146TIP3    H236854   3.627   2.289  15.081 -2.5477 -0.7848 -0.8495
 5147TIP3   OH236855   5.766   2.831  13.083  0.3864 -0.5877 -0.3061
 5147TIP3    H136856   5.850   2.828  13.037  2.2258  1.4095  2.6080
 5147TIP3    H236857   5.715   2.898  13.036  1.2007 -0.3584 -0.8798
 5148TIP3   OH236858   0.319   2.964  10.573 -0.2413 -0.3917 -0.0550
 5148TIP3    H136859   0.264   3.021  10.627 -0.1483  1.2880 -1.6563
 5148TIP3    H236860   0.386   3.022  10.537  0.8767 -1.8577 -0.4232
 5149TIP3   OH236861   5.317   0.743  13.496 -0.5189 -0.0139 -1.1203
 5149TIP3    H136862   5.272   0.745  13.581 -0.7672 -0.9440 -1.2174
 5149TIP3    H236863   5.342   0.834  13.480  1.1839 -0.0466  0.8414
 5150TIP3   OH236864   1.603   2.839  15.109  0.1322 -0.0803 -0.1391
 5150TIP3    H136865   1.557   2.823  15.026  0.3576 -0.5350 -0.1798
 5150TIP3    H236866   1.544   2.804  15.176 -0.4050  0.9903 -0.0349
 5151TIP3   OH236867   3.453   0.493   0.421 -0.1284 -0.0817  0.1175
 5151TIP3    H136868   3.448   0.466   0.513  2.1172 -1.8100 -0.1815
 5151TIP3    H236869   3.517   0.434   0.382 -1.6484  0.0104 -2.8185
 5152TIP3   OH236870   5.202   5.455   1.861 -0.8502  0.6041  0.3936
 5152TIP3    H136871   5.232   5.376   1.906 -1.7027  0.1891  0.2634
 5152TIP3    H236872   5.282   5.503   1.841 -0.0647 -1.3464 -1.5956
 5153TIP3   OH236873   1.251   2.214  15.674  0.0779  0.1745  0.2471
 5153TIP3    H136874   1.276   2.272  15.602 -0.4654 -0.5859 -0.5813
 5153TIP3    H236875   1.311   2.140  15.668 -2.2503 -1.7459 -1.8566
 5154TIP3   OH236876   2.899   5.162   4.099 -0.1799 -0.2033  0.6422
 5154TIP3    H136877   2.901   5.085   4.041  2.7416 -1.8276  2.6340
 5154TIP3    H236878   2.810   5.162   4.135 -0.7258 -1.7187 -0.5684
 5155TIP3   OH236879   1.500   6.065   4.618  0.5928 -0.1645  0.2990
 5155TIP3    H136880   1.444   5.991   4.594  0.9788 -0.5315  0.5073
 5155TIP3    H236881   1.506   6.060   4.714 -0.5623  1.0053  0.4647
 5156TIP3   OH236882   2.621   0.354   3.530  0.4340 -0.0012  0.3293
 5156TIP3    H136883   2.638   0.388   3.617  0.2706 -0.3175  0.4887
 5156TIP3    H236884   2.602   0.261   3.544 -0.2630  0.0901  0.0314
 5157TIP3   OH236885   0.394   2.132   4.324 -0.4641  0.3745  0.8552
 5157TIP3    H136886   0.473   2.125   4.271 -2.3620 -1.1584 -2.0619
 5157TIP3    H236887   0.413   2.083   4.404  0.8925 -1.6973 -0.6626
 5158TIP3   OH236888   1.075   6.329   6.260  0.0477 -0.7758  0.2012
 5158TIP3    H136889   1.074   6.253   6.318 -1.8760 -0.9838 -0.0386
 5158TIP3    H236890   1.033   6.398   6.312 -1.4798 -0.9010 -0.8152
 5159TIP3   OH236891   1.651   4.028  13.963 -0.3512  0.4776  0.2260
 5159TIP3    H136892   1.660   3.968  13.889  2.1554 -0.1148  0.9205
 5159TIP3    H236893   1.567   4.071  13.949 -0.9993 -1.2668 -1.7220
 5160TIP3   OH236894   3.791   6.281   4.752 -0.7732  0.4314  0.5607
 5160TIP3    H136895   3.867   6.338   4.752 -2.2889  2.5819 -0.0744
 5160TIP3    H236896   3.764   6.276   4.844  0.3486 -0.7343  0.8572
 5161TIP3   OH236897   6.478   2.063   4.056  0.5599 -0.7010 -0.2914
 5161TIP3    H136898   6.411   2.050   3.988 -2.3682  0.0961  2.2167
 5161TIP3    H236899   6.499   2.156   4.050  1.5960 -0.9617 -1.1144
 5162TIP3   OH236900   5.320   4.748   2.462 -0.1716  0.5061  0.6526
 5162TIP3    H136901   5.373   4.825   2.479  0.7567  0.0396  0.0146
 5162TIP3    H236902   5.250   4.779   2.405 -0.3538  1.0512  1.1648
 5163TIP3   OH236903   5.014   0.642   2.973 -0.0145  0.5201 -0.4596
 5163TIP3    H136904   4.975   0.729   2.962  1.3924  1.0283 -1.6639
 5163TIP3    H236905   5.108   0.658   2.980  0.5148 -1.0240 -2.8457
 5164TIP3   OH236906   3.092   0.022  12.440 -0.0539 -0.1042  1.1307
 5164TIP3    H136907   3.064   0.113  12.450 -0.6439 -0.2184  0.6025
 5164TIP3    H236908   3.029  -0.028  12.491 -0.9577 -0.3774 -0.1964
 5165TIP3   OH236909   4.816   5.241   0.258 -0.1404 -0.2025  0.1124
 5165TIP3    H136910   4.746   5.187   0.295  0.6774  0.0055  2.1386
 5165TIP3    H236911   4.851   5.288   0.334  0.5568  1.5790 -1.2510
 5166TIP3   OH236912   3.285   4.028  12.562 -0.1101  0.1958  0.3758
 5166TIP3    H136913   3.240   4.102  12.601 -2.0431 -0.2619 -0.8017
 5166TIP3    H236914   3.266   3.954  12.620  0.1451  0.2353  0.5113
 5167TIP3   OH236915   2.200   2.905   0.726  0.3890  0.4874 -0.7389
 5167TIP3    H136916   2.183   2.811   0.721  0.9965  0.2182  1.2606
 5167TIP3    H236917   2.249   2.916   0.807 -0.4643  2.6634 -0.4563
 5168TIP3   OH236918   4.694   5.867  15.387  0.2326 -0.4437 -0.0109
 5168TIP3    H136919   4.749   5.793  15.411  0.5159 -0.1649  0.2189
 5168TIP3    H236920   4.753   5.926  15.338 -0.4881 -1.3054 -2.0354
 5169TIP3   OH236921   4.803   3.608  13.754  0.0005 -0.1720  0.1599
 5169TIP3    H136922   4.750   3.649  13.823  0.3573  1.2698 -0.3915
 5169TIP3    H236923   4.892   3.639  13.770  0.4150 -1.2865  0.1140
 5170TIP3   OH236924   5.291   2.646  13.653  0.2708 -0.1731 -0.1933
 5170TIP3    H136925   5.348   2.589  13.602 -0.4913 -1.5771  0.4814
 5170TIP3    H236926   5.351   2.709  13.694  1.0112  0.2237 -1.8172
 5171TIP3   OH236927   4.728   5.519   5.749  0.1335 -0.3845  0.0266
 5171TIP3    H136928   4.757   5.435   5.715  1.5040 -0.8714  2.2316
 5171TIP3    H236929   4.633   5.519   5.737  0.1752 -2.0296 -0.4226
 5172TIP3   OH236930   6.346   3.007  11.664  0.3065 -0.2637 -0.1369
 5172TIP3    H136931   6.285   3.051  11.723  0.6368 -0.3385  0.2613
 5172TIP3    H236932   6.306   2.921  11.649  0.8603 -0.7386  1.0183
 5173TIP3   OH236933   1.057   4.579   5.382 -0.3955 -1.0089 -0.3392
 5173TIP3    H136934   1.068   4.497   5.429 -0.9596 -1.6386 -1.2848
 5173TIP3    H236935   1.059   4.555   5.289 -1.9181 -0.1460 -0.6187
 5174TIP3   OH236936   2.993   3.806   1.652  0.2882 -0.2664 -0.6699
 5174TIP3    H136937   3.060   3.799   1.720 -0.6096 -1.1115  0.1633
 5174TIP3    H236938   3.024   3.748   1.583  0.6151 -0.3503 -0.4580
 5175TIP3   OH236939   1.769   0.688  14.626  0.3394  0.1207  0.1647
 5175TIP3    H136940   1.844   0.716  14.573  0.6152 -1.6712 -0.4703
 5175TIP3    H236941   1.701   0.666  14.563  0.8222 -2.4881  0.4227
 5176TIP3   OH236942   6.476   2.805   2.391 -0.2689 -0.0060 -0.1271
 5176TIP3    H136943   6.533   2.832   2.462  1.2434  0.3691 -1.4421
 5176TIP3    H236944   6.392   2.848   2.410  0.8190  2.1248  0.1192
 5177TIP3   OH236945   2.496   6.706  13.876 -0.3186  1.3405  0.1348
 5177TIP3    H136946   2.590   6.684  13.877 -0.3223  1.3394  0.6854
 5177TIP3    H236947   2.490   6.787  13.925 -0.9157 -0.0056  2.4144
 5178TIP3   OH236948   1.707   6.465   1.426  0.0645 -0.1082 -0.1213
 5178TIP3    H136949   1.658   6.459   1.344 -0.8385  1.2026  0.2677
 5178TIP3    H236950   1.653   6.524   1.481  0.7066 -0.8345  1.3504
 5179TIP3   OH236951   0.785   2.697  16.547  0.2248  0.6586 -0.1092
 5179TIP3    H136952   0.829   2.641  16.611  3.9211 -1.5643 -4.1096
 5179TIP3    H236953   0.716   2.642  16.509 -0.7646  1.3663  0.5771
 5180TIP3   OH236954   4.816   6.093   4.697  0.3268 -0.3674 -0.0785
 5180TIP3    H136955   4.790   6.013   4.650  0.2943 -0.0268 -0.6436
 5180TIP3    H236956   4.906   6.109   4.668 -0.2229  0.7202 -1.2427
 5181TIP3   OH236957   0.067   5.703  17.163 -0.0666  0.8466  0.1470
 5181TIP3    H136958   0.139   5.728  17.106 -0.5586  0.4874 -0.6447
 5181TIP3    H236959   0.010   5.649  17.108 -1.3822  1.8070  0.5149
 5182TIP3   OH236960   0.078   6.618   4.716 -0.0931  0.5120 -0.1741
 5182TIP3    H136961   0.035   6.584   4.637 -0.3286  1.7751 -0.6048
 5182TIP3    H236962   0.160   6.569   4.722 -0.2047  0.2083 -1.0371
 5183TIP3   OH236963   0.764   3.837  16.737  0.8650  0.4173  0.3805
 5183TIP3    H136964   0.794   3.879  16.656  1.8068 -1.5194 -0.3285
 5183TIP3    H236965   0.839   3.841  16.796  1.5586 -1.6237 -0.2771
 5184TIP3   OH236966   2.976   3.630  16.490 -0.4718 -0.0299  0.2543
 5184TIP3    H136967   3.068   3.622  16.515 -0.3085  1.1417  0.0916
 5184TIP3    H236968   2.940   3.543  16.502  0.8464 -0.7054 -0.4245
 5185TIP3   OH236969   2.447   2.265   0.241 -0.1003 -0.7867  0.3225
 5185TIP3    H136970   2.364   2.269   0.288  0.3735  1.1854  1.0824
 5185TIP3    H236971   2.428   2.301   0.154 -0.1159 -0.5796  0.4102
 5186TIP3   OH236972   3.331   1.633  13.936  0.2724 -0.3536  0.1638
 5186TIP3    H136973   3.279   1.706  13.970  1.2550 -0.2080  1.4129
 5186TIP3    H236974   3.381   1.671  13.864  0.1099 -0.0165  0.2285
 5187TIP3   OH236975   4.905   1.813  12.505  0.2274 -0.0888  0.1838
 5187TIP3    H136976   4.928   1.803  12.598 -1.9355 -0.4766  0.7479
 5187TIP3    H236977   4.836   1.880  12.505 -1.6707 -1.9143 -0.7455
 5188TIP3   OH236978   6.288   5.861  15.798  0.3102 -0.2125  0.4466
 5188TIP3    H136979   6.246   5.901  15.874  0.1928 -2.2491  1.5345
 5188TIP3    H236980   6.331   5.934  15.752 -1.0781  1.3244  1.4791
 5189TIP3   OH236981   5.935   6.720   3.828 -0.0699 -0.0741 -0.2992
 5189TIP3    H136982   5.937   6.745   3.735  1.2960  1.2711  0.0522
 5189TIP3    H236983   5.999   6.778   3.870 -0.1338 -1.1407  1.3724
 5190TIP3   OH236984   2.387   3.056  13.588 -0.0568  0.1874  0.4075
 5190TIP3    H136985   2.468   3.030  13.544  0.3730  0.7355  0.8480
 5190TIP3    H236986   2.405   3.145  13.618 -0.5409  0.0218  1.2001
 5191TIP3   OH236987   4.648   5.287  14.748 -0.2116 -0.2038  0.2956
 5191TIP3    H136988   4.736   5.315  14.722  0.1248  1.2749  2.6442
 5191TIP3    H236989   4.648   5.193  14.736  1.6792 -0.2255  0.1296
 5192TIP3   OH236990   0.759   2.972  16.485  0.1810 -0.4214 -0.5015
 5192TIP3    H136991   0.755   2.885  16.524 -3.4956 -0.3774 -0.4553
 5192TIP3    H236992   0.689   3.021  16.528  1.6060  2.3408 -1.1041
 5193TIP3   OH236993   3.226   6.185   0.098  0.5196 -0.2604  0.2164
 5193TIP3    H136994   3.187   6.101   0.120  0.2745  0.3095  2.0794
 5193TIP3    H236995   3.185   6.247   0.158  4.7214  0.2784  2.9484
 5194TIP3   OH236996   4.916   1.328  14.762  0.1926  0.0418  0.0467
 5194TIP3    H136997   5.001   1.291  14.786 -0.6905 -1.2121  1.3942
 5194TIP3    H236998   4.938   1.410  14.716  2.1000  0.9681  2.3816
 5195TIP3   OH236999   4.508   1.543  11.591  0.5044  0.1734 -0.0457
 5195TIP3    H137000   4.570   1.477  11.622 -0.8610 -0.3568  1.7518
 5195TIP3    H237001   4.551   1.627  11.609  1.6374 -0.1792 -0.9885
 5196TIP3   OH237002   3.978   1.451  10.659 -0.6063  0.1398 -0.0905
 5196TIP3    H137003   4.029   1.420  10.584 -0.8766 -0.0781 -0.1880
 5196TIP3    H237004   3.891   1.412  10.646 -0.7572  0.3966  0.1451
 5197TIP3   OH237005   6.423   5.795   5.795  0.1765 -0.1540 -0.1221
 5197TIP3    H137006   6.435   5.888   5.813  0.1674 -0.2894  0.6061
 5197TIP3    H237007   6.329   5.780   5.805  0.4886 -0.7911  2.5924
 5198TIP3   OH237008   4.218   5.968   0.407  0.2047 -0.1172 -0.2017
 5198TIP3    H137009   4.178   5.903   0.464  2.6444 -1.3808  0.2317
 5198TIP3    H237010   4.187   5.948   0.319 -1.3957  0.0704  0.2958
 5199TIP3   OH237011   4.976   6.106  13.773 -0.3133  0.5105 -0.1858
 5199TIP3    H137012   4.882   6.087  13.775 -0.4883  1.3095 -0.2520
 5199TIP3    H237013   5.010   6.055  13.700 -0.7685  0.4969 -0.3915
 5200TIP3   OH237014   0.786   5.627  15.157 -0.5408 -0.4795  0.3547
 5200TIP3    H137015   0.790   5.637  15.062 -1.1184 -0.0719  0.3686
 5200TIP3    H237016   0.877   5.615  15.184 -0.4787 -1.8568 -0.3811
 5201TIP3   OH237017   2.654   6.656   0.511 -0.6872 -0.1313  0.0620
 5201TIP3    H137018   2.653   6.617   0.423  0.1015 -0.4458  0.1767
 5201TIP3    H237019   2.725   6.610   0.556 -0.5724  0.5712  0.6158
 5202TIP3   OH237020   4.349   6.114   3.126 -0.2895 -0.2882 -0.2312
 5202TIP3    H137021   4.253   6.115   3.122 -0.3054 -1.9165 -0.8876
 5202TIP3    H237022   4.376   6.060   3.052  1.0723 -1.1051  0.7953
 5203TIP3   OH237023   4.774   6.640  12.379 -0.2829 -0.6783  0.0713
 5203TIP3    H137024   4.776   6.736  12.378 -2.6806 -0.4770 -2.9736
 5203TIP3    H237025   4.792   6.616  12.470  1.2069  2.5888  0.7792
 5204TIP3   OH237026   0.651   2.013   3.558 -0.3967  0.0806  0.6784
 5204TIP3    H137027   0.696   1.930   3.543  2.3969  1.5728  0.1933
 5204TIP3    H237028   0.620   2.040   3.472 -0.8575 -0.2050  0.7527
 5205TIP3   OH237029   2.485   4.449   0.828 -0.0626  0.6164 -0.6491
 5205TIP3    H137030   2.484   4.536   0.788 -1.7958  0.9320 -0.0006
 5205TIP3    H237031   2.410   4.404   0.790  0.1391 -0.1983 -0.1080
 5206TIP3   OH237032   5.959   3.292   0.569 -0.5497 -0.1030 -0.4516
 5206TIP3    H137033   6.053   3.288   0.549 -0.7659 -1.1977 -1.3424
 5206TIP3    H237034   5.955   3.321   0.660  0.7370 -1.9106  0.2286
 5207TIP3   OH237035   0.421   2.100  16.061 -0.4061 -0.1166  0.0651
 5207TIP3    H137036   0.353   2.093  16.128 -0.7359  0.6462 -0.1783
 5207TIP3    H237037   0.414   2.018  16.011 -0.3552 -0.5577  0.7661
 5208TIP3   OH237038   4.478   4.023   4.135 -0.0574  0.6763 -0.1756
 5208TIP3    H137039   4.539   3.952   4.115 -1.2607 -0.2639 -0.6769
 5208TIP3    H237040   4.396   3.997   4.091 -1.5829  0.6136  2.4521
 5209TIP3   OH237041   1.925   3.639  14.525  0.4580  0.0757 -0.4324
 5209TIP3    H137042   1.895   3.565  14.578  2.4249 -0.8674 -0.5262
 5209TIP3    H237043   2.019   3.622  14.513  0.9842  2.6240 -0.4162
 5210TIP3   OH237044   1.068   1.093   4.498 -0.4419 -0.4954  0.2836
 5210TIP3    H137045   1.088   1.004   4.527 -2.7106 -1.4086 -0.7377
 5210TIP3    H237046   1.010   1.127   4.567 -1.9959 -0.9450 -0.7552
 5211TIP3   OH237047   1.421   0.434   1.515  0.0394  0.5090  0.2775
 5211TIP3    H137048   1.481   0.469   1.580 -1.4331  1.8872  0.9562
 5211TIP3    H237049   1.364   0.507   1.492  0.3828  0.0154 -2.4591
 5212TIP3   OH237050   3.094   4.131  16.147 -0.1283  0.3008 -0.0879
 5212TIP3    H137051   3.108   4.091  16.232 -0.2203 -0.0204 -0.2240
 5212TIP3    H237052   3.180   4.128  16.104 -0.6860 -2.3134 -1.1989
 5213TIP3   OH237053   1.167   3.306   6.348 -0.3336 -0.0016  0.3552
 5213TIP3    H137054   1.227   3.364   6.394  1.1662 -1.1899 -0.0091
 5213TIP3    H237055   1.121   3.362   6.286  0.9684  0.8110  0.0961
 5214TIP3   OH237056   1.906   3.135   1.080 -0.0078 -0.3354  0.6310
 5214TIP3    H137057   1.855   3.159   1.158  0.4075  0.6572  0.6127
 5214TIP3    H237058   1.856   3.170   1.007  0.8376  0.9464  0.6354
 5215TIP3   OH237059   2.900   6.070   5.120 -0.1392 -0.1583 -0.0457
 5215TIP3    H137060   2.991   6.098   5.120  0.1587 -0.8730 -2.6936
 5215TIP3    H237061   2.872   6.078   5.028 -2.6192 -0.3602  0.6129
 5216TIP3   OH237062   2.347   4.387   4.987 -0.4958 -0.5004 -0.0752
 5216TIP3    H137063   2.410   4.321   4.957  0.8832 -0.7918  3.0784
 5216TIP3    H237064   2.375   4.468   4.945 -0.5647 -1.3671 -1.8876
 5217TIP3   OH237065   3.377   4.293  16.491  0.0703 -0.0496  0.0159
 5217TIP3    H137066   3.383   4.347  16.570 -0.2544 -0.0490  0.0430
 5217TIP3    H237067   3.286   4.304  16.461 -0.1912 -1.0940  0.3925
 5218TIP3   OH237068   4.335   1.016  16.395 -0.2216  0.2847 -0.1617
 5218TIP3    H137069   4.263   1.059  16.442  0.8595 -0.0271  1.9138
 5218TIP3    H237070   4.317   1.033  16.303 -0.7684  3.7806  0.4430
 5219TIP3   OH237071   2.646   5.925   5.808 -0.2641 -0.3720 -0.0430
 5219TIP3    H137072   2.695   5.860   5.758 -2.3815 -1.6645 -0.5756
 5219TIP3    H237073   2.698   6.005   5.801  1.0297 -1.2889 -1.7438
 5220TIP3   OH237074   2.348   0.464   3.484  0.4080 -1.0994 -0.3661
 5220TIP3    H137075   2.438   0.431   3.488  0.8853 -0.5063 -3.3155
 5220TIP3    H237076   2.295   0.386   3.468  0.4730 -1.3661  0.6725
 5221TIP3   OH237077   0.537   1.180   2.296 -0.2151 -0.3572  0.1108
 5221TIP3    H137078   0.598   1.246   2.329 -0.7206 -0.1299  0.5940
 5221TIP3    H237079   0.589   1.130   2.232  0.5902 -0.3953  0.7696
 5222TIP3   OH237080   2.891   1.610  15.184 -0.8405  0.4634  0.1530
 5222TIP3    H137081   2.847   1.528  15.204  0.3478 -0.5027 -0.9823
 5222TIP3    H237082   2.979   1.584  15.155 -0.4039  2.1351 -0.1574
 5223TIP3   OH237083   0.364   3.843  12.946  0.2962 -0.0421 -0.3397
 5223TIP3    H137084   0.367   3.792  13.027 -1.6373 -0.2214 -0.3400
 5223TIP3    H237085   0.288   3.900  12.956  0.3419  0.3307 -1.8125
 5224TIP3   OH237086   4.413   1.936  16.653  0.1391  0.2191 -0.1616
 5224TIP3    H137087   4.378   1.983  16.728  0.0994 -1.0765  0.6592
 5224TIP3    H237088   4.409   1.999  16.581  0.8755  1.7468  1.0709
 5225TIP3   OH237089   4.487   0.471   5.772  0.0565  0.0172  0.5222
 5225TIP3    H137090   4.452   0.443   5.857 -0.2969 -0.6895  0.1491
 5225TIP3    H237091   4.553   0.406   5.751  2.2100  1.7153  1.5561
 5226TIP3   OH237092   5.927   2.049  15.831  0.5798  0.3625  0.0394
 5226TIP3    H137093   5.888   1.965  15.855  3.2524 -0.8152  0.5666
 5226TIP3    H237094   5.951   2.089  15.915  1.0283  0.7915 -0.2890
 5227TIP3   OH237095   0.350   2.455   2.862  0.6784 -0.1078  0.5676
 5227TIP3    H137096   0.341   2.397   2.938  0.7821 -0.1797  0.5251
 5227TIP3    H237097   0.336   2.399   2.786  0.7116 -0.0637  0.5287
 5228TIP3   OH237098   3.024   2.872   1.398  0.1396  0.6608  0.2686
 5228TIP3    H137099   3.071   2.789   1.406  0.3190  0.8944  2.5351
 5228TIP3    H237100   3.008   2.882   1.305 -0.2142 -2.0777 -0.0542
 5229TIP3   OH237101   1.468   2.372   2.549 -0.4067 -0.0256 -0.3152
 5229TIP3    H137102   1.439   2.403   2.635 -0.5135 -0.7401 -0.0869
 5229TIP3    H237103   1.456   2.448   2.491 -1.2226  0.1815  0.1061
 5230TIP3   OH237104   5.639   6.461  16.267 -0.0713 -0.0264 -0.3243
 5230TIP3    H137105   5.718   6.490  16.312  0.7404  0.0817 -1.7547
 5230TIP3    H237106   5.619   6.532  16.206 -0.3162 -0.7596 -1.1202
 5231TIP3   OH237107   2.656   3.248   4.628  0.0061 -0.0139 -0.3562
 5231TIP3    H137108   2.625   3.325   4.677 -1.2774 -0.7190 -0.0257
 5231TIP3    H237109   2.681   3.186   4.696 -1.0331 -0.7006 -0.5765
 5232TIP3   OH237110   0.499   0.287   4.110  0.3054  0.0576  0.3685
 5232TIP3    H137111   0.431   0.313   4.171 -0.0072 -0.3689  0.2069
 5232TIP3    H237112   0.480   0.336   4.029 -0.7855 -1.2818 -0.2180
 5233TIP3   OH237113   0.531   5.582  11.644 -0.6414 -0.0849 -0.4538
 5233TIP3    H137114   0.484   5.593  11.727  0.8179 -0.0892  0.4217
 5233TIP3    H237115   0.616   5.624  11.660 -0.1584 -0.5147 -1.7908
 5234TIP3   OH237116   3.615   6.132   6.280 -0.0214  0.1771  0.0910
 5234TIP3    H137117   3.614   6.197   6.350 -2.1402  1.1422 -0.7401
 5234TIP3    H237118   3.569   6.056   6.316  1.7272 -0.6075  0.7798
 5235TIP3   OH237119   2.707   6.567   4.539  0.0112 -0.0434  0.5531
 5235TIP3    H137120   2.658   6.649   4.545 -0.0123 -0.1798  3.2112
 5235TIP3    H237121   2.646   6.500   4.570  0.8474 -0.6730  0.8857
 5236TIP3   OH237122   6.401   4.241   0.904  0.1244  0.0579 -0.4572
 5236TIP3    H137123   6.338   4.223   0.834 -1.4769  2.5680  0.1975
 5236TIP3    H237124   6.353   4.297   0.966  2.2060 -0.1207  1.4613
 5237TIP3   OH237125   6.082   1.865   0.338 -0.2339  0.1713 -0.1812
 5237TIP3    H137126   6.099   1.912   0.257 -2.7206 -0.7775 -1.3422
 5237TIP3    H237127   6.164   1.818   0.356  1.0417  1.9878 -0.9576
 5238TIP3   OH237128   3.398   6.246   1.936  0.2628  0.5549 -0.2433
 5238TIP3    H137129   3.486   6.209   1.935  1.0109  2.2163 -0.2661
 5238TIP3    H237130   3.412   6.341   1.933 -1.5141  0.8847  0.4370
 5239TIP3   OH237131   6.366   6.466   6.222  0.2698  0.4973  0.4143
 5239TIP3    H137132   6.381   6.544   6.276  0.8351  1.4602 -1.0775
 5239TIP3    H237133   6.270   6.461   6.214  0.1427 -0.0054  1.9544
 5240TIP3   OH237134   2.839   5.875   3.021  0.2143  0.3515 -0.4280
 5240TIP3    H137135   2.915   5.925   2.991 -0.7897  1.1095 -1.8947
 5240TIP3    H237136   2.844   5.793   2.973  0.6841 -0.0600  0.3130
 5241TIP3   OH237137   2.950   0.395   1.885 -0.9339  0.1841 -0.2073
 5241TIP3    H137138   3.014   0.456   1.846 -0.3227  0.4282  1.1338
 5241TIP3    H237139   2.912   0.350   1.809  1.0378 -0.1864 -1.0637
 5242TIP3   OH237140   2.162   2.227  11.918  0.0790 -0.1003  0.1164
 5242TIP3    H137141   2.187   2.319  11.905  1.7485 -0.2845  1.5390
 5242TIP3    H237142   2.245   2.179  11.909 -0.6242 -1.3720  0.2599
 5243TIP3   OH237143   2.089   1.783   1.670 -0.9134  0.4941 -0.1152
 5243TIP3    H137144   2.070   1.737   1.588  1.2015 -1.4005  0.3634
 5243TIP3    H237145   2.172   1.746   1.699 -1.6849  0.9702  2.9975
 5244TIP3   OH237146   5.950   4.237  13.219 -0.3940  0.5508  0.3017
 5244TIP3    H137147   5.955   4.235  13.123 -1.1660  1.4637  0.2304
 5244TIP3    H237148   5.874   4.183  13.240  1.3653 -1.9785  0.5960
 5245TIP3   OH237149   1.732   4.811  13.888 -0.1225  0.0969 -0.1394
 5245TIP3    H137150   1.680   4.793  13.966  0.9980 -0.9819  0.4052
 5245TIP3    H237151   1.814   4.763  13.903  0.7387  1.1547 -1.2771
 5246TIP3   OH237152   1.302   5.090   5.527 -0.6596 -0.0187 -0.2378
 5246TIP3    H137153   1.315   5.114   5.619 -0.1674 -0.5900 -0.1526
 5246TIP3    H237154   1.212   5.117   5.507 -1.8095 -2.4363  1.2240
 5247TIP3   OH237155   0.821   2.599  11.499 -0.2758  0.4840  0.1333
 5247TIP3    H137156   0.831   2.539  11.425  2.6252  0.7813  0.1720
 5247TIP3    H237157   0.836   2.544  11.576 -1.7804  0.4944  0.4799
 5248TIP3   OH237158   4.477   3.764  14.138  0.0933 -0.1878 -0.0023
 5248TIP3    H137159   4.435   3.700  14.081 -0.0626  1.4037 -1.7602
 5248TIP3    H237160   4.410   3.831  14.153  0.9986  0.8111 -0.2743
 5249TIP3   OH237161   5.268   3.475  12.055 -0.5202  0.2052 -0.3365
 5249TIP3    H137162   5.237   3.399  12.006 -0.4428  1.6525 -2.8360
 5249TIP3    H237163   5.328   3.519  11.995  2.4955  0.2537  2.4389
 5250TIP3   OH237164   2.471   5.355   5.241  0.3139  0.3352 -0.4967
 5250TIP3    H137165   2.468   5.265   5.274  2.1352  0.0090 -1.1191
 5250TIP3    H237166   2.498   5.347   5.150  2.1344  1.5482 -0.1263
 5251TIP3   OH237167   1.402   2.669   3.319  0.1652  0.0024 -0.4630
 5251TIP3    H137168   1.413   2.763   3.305 -0.9234  0.2723  0.3855
 5251TIP3    H237169   1.484   2.642   3.362 -0.0757  0.8468  0.5720
 5252TIP3   OH237170   2.396   6.027  11.339 -0.3232  0.4142  0.2159
 5252TIP3    H137171   2.395   6.028  11.243  2.2950 -0.3172  0.1198
 5252TIP3    H237172   2.451   5.952  11.362 -0.2128  1.0659  2.2865
 5253TIP3   OH237173   4.761   0.323  14.031  0.2142 -0.1401  0.2575
 5253TIP3    H137174   4.798   0.314  13.943  0.5090  2.0858  0.0901
 5253TIP3    H237175   4.678   0.368  14.018  1.2011  2.1293  1.1864
 5254TIP3   OH237176   0.283   3.734   0.584 -0.2429 -0.0168 -0.2033
 5254TIP3    H137177   0.294   3.644   0.615 -0.4000  0.1962  0.5046
 5254TIP3    H237178   0.355   3.748   0.523  2.5928  0.7990  3.0198
 5255TIP3   OH237179   2.594   2.183  15.516 -0.2275 -0.1487 -0.8638
 5255TIP3    H137180   2.638   2.109  15.476 -0.3812 -0.3639 -0.6370
 5255TIP3    H237181   2.553   2.147  15.595  1.9082  0.6726  0.7357
 5256TIP3   OH237182   5.652   3.608   4.071 -0.0497  0.0794 -0.5955
 5256TIP3    H137183   5.567   3.622   4.030  0.3750  1.7453 -0.9796
 5256TIP3    H237184   5.714   3.605   3.999  0.2049 -1.4375 -0.3375
 5257TIP3   OH237185   3.737   2.341   4.819  0.6095  0.2420 -0.3555
 5257TIP3    H137186   3.814   2.388   4.785  0.4428  0.5521 -0.3083
 5257TIP3    H237187   3.689   2.407   4.868 -0.0334  0.2090 -0.9380
 5258TIP3   OH237188   3.316   4.528  14.481  0.2253 -0.8845 -0.4246
 5258TIP3    H137189   3.245   4.580  14.445  0.3896  0.4250  1.0393
 5258TIP3    H237190   3.309   4.443  14.437 -1.1331 -0.2074 -1.5777
 5259TIP3   OH237191   4.640   0.910  13.963  0.4479  0.1787  0.3701
 5259TIP3    H137192   4.728   0.890  13.994  1.1241  1.3413 -0.7459
 5259TIP3    H237193   4.627   1.003  13.982  0.3067  0.5527 -1.3775
 5260TIP3   OH237194   1.847   0.090  15.416  0.4836 -0.0779 -0.6524
 5260TIP3    H137195   1.881   0.114  15.502 -0.8559 -2.4968  0.6463
 5260TIP3    H237196   1.925   0.075  15.363  1.3305  1.2731  0.1453
 5261TIP3   OH237197   0.248   4.067  11.729  0.6996 -0.5546  0.0598
 5261TIP3    H137198   0.161   4.031  11.712 -0.2160  1.5606 -0.0604
 5261TIP3    H237199   0.283   4.087  11.642  1.3025 -1.3399  0.1101
 5262TIP3   OH237200   5.929   4.788   5.269  0.2698 -0.1281  0.1138
 5262TIP3    H137201   5.925   4.827   5.181  1.4040 -0.3521 -0.0497
 5262TIP3    H237202   5.891   4.855   5.326  0.1432  0.2961 -0.4489
 5263TIP3   OH237203   3.346   4.562  16.285 -0.2901  0.0374  0.1481
 5263TIP3    H137204   3.339   4.560  16.381 -0.0190 -0.1020  0.1661
 5263TIP3    H237205   3.263   4.526  16.254  0.9165 -3.2727  0.3603
 5264TIP3   OH237206   5.685   0.860  14.965  0.8764 -0.5399 -0.1912
 5264TIP3    H137207   5.660   0.827  14.879  1.2703  0.1768 -0.5943
 5264TIP3    H237208   5.771   0.899  14.951  0.6575  0.1704  0.3809
 5265TIP3   OH237209   3.562   6.069  14.472  0.0454  1.1743 -0.6440
 5265TIP3    H137210   3.514   6.090  14.392 -1.6909  0.5413  0.2045
 5265TIP3    H237211   3.560   5.973  14.476  1.3165  1.1356 -0.5315
 5266TIP3   OH237212   5.647   3.833  13.459 -0.1221 -0.2247  0.3989
 5266TIP3    H137213   5.638   3.746  13.498  0.9228 -0.5967 -0.1391
 5266TIP3    H237214   5.609   3.892  13.524  0.4884 -0.9449  1.4534
 5267TIP3   OH237215   4.055   1.850   2.112 -0.1717 -0.2845 -0.2707
 5267TIP3    H137216   3.999   1.777   2.140  1.0085 -1.9699 -2.0964
 5267TIP3    H237217   3.993   1.918   2.085 -1.3294  0.1415  2.9013
 5268TIP3   OH237218   2.995   4.607   5.264 -0.0804 -0.0194 -0.1608
 5268TIP3    H137219   3.074   4.554   5.253  0.8776  1.6376 -1.9769
 5268TIP3    H237220   3.015   4.665   5.337  0.1187 -0.0855 -0.1614
 5269TIP3   OH237221   4.071   3.403  15.633 -0.2289  0.2398  0.6953
 5269TIP3    H137222   4.052   3.417  15.541  0.7996 -0.9894  0.2636
 5269TIP3    H237223   4.050   3.311  15.648 -0.0312  0.3279  1.5907
 5270TIP3   OH237224   3.233   1.324  13.271 -0.2936  0.0315 -0.2852
 5270TIP3    H137225   3.232   1.411  13.311 -0.4861  0.2336 -0.7168
 5270TIP3    H237226   3.261   1.339  13.181 -2.0225 -0.0941 -0.8965
 5271TIP3   OH237227   3.436   2.786   6.192 -1.0372 -0.1853 -0.4217
 5271TIP3    H137228   3.506   2.720   6.198 -0.3302  0.6256  0.6489
 5271TIP3    H237229   3.436   2.811   6.100  0.8180  0.5326 -0.2800
 5272TIP3   OH237230   4.512   3.535  16.891 -0.6075 -0.3957  0.3195
 5272TIP3    H137231   4.588   3.552  16.836 -0.1606 -1.2178  0.6592
 5272TIP3    H237232   4.449   3.603  16.868  0.3283  0.4564  0.2198
 5273TIP3   OH237233   1.008   1.639   1.589 -0.1125 -0.6463  0.2181
 5273TIP3    H137234   0.989   1.676   1.503 -0.9747  0.3479  0.8094
 5273TIP3    H237235   0.935   1.667   1.644  1.4207  0.5498  1.7990
 5274TIP3   OH237236   5.206   2.045   1.933  0.4040 -0.3318 -0.3730
 5274TIP3    H137237   5.212   1.970   1.875  0.7154 -0.4573 -0.1800
 5274TIP3    H237238   5.273   2.030   2.000  1.2398  0.6485 -0.9570
 5275TIP3   OH237239   3.975   6.155   2.859 -0.3846 -0.4334  0.0505
 5275TIP3    H137240   4.006   6.109   2.781 -2.3460  2.1738 -2.4688
 5275TIP3    H237241   4.050   6.207   2.888  0.8788 -2.6876  1.0597
 5276TIP3   OH237242   4.060   4.160   2.263  0.0023  0.0452  0.1480
 5276TIP3    H137243   4.097   4.088   2.212  0.1466 -0.1151  0.4752
 5276TIP3    H237244   4.043   4.229   2.199  0.7269  0.0630 -0.0272
 5277TIP3   OH237245   4.074   4.812  11.244 -0.0098 -0.1241  0.7933
 5277TIP3    H137246   4.035   4.795  11.158 -2.0194  1.1683  1.3940
 5277TIP3    H237247   4.050   4.736  11.297  0.0950 -0.3084  0.5777
 5278TIP3   OH237248   1.363   3.906   3.747  0.3366 -0.0734 -0.0823
 5278TIP3    H137249   1.283   3.951   3.720  0.0661 -0.9651 -0.8364
 5278TIP3    H237250   1.415   3.973   3.790 -1.4658  0.1831  1.8457
 5279TIP3   OH237251   4.991   4.434   0.819  0.0956 -0.0609 -0.5294
 5279TIP3    H137252   4.903   4.451   0.785  0.2759  0.6476 -0.6527
 5279TIP3    H237253   5.009   4.507   0.877  2.2764  2.2603 -3.7570
 5280TIP3   OH237254   2.233   5.059   4.464 -0.3430  0.0899 -0.2730
 5280TIP3    H137255   2.190   5.029   4.544 -0.1275  1.4301  0.3748
 5280TIP3    H237256   2.177   5.026   4.393 -1.2522 -0.0099  0.4681
 5281TIP3   OH237257   0.680   6.159   2.371 -0.6474  0.3099  0.0263
 5281TIP3    H137258   0.651   6.103   2.298 -0.7306  0.5203 -0.1005
 5281TIP3    H237259   0.605   6.161   2.431 -0.2017 -0.7609  0.6567
 5282TIP3   OH237260   0.346   0.658  11.776 -0.3607 -0.5849 -0.2030
 5282TIP3    H137261   0.303   0.573  11.769 -0.4194 -0.5127 -0.7188
 5282TIP3    H237262   0.432   0.645  11.736 -0.0615 -0.6109  0.4316
 5283TIP3   OH237263   4.419   2.579   1.144  0.0560 -0.5830  0.0264
 5283TIP3    H137264   4.483   2.521   1.185  2.3155  2.8273  1.7408
 5283TIP3    H237265   4.461   2.610   1.064 -1.6024 -1.9898 -1.4956
 5284TIP3   OH237266   3.691   3.943   3.953  0.3665  0.1806  0.2758
 5284TIP3    H137267   3.618   3.967   3.895  1.1702 -1.2140 -1.4252
 5284TIP3    H237268   3.648   3.919   4.036 -0.7480  3.0660  0.6384
 5285TIP3   OH237269   5.589   5.946  14.690  0.0490 -0.1447  0.2864
 5285TIP3    H137270   5.504   5.979  14.662  0.2026 -0.5291 -0.6908
 5285TIP3    H237271   5.647   5.963  14.616  0.6553 -0.5526  0.6537
 5286TIP3   OH237272   2.509   6.487   0.303  0.3102  0.0704  0.9204
 5286TIP3    H137273   2.543   6.417   0.247  1.2090  1.8367 -0.8714
 5286TIP3    H237274   2.488   6.558   0.242 -4.6338 -0.0002  2.0462
 5287TIP3   OH237275   4.737   6.208   5.455  0.4599  0.3630 -0.3231
 5287TIP3    H137276   4.678   6.283   5.466 -0.4091 -0.5667  1.9372
 5287TIP3    H237277   4.824   6.247   5.443 -0.0186  1.7231  0.4014
 5288TIP3   OH237278   6.205   5.439   2.837  0.3591 -0.0321 -0.4024
 5288TIP3    H137279   6.134   5.391   2.794  0.5001 -2.8236  2.1361
 5288TIP3    H237280   6.267   5.458   2.767 -0.5526 -2.0756 -1.8835
 5289TIP3   OH237281   1.578   1.099   4.028 -0.1621  0.0075 -0.1307
 5289TIP3    H137282   1.526   1.112   4.108  0.2603 -1.3780  0.4027
 5289TIP3    H237283   1.666   1.129   4.052  0.3334 -1.8072  0.4553
 5290TIP3   OH237284   2.742   6.370  11.201 -0.3697  0.0627 -0.1512
 5290TIP3    H137285   2.694   6.443  11.162 -0.0227 -0.1992 -1.1019
 5290TIP3    H237286   2.832   6.380  11.170 -0.0886 -0.1979  0.5400
 5291TIP3   OH237287   5.045   3.523  16.032  0.0210 -0.2603  0.7997
 5291TIP3    H137288   5.095   3.604  16.024  2.0615 -1.5760 -1.1124
 5291TIP3    H237289   5.047   3.502  16.125  0.5841  1.1977  1.1404
 5292TIP3   OH237290   6.448   5.140  11.743 -0.0135 -0.2591 -0.0677
 5292TIP3    H137291   6.410   5.213  11.694 -0.1442  0.8841  1.6621
 5292TIP3    H237292   6.376   5.077  11.752 -0.3370  0.0799 -0.2602
 5293TIP3   OH237293   4.255   6.555  12.464 -0.1616  0.3238 -0.3818
 5293TIP3    H137294   4.204   6.504  12.402  1.1108 -1.0271 -0.3921
 5293TIP3    H237295   4.285   6.631  12.414  2.3124 -1.6008 -2.0720
 5294TIP3   OH237296   0.962   5.574  17.087 -0.0870 -0.4768  0.0300
 5294TIP3    H137297   0.989   5.549  17.176 -1.2108  0.0899  0.5485
 5294TIP3    H237298   0.873   5.541  17.079 -2.1097  3.9294  1.1316
 5295TIP3   OH237299   2.353   1.608  15.751 -0.4913  0.0593  0.3212
 5295TIP3    H137300   2.387   1.561  15.827  0.9150  1.0220  0.3309
 5295TIP3    H237301   2.364   1.547  15.678  0.1649 -0.0826  0.5336
 5296TIP3   OH237302   2.839   3.564   4.835  0.4513 -0.4065  0.0142
 5296TIP3    H137303   2.900   3.503   4.875  0.4224 -0.2532  0.2924
 5296TIP3    H237304   2.869   3.572   4.744  0.2496 -1.0910 -0.1145
 5297TIP3   OH237305   3.650   4.553  11.955 -0.7278 -0.4678 -0.7624
 5297TIP3    H137306   3.725   4.521  11.904  0.1203 -1.4163  0.9972
 5297TIP3    H237307   3.574   4.510  11.916 -0.1085 -1.0977 -1.3024
 5298TIP3   OH237308   6.177   1.507   0.597 -0.0392  0.2143  0.1436
 5298TIP3    H137309   6.163   1.547   0.511 -0.0218  0.5396  0.2884
 5298TIP3    H237310   6.162   1.578   0.659  1.3343  0.3599  0.3426
 5299TIP3   OH237311   5.242   0.205  16.057 -0.5933 -0.4655  0.1611
 5299TIP3    H137312   5.333   0.182  16.039 -0.4214 -0.5162  1.0607
 5299TIP3    H237313   5.200   0.122  16.079 -0.5499 -0.2730  1.0030
 5300TIP3   OH237314   1.956   0.066  16.825 -0.1670 -0.6265 -0.2503
 5300TIP3    H137315   1.913   0.123  16.889  0.9997  0.4157 -0.3431
 5300TIP3    H237316   1.885   0.018  16.783 -1.1502  0.3649  0.2318
 5301TIP3   OH237317   1.621   4.841  11.840 -0.7373 -0.7785 -0.0533
 5301TIP3    H137318   1.605   4.928  11.876 -0.6162 -0.8084  0.0719
 5301TIP3    H237319   1.660   4.858  11.754  0.5116 -0.7024  0.5061
 5302TIP3   OH237320   4.478   6.436  15.780  0.9767  0.5368  0.2849
 5302TIP3    H137321   4.386   6.458  15.765 -0.5626 -4.8622  0.0094
 5302TIP3    H237322   4.509   6.400  15.697  2.2973 -0.6941  1.2565
 5303TIP3   OH237323   2.212   5.184   5.977  0.3873 -0.3634  0.0545
 5303TIP3    H137324   2.159   5.113   5.941 -0.3421  0.8524 -1.4637
 5303TIP3    H237325   2.301   5.165   5.948  0.2221 -0.7503 -0.2132
 5304TIP3   OH237326   1.943   2.087   6.271  0.6350 -0.3439 -0.3695
 5304TIP3    H137327   1.936   2.105   6.365  2.2399 -0.2119 -0.2461
 5304TIP3    H237328   1.853   2.088   6.240  0.1448  0.8486  0.9455
 5305TIP3   OH237329   1.399   6.562  13.512  0.3382 -0.1701 -0.1115
 5305TIP3    H137330   1.424   6.491  13.571  2.8290  0.2976 -0.4655
 5305TIP3    H237331   1.366   6.631  13.571 -0.2310 -0.8677  0.4043
 5306TIP3   OH237332   2.349   4.861   2.791  0.0103  0.2747  0.4867
 5306TIP3    H137333   2.374   4.771   2.812  2.0205  1.3128  3.0907
 5306TIP3    H237334   2.428   4.900   2.754 -0.3477  1.3818  0.8456
 5307TIP3   OH237335   6.345   4.337  13.905  0.7720  0.2964  0.3191
 5307TIP3    H137336   6.416   4.401  13.905  1.6547 -0.6628  0.4771
 5307TIP3    H237337   6.310   4.341  13.816  1.4432  0.3258  0.0506
 5308TIP3   OH237338   1.355   1.389   1.305 -0.4475  0.8062 -0.5387
 5308TIP3    H137339   1.279   1.439   1.334 -0.8888 -0.4197  0.5226
 5308TIP3    H237340   1.373   1.422   1.217 -1.8366  1.5297 -0.5856
 5309TIP3   OH237341   2.569   4.262  11.507 -0.1921  0.7427  0.2890
 5309TIP3    H137342   2.508   4.197  11.541 -0.6015  1.8971  1.8936
 5309TIP3    H237343   2.608   4.221  11.430 -1.5467 -0.7831  0.3692
 5310TIP3   OH237344   4.850   4.452   1.784  0.2233  0.2434  0.1933
 5310TIP3    H137345   4.855   4.380   1.721  1.5652  2.1900 -2.0465
 5310TIP3    H237346   4.899   4.420   1.860  2.6221 -0.4970 -1.5433
 5311TIP3   OH237347   1.169   4.566  13.721 -0.0416 -0.2104 -0.0799
 5311TIP3    H137348   1.089   4.515  13.709  0.3246 -1.2566  1.6347
 5311TIP3    H237349   1.152   4.621  13.797  1.0169 -0.8689  0.6796
 5312TIP3   OH237350   5.006   2.951  16.623  0.6152 -0.2110  0.3448
 5312TIP3    H137351   4.933   2.933  16.683  2.0796  0.3561  2.4387
 5312TIP3    H237352   5.084   2.939  16.677  1.9914  4.8268 -0.0351
 5313TIP3   OH237353   4.384   6.005  16.561  0.3635  0.2775  0.0549
 5313TIP3    H137354   4.367   5.998  16.655  1.8580 -1.0875  0.2656
 5313TIP3    H237355   4.338   5.930  16.523  0.8008  0.1033 -0.1379
 5314TIP3   OH237356   4.421   6.045   4.049  0.0086 -0.3835 -0.5472
 5314TIP3    H137357   4.356   6.042   3.978  0.2364 -3.5941 -0.7651
 5314TIP3    H237358   4.399   5.971   4.105  2.0046 -0.0448  0.7756
 5315TIP3   OH237359   0.224   2.952   6.088  0.8272 -0.4326 -0.0023
 5315TIP3    H137360   0.154   2.887   6.086 -1.4724  1.7279  2.4300
 5315TIP3    H237361   0.270   2.936   6.170  0.9802  0.2742  0.0542
 5316TIP3   OH237362   6.187   6.192  16.431 -0.0882  0.0138 -0.3448
 5316TIP3    H137363   6.092   6.193  16.433 -0.1242  0.9103 -1.5148
 5316TIP3    H237364   6.210   6.192  16.338  1.0543  0.2016 -0.0823
 5317TIP3   OH237365   0.535   6.613  14.124 -0.2461 -0.1044 -0.2684
 5317TIP3    H137366   0.464   6.550  14.136 -0.3464 -0.1127 -0.8599
 5317TIP3    H237367   0.609   6.576  14.172  0.1476 -1.4485 -1.8080
 5318TIP3   OH237368   0.468   2.834   5.636 -0.2185 -0.3220  0.0144
 5318TIP3    H137369   0.519   2.788   5.703  1.3132  0.4797 -0.5489
 5318TIP3    H237370   0.500   2.797   5.553 -0.6581  0.0975 -0.3478
 5319TIP3   OH237371   3.981   4.333   5.770 -0.5585  0.2394 -0.2493
 5319TIP3    H137372   3.972   4.399   5.701  0.3900 -0.8225 -1.4354
 5319TIP3    H237373   3.988   4.250   5.723 -1.2924 -0.6828  1.1959
 5320TIP3   OH237374   0.392   2.160  16.439  0.2184 -0.0167 -0.1684
 5320TIP3    H137375   0.376   2.254  16.446 -3.5386 -0.5385  0.5113
 5320TIP3    H237376   0.354   2.136  16.355  0.0605 -1.0934  0.1981
 5321TIP3   OH237377   4.826   3.801   1.445 -0.3328 -0.2676 -0.0878
 5321TIP3    H137378   4.814   3.839   1.358 -0.6983 -0.2637 -0.0335
 5321TIP3    H237379   4.752   3.832   1.495 -0.3013 -0.5502  0.1325
 5322TIP3   OH237380   1.146   0.157   2.370  0.3170  0.4006 -0.3218
 5322TIP3    H137381   1.063   0.112   2.355  0.4457  0.1264 -0.2162
 5322TIP3    H237382   1.130   0.213   2.446  0.3615  0.0122 -0.0280
 5323TIP3   OH237383   4.826   3.434  13.163  0.3904 -0.3077  0.7805
 5323TIP3    H137384   4.875   3.415  13.243 -1.5683 -1.3856  1.8247
 5323TIP3    H237385   4.767   3.359  13.153 -2.2470  1.6049  0.6305
 5324TIP3   OH237386   2.948   2.693  16.019  0.7353  0.0519 -0.2687
 5324TIP3    H137387   2.895   2.642  15.957 -0.1900  1.2240 -0.4790
 5324TIP3    H237388   3.025   2.718  15.968  0.8893 -0.5979 -0.3590
 5325TIP3   OH237389   2.906   1.989  16.200  0.7249 -0.2599  0.3845
 5325TIP3    H137390   2.941   2.023  16.283  3.2457 -0.8418 -0.3755
 5325TIP3    H237391   2.890   2.067  16.147  2.5132 -0.0080  0.1627
 5326TIP3   OH237392   5.571   5.975  15.516  0.4320  0.0509  0.6612
 5326TIP3    H137393   5.636   5.993  15.449  0.9296 -0.8576  0.8803
 5326TIP3    H237394   5.547   6.061  15.550 -0.8839  0.6545 -1.6208
 5327TIP3   OH237395   5.670   3.271  14.504 -0.3380 -0.0039  0.0127
 5327TIP3    H137396   5.638   3.294  14.416 -1.9845  0.0977  0.5994
 5327TIP3    H237397   5.611   3.318  14.563 -0.0285 -1.0513  1.1876
 5328TIP3   OH237398   1.799   2.535   2.273 -0.3301 -0.3032  0.3037
 5328TIP3    H137399   1.771   2.616   2.232  0.6475 -0.3979 -0.5982
 5328TIP3    H237400   1.892   2.527   2.250 -0.3130 -1.4769  0.6903
 5329TIP3   OH237401   6.565   0.709   3.431  0.5001 -0.5643  0.0059
 5329TIP3    H137402   6.555   0.739   3.521  0.2809 -0.5702 -0.0149
 5329TIP3    H237403   6.494   0.753   3.384  0.6966 -0.4531 -0.1900
 5330TIP3   OH237404   1.550   0.294  15.678 -0.1988  0.1828 -0.3756
 5330TIP3    H137405   1.477   0.349  15.649  0.5761  0.8630 -1.0870
 5330TIP3    H237406   1.516   0.204  15.672 -0.7715  0.4505 -1.2886
 5331TIP3   OH237407   5.651   3.521   1.089  0.3046  0.4447 -0.0378
 5331TIP3    H137408   5.567   3.477   1.072 -0.1726  0.8527  1.1327
 5331TIP3    H237409   5.626   3.603   1.132  1.2738  1.0200 -0.5495
 5332TIP3   OH237410   1.562   1.915   6.681  0.1389 -0.3328  0.2278
 5332TIP3    H137411   1.519   1.900   6.597 -0.4026 -0.6390  0.5488
 5332TIP3    H237412   1.549   2.008   6.699  0.3568 -0.2430 -0.0828
 5333TIP3   OH237413   4.346   1.933  12.932  0.7553 -0.4236 -0.2310
 5333TIP3    H137414   4.409   1.893  12.872  0.6438 -0.1576 -0.5271
 5333TIP3    H237415   4.300   1.859  12.971  2.1779 -0.6831  1.0256
 5334TIP3   OH237416   0.014   1.937  15.741  0.6999  0.0177  0.1672
 5334TIP3    H137417  -0.074   1.909  15.716  0.3354  1.7748 -0.6819
 5334TIP3    H237418   0.038   2.001  15.675  1.6137  1.3941  1.7483
 5335TIP3   OH237419   0.463   0.655  15.744 -0.0251  0.4806  0.0203
 5335TIP3    H137420   0.408   0.582  15.715 -0.8898  1.0674  0.1395
 5335TIP3    H237421   0.428   0.678  15.830  0.9818  0.3047  0.4924
 5336TIP3   OH237422   4.318   3.174   3.661 -0.0430  0.2171 -0.1642
 5336TIP3    H137423   4.289   3.222   3.738  1.4404  1.6881 -0.4682
 5336TIP3    H237424   4.286   3.227   3.587 -0.1291 -0.3578 -0.5413
 5337TIP3   OH237425   1.511   2.523  15.971  0.4632 -0.4608  0.2554
 5337TIP3    H137426   1.607   2.521  15.970  0.4816  0.2920 -0.2820
 5337TIP3    H237427   1.486   2.432  15.957  1.1029 -0.6191  0.0808
 5338TIP3   OH237428   3.946   5.141  16.614  0.2863  0.1555  0.2210
 5338TIP3    H137429   4.040   5.148  16.632 -0.0413  0.9765  1.7971
 5338TIP3    H237430   3.932   5.196  16.537  1.0269  0.4010  0.2534
 5339TIP3   OH237431   0.899   2.622  15.266  0.2335 -0.5491 -0.0903
 5339TIP3    H137432   0.905   2.718  15.268 -1.5829 -0.3818 -0.2223
 5339TIP3    H237433   0.947   2.597  15.187 -0.7920  0.4392 -1.0760
 5340TIP3   OH237434   3.009   1.498   5.614  0.2712 -0.6908 -0.8689
 5340TIP3    H137435   2.991   1.538   5.529  3.1093  0.5095 -1.0027
 5340TIP3    H237436   2.933   1.521   5.668 -0.7139  0.1195 -2.5183
 5341TIP3   OH237437   6.207   3.921  12.866 -0.0217 -0.4380  0.0568
 5341TIP3    H137438   6.241   3.949  12.781  0.9249 -0.6741  0.3441
 5341TIP3    H237439   6.253   3.976  12.930 -1.9761  0.9588  0.3595
 5342TIP3   OH237440   3.042   2.775   6.175 -0.1601  0.3035  0.2659
 5342TIP3    H137441   3.035   2.681   6.164  2.7196 -0.0078  0.2730
 5342TIP3    H237442   3.039   2.811   6.086  0.4738  0.0158  0.1246
 5343TIP3   OH237443   4.924   0.648   2.501  0.2713  0.4218 -0.0118
 5343TIP3    H137444   5.000   0.617   2.551 -0.4061 -1.4561 -0.0758
 5343TIP3    H237445   4.850   0.641   2.561 -0.1649  0.4576 -0.5286
 5344TIP3   OH237446   4.828   0.276   3.477  0.9693  0.0561 -0.6025
 5344TIP3    H137447   4.733   0.277   3.472  0.8622  2.6569  0.4698
 5344TIP3    H237448   4.847   0.242   3.565  1.0357 -0.3934 -0.7892
 5345TIP3   OH237449   5.416   1.805   3.436 -0.2378  0.0610 -0.4556
 5345TIP3    H137450   5.510   1.790   3.427 -0.1977  0.4654 -0.7491
 5345TIP3    H237451   5.381   1.721   3.465  0.1235 -0.2777 -0.9781
 5346TIP3   OH237452   2.718   4.196   1.144  0.2951 -0.1142 -0.0744
 5346TIP3    H137453   2.692   4.166   1.231 -0.2345  1.0095  0.1671
 5346TIP3    H237454   2.804   4.155   1.129  0.8673  0.4805  1.4127
 5347TIP3   OH237455   2.897   5.488   5.916 -0.0835  0.3244  0.1537
 5347TIP3    H137456   2.881   5.407   5.964  3.7109  0.3844  1.8913
 5347TIP3    H237457   2.902   5.462   5.824 -1.1245 -0.9870  0.4557
 5348TIP3   OH237458   1.116   3.420   1.639 -0.7001  0.0872 -0.6300
 5348TIP3    H137459   1.079   3.503   1.670  0.2385  0.0746  0.6353
 5348TIP3    H237460   1.124   3.367   1.718 -0.1772 -0.7648 -1.2415
 5349TIP3   OH237461   5.844   3.556  14.308  0.4958  0.0507  0.2011
 5349TIP3    H137462   5.804   3.613  14.374  0.2606 -1.2726  1.2588
 5349TIP3    H237463   5.778   3.489  14.292  1.0231 -0.3097 -0.5160
 5350TIP3   OH237464   5.774   1.141   1.297 -0.0823  0.2325 -0.2820
 5350TIP3    H137465   5.839   1.071   1.289  0.7430  0.9082  0.3489
 5350TIP3    H237466   5.792   1.199   1.223  0.2564  0.5951  0.0819
 5351TIP3   OH237467   4.895   4.972   4.573 -0.6978 -0.3153 -0.0618
 5351TIP3    H137468   4.873   5.020   4.653  0.7202 -1.3304  0.9740
 5351TIP3    H237469   4.978   4.929   4.592  0.1561  0.1084 -2.3954
 5352TIP3   OH237470   5.462   5.222   5.335  0.3412  0.1940 -0.4538
 5352TIP3    H137471   5.515   5.178   5.268  2.2305 -0.6104  1.4555
 5352TIP3    H237472   5.380   5.173   5.337  1.4403 -1.7356 -0.1314
 5353TIP3   OH237473   2.151   2.429  16.302 -0.3653 -0.1552  0.2576
 5353TIP3    H137474   2.130   2.493  16.234  0.4481  1.2628  1.3029
 5353TIP3    H237475   2.247   2.426  16.303 -0.3768 -0.3595  1.1631
 5354TIP3   OH237476   0.040   5.301  12.185 -0.7318  0.2427 -0.2345
 5354TIP3    H137477   0.095   5.374  12.156 -0.8512 -0.3939 -2.2217
 5354TIP3    H237478  -0.026   5.293  12.116 -1.0516 -1.4067  0.2379
 5355TIP3   OH237479   3.912   6.163   5.874  0.4906 -0.1394  0.2795
 5355TIP3    H137480   3.843   6.106   5.907 -2.7352  3.7261  1.0243
 5355TIP3    H237481   3.991   6.135   5.921 -0.6342 -4.1496  0.1462
 5356TIP3   OH237482   3.757   4.424   1.209 -0.2157 -0.2789  0.7483
 5356TIP3    H137483   3.691   4.413   1.278 -1.6215  0.5491 -0.4259
 5356TIP3    H237484   3.732   4.361   1.142 -0.0636  0.3598  0.0899
 5357TIP3   OH237485   6.335   4.542  13.495  0.4160  0.4681  0.3144
 5357TIP3    H137486   6.282   4.523  13.417 -1.0936  2.2298  0.8299
 5357TIP3    H237487   6.379   4.624  13.475  2.4944 -0.6294  0.1741
 5358TIP3   OH237488   1.517   0.085  16.284 -0.2106  0.1494 -0.4283
 5358TIP3    H137489   1.564   0.110  16.363 -0.5141 -0.7600  0.0541
 5358TIP3    H237490   1.585   0.081  16.216  0.6386 -2.1285  0.4588
 5359TIP3   OH237491   1.917   0.469   5.882  0.1873  0.0021  0.5570
 5359TIP3    H137492   2.011   0.468   5.865 -0.0114  1.0546 -0.7775
 5359TIP3    H237493   1.878   0.419   5.810 -0.3386  0.3621  0.5803
 5360TIP3   OH237494   4.760   3.275   0.228  0.3035  0.0929 -0.0208
 5360TIP3    H137495   4.673   3.252   0.193 -0.5942  1.3790  1.2390
 5360TIP3    H237496   4.813   3.293   0.150 -1.1260  1.1784 -0.8010
 5361TIP3   OH237497   6.702   3.990   4.014  0.2012  0.0289 -0.7045
 5361TIP3    H137498   6.732   3.902   4.039  2.2709  0.2931 -2.0566
 5361TIP3    H237499   6.648   4.018   4.088  1.1948 -1.5455  0.6972
 5362TIP3   OH237500   0.882   1.211   2.296 -0.3985  0.1633  0.0630
 5362TIP3    H137501   0.825   1.244   2.366 -2.3051 -2.2836 -0.1864
 5362TIP3    H237502   0.971   1.225   2.329 -1.1827  1.1717  1.9322
 5363TIP3   OH237503   4.913   1.785   1.349  0.6216  0.4066 -0.3629
 5363TIP3    H137504   4.931   1.874   1.380  1.8016 -0.3127  1.1182
 5363TIP3    H237505   4.986   1.765   1.291  0.5408  0.2729 -0.4181
 5364TIP3   OH237506   6.026   4.285  16.892  0.2065 -0.6737  0.2709
 5364TIP3    H137507   5.957   4.270  16.827 -0.1401  1.9373 -0.0544
 5364TIP3    H237508   6.082   4.208  16.885 -2.3321 -2.6474  0.1576
 5365TIP3   OH237509   1.614   4.769   6.526 -0.0836  0.1297 -0.5177
 5365TIP3    H137510   1.634   4.803   6.613  0.2936  1.2899 -1.0341
 5365TIP3    H237511   1.666   4.823   6.466 -0.0859 -0.8571 -1.4466
 5366TIP3   OH237512   4.247   6.306   5.820 -0.1033  0.1048  0.2645
 5366TIP3    H137513   4.333   6.277   5.849 -0.5636 -0.5867  1.0001
 5366TIP3    H237514   4.196   6.316   5.900 -1.0379 -0.6056 -0.2057
 5367TIP3   OH237515   2.830   1.626   5.390 -0.0070 -0.4771  0.3006
 5367TIP3    H137516   2.760   1.641   5.454 -0.5211 -0.6908 -0.1987
 5367TIP3    H237517   2.803   1.546   5.344  0.9896 -1.0365  0.6628
 5368TIP3   OH237518   3.402   5.009  13.794 -0.2431 -0.1935 -0.0135
 5368TIP3    H137519   3.448   4.984  13.714 -0.4058 -0.4415 -0.0331
 5368TIP3    H237520   3.355   4.929  13.820 -1.6474  0.3868 -0.6583
 5369TIP3   OH237521   3.144   1.462  14.559 -0.4777  0.0277  0.6667
 5369TIP3    H137522   3.175   1.517  14.631  0.2848 -0.6511  0.8757
 5369TIP3    H237523   3.105   1.386  14.603 -0.9978  0.1205  0.3715
 5370TIP3   OH237524   5.949   2.155  11.583  0.0070  0.4055 -0.1724
 5370TIP3    H137525   5.984   2.128  11.499 -0.0197  1.2440 -0.4562
 5370TIP3    H237526   5.870   2.205  11.562  1.0890  2.3712  0.2208
 5371TIP3   OH237527   4.200   4.557   3.787  0.1757  0.3465 -0.1887
 5371TIP3    H137528   4.137   4.600   3.845 -0.7363 -0.7603 -0.3158
 5371TIP3    H237529   4.201   4.611   3.708  1.5699  1.9787  0.8670
 5372TIP3   OH237530   3.552   2.303  16.715 -0.0668 -0.1279  0.0280
 5372TIP3    H137531   3.595   2.277  16.797  0.7657 -1.1212 -0.6893
 5372TIP3    H237532   3.485   2.237  16.701  0.2640 -0.3697 -0.4412
 5373TIP3   OH237533   3.040   1.900  16.501  0.0333  0.1291 -0.1362
 5373TIP3    H137534   3.093   1.933  16.429 -0.3785  0.2496 -0.3864
 5373TIP3    H237535   3.040   1.970  16.565 -0.1692  0.2970 -0.3172
 5374TIP3   OH237536   3.490   1.567  12.887 -0.1011 -0.8452 -0.2625
 5374TIP3    H137537   3.537   1.650  12.879  0.0782 -0.9204  0.0056
 5374TIP3    H237538   3.442   1.559  12.804 -0.7269 -0.0999  0.0095
 5375TIP3   OH237539   6.168   6.382  15.723 -0.0618 -0.4184  0.4286
 5375TIP3    H137540   6.196   6.410  15.636  2.1524 -1.9829  0.5620
 5375TIP3    H237541   6.194   6.455  15.780  0.1632 -0.1661  0.0170
 5376TIP3   OH237542   5.676   2.707   4.868  0.2964  0.5270  0.3865
 5376TIP3    H137543   5.647   2.631   4.816  0.5393  0.0191  0.9822
 5376TIP3    H237544   5.730   2.669   4.937 -2.6394  0.7811  3.0693
 5377TIP3   OH237545   3.980   0.786   4.111 -0.2120  0.4297  0.0937
 5377TIP3    H137546   3.890   0.754   4.107 -0.8845  2.2731 -2.0976
 5377TIP3    H237547   4.030   0.723   4.060 -0.7051  0.5465 -0.5542
 5378TIP3   OH237548   1.839   1.336   1.898 -0.1999 -0.1390 -0.4835
 5378TIP3    H137549   1.785   1.414   1.883 -2.9246 -1.8178 -0.0403
 5378TIP3    H237550   1.833   1.286   1.817  1.7571  0.1428 -0.8698
 5379TIP3   OH237551   5.765   1.371   3.038  0.0967 -0.5733  0.1708
 5379TIP3    H137552   5.756   1.315   2.960  1.2314 -0.4772 -0.0500
 5379TIP3    H237553   5.677   1.402   3.055 -0.0650  0.1214 -1.6323
 5380TIP3   OH237554   0.783   2.072   6.260 -0.2436 -0.0714 -0.3707
 5380TIP3    H137555   0.696   2.108   6.278 -1.0066 -1.3506 -1.3119
 5380TIP3    H237556   0.785   1.990   6.310 -1.1548 -2.0464 -3.2894
 5381TIP3   OH237557   5.736   2.951   0.434  0.4228  0.1507  0.0583
 5381TIP3    H137558   5.768   2.977   0.520 -0.3008  0.9099  0.1091
 5381TIP3    H237559   5.734   3.033   0.384  2.9445 -0.5799 -1.4128
 5382TIP3   OH237560   2.552   3.057  12.735 -0.3904  0.0264 -0.1770
 5382TIP3    H137561   2.509   2.972  12.732 -0.4141  0.0445 -0.3454
 5382TIP3    H237562   2.515   3.099  12.813 -1.5548  0.4989 -0.9472
 5383TIP3   OH237563   0.980   6.312   4.842 -0.4430 -0.2823 -0.3050
 5383TIP3    H137564   0.943   6.328   4.755  0.9102  2.3470 -0.4796
 5383TIP3    H237565   0.924   6.362   4.901  0.9444  1.2528 -0.2161
 5384TIP3   OH237566   3.346   5.301   5.054 -0.7024 -0.5958  0.1767
 5384TIP3    H137567   3.422   5.289   4.997 -0.3742  0.9742  0.2254
 5384TIP3    H237568   3.369   5.256   5.135  0.4094  0.2681  0.3661
 5385TIP3   OH237569   6.419   2.078  12.456 -0.0923  0.0099  0.3346
 5385TIP3    H137570   6.403   2.165  12.419  0.2170 -0.2287 -0.3580
 5385TIP3    H237571   6.407   2.091  12.551 -1.8803  0.3844  0.0856
 5386TIP3   OH237572   6.416   2.516  12.136  0.1389  0.5393 -0.6973
 5386TIP3    H137573   6.430   2.607  12.108  0.0817  0.9005  0.4038
 5386TIP3    H237574   6.432   2.464  12.057 -1.7204  1.6283 -1.8625
 5387TIP3   OH237575   5.249   0.492   2.434  0.3022  0.4076 -0.0414
 5387TIP3    H137576   5.288   0.404   2.434 -0.2665  0.1502  0.0743
 5387TIP3    H237577   5.220   0.505   2.524  0.1533  0.6159 -0.1193
 5388TIP3   OH237578   6.257   2.979   5.923  0.1039  0.3137 -0.2091
 5388TIP3    H137579   6.234   2.888   5.944  0.2627  0.7075  1.7797
 5388TIP3    H237580   6.185   3.008   5.866 -1.0222 -0.4530  0.7623
 5389TIP3   OH237581   2.472   2.986  14.528 -0.1897  0.0058  0.6400
 5389TIP3    H137582   2.380   2.996  14.505  0.4094  1.4370 -1.4649
 5389TIP3    H237583   2.504   2.918  14.468  0.2651 -0.0089  0.8967
 5390TIP3   OH237584   2.376   6.642  13.470 -0.3269 -0.0682  0.1762
 5390TIP3    H137585   2.287   6.635  13.435  0.1460  0.2382 -1.1323
 5390TIP3    H237586   2.365   6.635  13.565 -1.8860  1.1083  0.1276
 5391TIP3   OH237587   5.541   4.491   1.046 -0.4326 -0.4395 -0.2992
 5391TIP3    H137588   5.532   4.397   1.031  0.4315 -0.4720 -0.6952
 5391TIP3    H237589   5.469   4.513   1.105 -0.0615 -1.5414  0.6055
 5392TIP3   OH237590   0.850   2.211   3.621  0.1605 -0.2392 -0.2121
 5392TIP3    H137591   0.826   2.239   3.709 -1.4594  0.2157 -0.7639
 5392TIP3    H237592   0.771   2.166   3.588  0.0885  1.1486 -2.0624
 5393TIP3   OH237593   5.176   0.631  12.415 -0.3615 -0.0005  0.4575
 5393TIP3    H137594   5.138   0.544  12.430 -0.5327  0.2617  1.6300
 5393TIP3    H237595   5.108   0.678  12.368 -1.1131  0.1334  1.6351
 5394TIP3   OH237596   6.654   1.670   2.405  0.2505 -0.0796 -0.7251
 5394TIP3    H137597   6.728   1.730   2.412  1.5090 -1.7182  0.9585
 5394TIP3    H237598   6.621   1.661   2.495  0.5172 -2.3340 -0.7815
 5395TIP3   OH237599   0.721   3.870   4.334 -0.7505  0.0790  0.7313
 5395TIP3    H137600   0.753   3.960   4.344 -1.1622  0.5789 -1.7543
 5395TIP3    H237601   0.789   3.816   4.372  0.3456  1.3803  0.6927
 5396TIP3   OH237602   5.272   2.340  12.265  0.2802  0.3612 -0.0947
 5396TIP3    H137603   5.324   2.283  12.322  0.4591  1.1721  0.5851
 5396TIP3    H237604   5.313   2.332  12.179  1.8851  1.3766  0.5280
 5397TIP3   OH237605   5.566   1.830   6.282 -0.2715 -0.8614  0.0414
 5397TIP3    H137606   5.630   1.761   6.296  0.1517 -0.8945 -1.8635
 5397TIP3    H237607   5.618   1.909   6.265 -0.7478 -0.5071  0.1801
 5398TIP3   OH237608   4.158   1.940   4.506  0.6359  0.4584 -0.4025
 5398TIP3    H137609   4.198   1.882   4.442  0.2013  0.8410 -1.0279
 5398TIP3    H237610   4.085   1.980   4.460 -0.0239  0.3212  0.5084
 5399TIP3   OH237611   3.943   4.793  15.289 -0.2391  0.0663  0.8967
 5399TIP3    H137612   3.940   4.878  15.332  0.7059 -0.2879  1.6937
 5399TIP3    H237613   3.869   4.795  15.227  0.6986  2.0637 -0.2606
 5400TIP3   OH237614   5.037   6.772   3.899 -0.2229  0.6595 -0.1456
 5400TIP3    H137615   5.119   6.822   3.908  0.1785 -0.1808  1.0770
 5400TIP3    H237616   4.991   6.815   3.827  1.1487  1.3535 -0.6472
 5401TIP3   OH237617   5.328   5.235   6.329  0.1887 -0.2028 -0.7353
 5401TIP3    H137618   5.383   5.279   6.393 -0.6626  0.0608 -0.1742
 5401TIP3    H237619   5.278   5.171   6.380 -1.7213  1.1492 -0.8338
 5402TIP3   OH237620   0.563   4.237   3.567 -0.0105 -0.2981  0.1212
 5402TIP3    H137621   0.501   4.257   3.638 -0.0875 -1.8124  0.5217
 5402TIP3    H237622   0.541   4.147   3.542  1.1051 -0.3477 -0.7037
 5403TIP3   OH237623   4.227   5.549  11.859 -0.1305  0.6192 -0.2043
 5403TIP3    H137624   4.187   5.621  11.909 -3.1943 -0.9639 -0.1215
 5403TIP3    H237625   4.269   5.495  11.925  0.5604  1.3256 -0.0457
 5404TIP3   OH237626   4.681   4.285  14.826  0.8021  0.0573  0.5211
 5404TIP3    H137627   4.655   4.199  14.859  0.9244 -0.0716  0.2842
 5404TIP3    H237628   4.758   4.268  14.771 -0.0046  0.1317 -0.6655
 5405TIP3   OH237629   0.772   1.536  11.309  0.0272 -0.1908 -0.3199
 5405TIP3    H137630   0.714   1.607  11.338  0.5274 -0.4037  1.3162
 5405TIP3    H237631   0.811   1.568  11.228  1.5963  2.2257  1.2402
 5406TIP3   OH237632   1.208   4.734   5.664 -0.2545  0.4782 -0.1139
 5406TIP3    H137633   1.301   4.719   5.683  0.2298  1.8015 -1.2426
 5406TIP3    H237634   1.170   4.647   5.662  1.2089 -0.1859 -0.7728
 5407TIP3   OH237635   6.691   0.835  13.891 -0.2954  0.7128  0.2549
 5407TIP3    H137636   6.731   0.921  13.905  0.6189  0.0793  1.7011
 5407TIP3    H237637   6.719   0.782  13.966  1.3831 -1.6756 -1.8885
 5408TIP3   OH237638   0.445   3.355  13.636 -0.3429  0.7157 -0.5899
 5408TIP3    H137639   0.461   3.288  13.702 -0.1060  0.1455 -1.2131
 5408TIP3    H237640   0.366   3.401  13.666 -0.9161 -0.3005 -0.5171
 5409TIP3   OH237641   2.855   1.180  11.841  0.1878  0.3880 -0.1346
 5409TIP3    H137642   2.778   1.194  11.785  1.2877  0.1691 -1.7674
 5409TIP3    H237643   2.866   1.263  11.887 -2.2995 -0.2491  1.8930
 5410TIP3   OH237644   5.372   2.208  13.594 -0.5744 -0.1780  0.4148
 5410TIP3    H137645   5.357   2.167  13.509  1.1608 -1.1176  0.5170
 5410TIP3    H237646   5.285   2.233  13.624 -1.1931  0.6185 -1.8303
 5411TIP3   OH237647   4.546   3.560  12.202  0.1194 -0.7312 -0.3589
 5411TIP3    H137648   4.542   3.653  12.178 -0.7828 -0.4811  0.6619
 5411TIP3    H237649   4.635   3.549  12.237  0.0048 -0.0622  0.1780
 5412TIP3   OH237650   5.583   3.764   1.755 -0.5723  0.2098  0.2968
 5412TIP3    H137651   5.554   3.826   1.822 -0.5816  0.1779  0.3222
 5412TIP3    H237652   5.505   3.712   1.735 -0.6873  0.5157 -0.0650
 5413TIP3   OH237653   1.443   2.932  12.900 -0.0320  0.2324  0.0945
 5413TIP3    H137654   1.530   2.895  12.882  0.1267  0.3657  0.5646
 5413TIP3    H237655   1.386   2.855  12.910  0.3986  0.0724  1.5814
 5414TIP3   OH237656   0.007   5.861  13.272 -0.6814  0.4264  0.2437
 5414TIP3    H137657  -0.009   5.831  13.362 -0.0963  1.3704  0.6750
 5414TIP3    H237658  -0.076   5.848  13.228 -0.6352 -1.2549  0.5615
 5415TIP3   OH237659   4.273   3.243  12.369  0.4262 -0.6413  0.1885
 5415TIP3    H137660   4.227   3.161  12.350 -0.2093 -0.9298  2.6589
 5415TIP3    H237661   4.203   3.308  12.380  0.7295 -0.4961  1.3613
 5416TIP3   OH237662   3.339   5.205   1.716 -0.1481  0.0113  0.3860
 5416TIP3    H137663   3.372   5.124   1.754 -0.1886 -0.5392 -0.7141
 5416TIP3    H237664   3.386   5.214   1.633 -0.3792  0.9441  0.3434
 5417TIP3   OH237665   0.075   2.317   4.654  0.2953 -0.2605  0.2188
 5417TIP3    H137666   0.074   2.279   4.567  0.3920 -0.2049  0.1940
 5417TIP3    H237667   0.025   2.255   4.708 -1.0392  0.4434 -0.1838
 5418TIP3   OH237668   6.595   3.443   4.338  0.7450  0.5287 -0.0892
 5418TIP3    H137669   6.630   3.397   4.414  1.6208  2.0509  0.4830
 5418TIP3    H237670   6.588   3.376   4.270 -1.8476 -1.2864  1.8105
 5419TIP3   OH237671   4.752   4.458   4.816 -0.0862 -0.4717 -0.0768
 5419TIP3    H137672   4.770   4.376   4.862  0.2198 -0.9719 -1.0538
 5419TIP3    H237673   4.711   4.431   4.734  0.9655  0.2754 -0.8889
 5420TIP3   OH237674   0.520   4.514   0.770 -0.0140  0.4507  1.4500
 5420TIP3    H137675   0.491   4.603   0.750 -0.2835  0.9609  3.8299
 5420TIP3    H237676   0.465   4.486   0.842  2.2586 -0.3467  2.9920
 5421TIP3   OH237677   0.399   1.376   5.955 -0.2318 -0.4018  0.4894
 5421TIP3    H137678   0.323   1.418   5.996 -0.8200 -0.2474 -0.7030
 5421TIP3    H237679   0.459   1.448   5.936 -1.3131 -0.0113 -1.7086
 5422TIP3   OH237680   1.177   1.098   0.184 -0.2850  0.4305  0.3209
 5422TIP3    H137681   1.270   1.089   0.164 -0.1171  2.1004  0.2331
 5422TIP3    H237682   1.156   1.188   0.160 -1.6462  0.4531  1.5032
 5423TIP3   OH237683   6.219   2.662   1.460  0.0255  0.2112 -0.5050
 5423TIP3    H137684   6.263   2.590   1.505 -0.5080 -0.5034 -1.0717
 5423TIP3    H237685   6.201   2.727   1.528  0.0353 -0.4422  0.1349
 5424TIP3   OH237686   1.170   6.444   3.992 -0.1512  0.0777 -0.1825
 5424TIP3    H137687   1.193   6.506   4.062  3.4446 -0.1844 -0.9395
 5424TIP3    H237688   1.173   6.358   4.034  1.4792 -0.0361 -0.4696
 5425TIP3   OH237689   1.597   3.427  10.775  0.2159 -0.3227  0.1988
 5425TIP3    H137690   1.552   3.453  10.695  0.8416  0.2107  0.0082
 5425TIP3    H237691   1.639   3.344  10.752 -0.1115 -0.4810  0.1686
 5426TIP3   OH237692   5.984   3.628   3.155 -0.1194  0.0446  0.4409
 5426TIP3    H137693   6.002   3.675   3.074  1.8154 -2.6564 -0.8763
 5426TIP3    H237694   6.067   3.626   3.201 -0.4304 -1.0698  0.9938
 5427TIP3   OH237695   2.303   0.403  16.933  0.1574 -0.4095  0.4483
 5427TIP3    H137696   2.291   0.326  16.877  0.0820  0.4956 -0.8138
 5427TIP3    H237697   2.397   0.422  16.927 -0.1255  0.7011 -0.7669
 5428TIP3   OH237698   0.758   5.947   4.477 -0.4562  0.0567 -0.1270
 5428TIP3    H137699   0.785   5.946   4.569 -0.8156 -0.2214 -0.0229
 5428TIP3    H237700   0.721   6.034   4.463  0.2031  0.3328 -0.1887
 5429TIP3   OH237701   5.091   0.236   2.211 -0.0215  0.1336 -0.0957
 5429TIP3    H137702   5.090   0.289   2.132 -1.3857 -2.2827 -1.8323
 5429TIP3    H237703   5.036   0.283   2.273 -0.0859  1.3862 -1.0839
 5430TIP3   OH237704   2.564   5.474  12.419  0.0381  0.5105  0.0601
 5430TIP3    H137705   2.654   5.456  12.395 -0.0233 -2.3012  1.5687
 5430TIP3    H237706   2.511   5.415  12.365 -0.7114  0.3878  0.8982
 5431TIP3   OH237707   0.769   2.900  11.577 -0.3977 -0.1617  0.3487
 5431TIP3    H137708   0.832   2.950  11.525  0.1590 -1.3218 -0.1048
 5431TIP3    H237709   0.815   2.881  11.659 -0.1370 -1.0651 -0.0082
 5432TIP3   OH237710   3.859   0.833  13.373  0.0895 -0.1325 -0.0640
 5432TIP3    H137711   3.882   0.866  13.286 -0.1630  1.0107  0.2930
 5432TIP3    H237712   3.819   0.907  13.417 -2.3386 -1.4355  0.0995
 5433TIP3   OH237713   1.066   4.755   0.748  0.6961  0.1808 -0.0053
 5433TIP3    H137714   1.133   4.731   0.812 -0.1508  1.0613  1.2333
 5433TIP3    H237715   1.050   4.674   0.699  2.9243  0.0338 -0.6068
 5434TIP3   OH237716   4.688   2.243   4.501 -0.0681 -0.4988  0.1865
 5434TIP3    H137717   4.731   2.207   4.579  1.1700  0.7474  0.1111
 5434TIP3    H237718   4.660   2.165   4.452  3.4700 -1.5637 -0.5117
 5435TIP3   OH237719   6.162   4.487   1.877  0.5297 -0.2804  0.7111
 5435TIP3    H137720   6.210   4.418   1.831  0.4024  0.8007 -1.1507
 5435TIP3    H237721   6.070   4.461   1.872  0.5081 -0.1197  0.2660
 5436TIP3   OH237722   0.600   3.712  13.382 -0.1789 -0.2677 -0.0288
 5436TIP3    H137723   0.615   3.770  13.307 -0.9799  0.5731  0.4440
 5436TIP3    H237724   0.507   3.690  13.376 -0.5096  0.6493  1.2925
 5437TIP3   OH237725   1.732   4.796   1.823  0.0254 -1.1556  0.1721
 5437TIP3    H137726   1.684   4.875   1.849  0.1906 -1.1768  0.5512
 5437TIP3    H237727   1.747   4.807   1.729 -0.4802 -1.0192  0.1007
 5438TIP3   OH237728   2.386   5.181  14.082  0.0238  0.0394 -0.1420
 5438TIP3    H137729   2.316   5.225  14.131 -0.0783  0.3858 -0.5863
 5438TIP3    H237730   2.460   5.178  14.142 -0.2861 -0.0679  0.2330
 5439TIP3   OH237731   0.193   3.688   2.068 -0.0903  0.1251 -0.1590
 5439TIP3    H137732   0.267   3.712   2.124 -0.2435  3.6721 -1.1926
 5439TIP3    H237733   0.228   3.693   1.979 -0.7136 -1.9293 -0.5727
 5440TIP3   OH237734   0.771   1.695  12.396 -0.6850 -0.3497  0.1819
 5440TIP3    H137735   0.838   1.730  12.338 -1.6858  0.6632 -0.4079
 5440TIP3    H237736   0.720   1.771  12.423 -0.1205 -0.7435  2.6111
 5441TIP3   OH237737   4.225   3.293  11.858 -0.2578  0.5798  0.0005
 5441TIP3    H137738   4.277   3.230  11.908 -1.4766 -0.2018  0.3449
 5441TIP3    H237739   4.277   3.373  11.857  0.5856  0.0583  0.9904
 5442TIP3   OH237740   1.193   0.727  11.606  0.0059  0.9229  0.0425
 5442TIP3    H137741   1.124   0.687  11.659  0.0718  1.6253  0.6809
 5442TIP3    H237742   1.274   0.692  11.642 -0.0217 -1.3776 -1.9169
 5443TIP3   OH237743   5.094   2.697  14.424 -0.3309 -0.0131 -0.4770
 5443TIP3    H137744   5.089   2.638  14.349 -0.3785 -0.6123 -0.0058
 5443TIP3    H237745   5.031   2.662  14.487  1.1626 -0.7280  0.6724
 5444TIP3   OH237746   3.185   3.618  13.995  0.5546  0.1805 -0.0861
 5444TIP3    H137747   3.236   3.607  13.915  0.6429 -1.1597  0.1206
 5444TIP3    H237748   3.203   3.539  14.046 -1.5428 -0.2574  0.0950
 5445TIP3   OH237749   4.121   0.691  10.827 -0.6617  0.1562 -0.3480
 5445TIP3    H137750   4.209   0.659  10.806 -0.7008 -0.6795  0.6611
 5445TIP3    H237751   4.136   0.768  10.881 -0.5575  0.5817 -0.9786
 5446TIP3   OH237752   5.089   0.894   1.726 -0.0415 -0.3781 -0.1350
 5446TIP3    H137753   5.077   0.974   1.778  0.3490 -0.9675  0.8878
 5446TIP3    H237754   5.182   0.895   1.703  0.4044 -1.4958  1.5195
 5447TIP3   OH237755   5.842   4.142   4.735  0.8054  0.0089  0.1702
 5447TIP3    H137756   5.807   4.088   4.806 -0.3254  0.9610  0.3694
 5447TIP3    H237757   5.908   4.197   4.778 -0.5476  1.2573  0.7152
 5448TIP3   OH237758   6.749   0.822  12.922 -0.4237  0.3324  0.0420
 5448TIP3    H137759   6.823   0.768  12.895  0.4552  1.5779 -0.0704
 5448TIP3    H237760   6.679   0.758  12.941  0.5699 -0.8345 -0.1098
 5449TIP3   OH237761   3.899   4.715   1.552  0.6723  0.0046 -0.2348
 5449TIP3    H137762   3.811   4.714   1.589  1.0251  2.3825  0.8889
 5449TIP3    H237763   3.886   4.698   1.459 -0.6782 -1.9579  0.2397
 5450TIP3   OH237764   2.893   4.546   0.919 -0.3418 -0.0742 -0.4834
 5450TIP3    H137765   2.852   4.632   0.919  1.0586  0.6356 -1.4462
 5450TIP3    H237766   2.874   4.509   0.833 -0.5988 -0.5590 -0.2221
 5451TIP3   OH237767   1.396   0.085  15.621 -0.4624  0.2041 -0.1532
 5451TIP3    H137768   1.319   0.051  15.667  1.0316 -0.4173  2.0673
 5451TIP3    H237769   1.408   0.026  15.547 -1.6182 -0.1937 -0.0486
 5452TIP3   OH237770   3.003   2.621  13.595  0.1946  0.2319 -0.3188
 5452TIP3    H137771   3.079   2.679  13.580  0.7640 -0.2853  0.4524
 5452TIP3    H237772   2.989   2.577  13.512  1.2661 -0.2589 -0.2585
 5453TIP3   OH237773   3.436   5.901   5.566  0.1921 -0.5843  0.3213
 5453TIP3    H137774   3.527   5.928   5.555  0.1601 -0.5557  0.1252
 5453TIP3    H237775   3.438   5.839   5.639  0.3275 -0.3770  0.4957
 5454TIP3   OH237776   4.770   1.844  13.085  0.0095  0.1535 -0.0143
 5454TIP3    H137777   4.833   1.907  13.051  0.5982 -0.8411 -0.8083
 5454TIP3    H237778   4.819   1.793  13.150 -0.4397  0.4340  0.5596
 5455TIP3   OH237779   1.834   2.575   1.029 -0.2357 -0.5028  0.0309
 5455TIP3    H137780   1.902   2.641   1.045 -0.1637 -0.7982  1.0276
 5455TIP3    H237781   1.756   2.625   1.008  0.3124 -0.1585 -1.2441
 5456TIP3   OH237782   1.152   4.275  13.296  0.7071 -0.4230  0.6907
 5456TIP3    H137783   1.139   4.196  13.244 -0.1312 -0.3913  0.8479
 5456TIP3    H237784   1.169   4.344  13.231  0.8255 -0.6045  0.5271
 5457TIP3   OH237785   1.511   0.310   0.833  0.3942 -0.1562  0.0341
 5457TIP3    H137786   1.507   0.271   0.920  1.1094  2.0910  1.1453
 5457TIP3    H237787   1.582   0.263   0.789 -1.1187 -2.5372 -0.0562
 5458TIP3   OH237788   2.574   1.603  17.003  0.4298  0.1991  0.6719
 5458TIP3    H137789   2.500   1.658  17.027  1.6676  1.8411  0.9173
 5458TIP3    H237790   2.643   1.665  16.980  1.7738 -1.2750  0.5642
 5459TIP3   OH237791   6.746   3.172  11.945 -0.1098  0.2721 -0.5500
 5459TIP3    H137792   6.731   3.118  12.022  1.3319  0.7500  0.0965
 5459TIP3    H237793   6.658   3.197  11.916 -0.6620  1.2242  1.7592
 5460TIP3   OH237794   4.923   0.902  16.565  0.0470  0.5854 -0.6952
 5460TIP3    H137795   4.969   0.864  16.640 -0.6971 -0.5603 -0.8096
 5460TIP3    H237796   4.993   0.944  16.514  0.9893 -1.0748 -0.8409
 5461TIP3   OH237797   3.715   1.241   4.257 -0.6608 -0.6302 -0.2421
 5461TIP3    H137798   3.624   1.214   4.268 -0.6691 -1.0555 -1.2678
 5461TIP3    H237799   3.760   1.163   4.226 -0.0790 -0.2450 -0.3969
 5462TIP3   OH237800   5.521   2.167  14.118 -0.6009 -0.1002  0.0274
 5462TIP3    H137801   5.613   2.183  14.134 -0.2949  1.0505 -2.3973
 5462TIP3    H237802   5.475   2.219  14.183  0.4369  0.0826  0.6365
 5463TIP3   OH237803   4.095   3.053   4.347 -0.1401 -0.1926  0.1180
 5463TIP3    H137804   4.183   3.045   4.384 -0.5880 -0.1488  1.2394
 5463TIP3    H237805   4.107   3.045   4.252  1.3298  2.0810  0.0580
 5464TIP3   OH237806   3.520   6.592  12.268  0.8002 -0.4187  0.3452
 5464TIP3    H137807   3.470   6.511  12.278 -0.1906 -0.0296 -1.2148
 5464TIP3    H237808   3.466   6.659  12.310  0.2264 -0.1015 -0.8388
 5465TIP3   OH237809   6.546   5.016   5.957 -0.7837 -0.5745  0.0035
 5465TIP3    H137810   6.477   5.045   6.017 -0.6800  0.4565 -0.3520
 5465TIP3    H237811   6.519   5.048   5.871 -0.0160 -0.4210 -0.1901
 5466TIP3   OH237812   2.100   2.499   4.071 -0.0021  0.3172 -0.1691
 5466TIP3    H137813   2.020   2.552   4.074  0.0320  0.5759 -2.1451
 5466TIP3    H237814   2.164   2.556   4.028 -0.0512 -1.3684 -2.6454
 5467TIP3   OH237815   0.061   0.407  13.235 -0.3124 -0.2392 -0.0709
 5467TIP3    H137816   0.139   0.449  13.272  0.1103  0.7489 -1.9543
 5467TIP3    H237817   0.095   0.354  13.162 -1.4442  0.8905 -1.4735
 5468TIP3   OH237818   2.389   1.985   0.393  0.1335 -0.6436 -0.3476
 5468TIP3    H137819   2.350   1.945   0.315 -0.9172 -1.8331  0.7336
 5468TIP3    H237820   2.394   2.078   0.373  0.2829 -0.9706 -1.9817
 5469TIP3   OH237821   2.327   5.234  17.154 -0.2520 -0.0699 -0.0307
 5469TIP3    H137822   2.389   5.260  17.222  0.7766  0.1838 -1.0217
 5469TIP3    H237823   2.314   5.140  17.168  1.8916 -0.5653 -0.9383
 5470TIP3   OH237824   4.309   2.249  14.723 -0.1428  0.2546 -0.2025
 5470TIP3    H137825   4.298   2.239  14.817  0.2723  2.9329  0.2380
 5470TIP3    H237826   4.395   2.210  14.704 -0.4223 -0.6819  0.4455
 5471TIP3   OH237827   4.596   1.711  16.799 -0.2862 -0.4445  0.4757
 5471TIP3    H137828   4.658   1.638  16.809  0.0475 -0.3035 -0.4801
 5471TIP3    H237829   4.636   1.768  16.734 -1.9085 -0.9031 -1.0111
 5472TIP3   OH237830   5.879   3.742  13.710 -0.4639  0.0638  0.2519
 5472TIP3    H137831   5.939   3.670  13.731  0.3350 -0.7985 -4.0026
 5472TIP3    H237832   5.793   3.701  13.704 -0.0813 -0.5716 -1.6969
 5473TIP3   OH237833   5.158   2.636  11.864  0.0896 -0.6354 -0.3866
 5473TIP3    H137834   5.210   2.558  11.844 -0.9813 -2.3746  2.9370
 5473TIP3    H237835   5.220   2.698  11.902  0.1589 -2.1211  2.1449
 5474TIP3   OH237836   3.442   2.328  11.538 -0.9500 -0.5542 -0.4788
 5474TIP3    H137837   3.466   2.413  11.573 -1.2433 -0.6388 -0.0635
 5474TIP3    H237838   3.395   2.347  11.457  1.8069 -0.4189 -2.1775
 5475TIP3   OH237839   3.940   1.928  14.460 -0.4475  0.3819  0.0948
 5475TIP3    H137840   3.873   1.879  14.413  0.0928 -0.1558 -0.1176
 5475TIP3    H237841   3.988   1.863  14.510  0.2678  0.6794 -0.1824
 5476TIP3   OH237842   3.418   3.581   0.737  0.0248 -0.5127 -0.4547
 5476TIP3    H137843   3.458   3.567   0.651 -0.7943  2.2178 -1.3625
 5476TIP3    H237844   3.329   3.609   0.718 -0.3479 -0.3612  1.3359
 5477TIP3   OH237845   3.399   0.763  14.459  0.4246  0.0177 -0.3486
 5477TIP3    H137846   3.433   0.745  14.372  0.5028 -0.5748 -0.2026
 5477TIP3    H237847   3.453   0.709  14.517  0.8383  0.9360  0.1439
 5478TIP3   OH237848   1.783   0.978  13.102  0.1066 -0.3341 -0.4114
 5478TIP3    H137849   1.712   1.041  13.106 -0.4667 -0.9749 -0.2236
 5478TIP3    H237850   1.861   1.028  13.124 -0.2272  0.4561 -0.9513
 5479TIP3   OH237851   2.934   3.455  13.104  0.1141  0.2216  0.0412
 5479TIP3    H137852   3.012   3.403  13.083 -1.3142 -0.8062 -3.5780
 5479TIP3    H237853   2.862   3.407  13.063 -1.6660  3.6794 -1.2758
 5480TIP3   OH237854   4.569   2.882   6.495 -0.1795  0.0280  0.4530
 5480TIP3    H137855   4.500   2.937   6.458 -0.7204 -0.0618  1.2876
 5480TIP3    H237856   4.651   2.917   6.458 -0.7342 -0.7228 -1.6189
 5481TIP3   OH237857   4.221   2.674   4.882 -0.4652  0.2930  0.4368
 5481TIP3    H137858   4.217   2.684   4.786 -0.6349 -2.3158  0.0819
 5481TIP3    H237859   4.254   2.758   4.914 -1.9244  1.8117 -1.7561
 5482TIP3   OH237860   5.166   4.649  15.282 -0.7381 -0.1949  0.3733
 5482TIP3    H137861   5.135   4.739  15.269 -2.4307 -0.7261  0.4857
 5482TIP3    H237862   5.102   4.610  15.341  0.9391 -0.9836  1.7869
 5483TIP3   OH237863   4.697   3.925   4.408  0.1048 -0.3249  0.7174
 5483TIP3    H137864   4.643   4.002   4.391  0.1626 -0.3229  0.5436
 5483TIP3    H237865   4.655   3.883   4.483 -0.6094 -0.7645  0.0869
 5484TIP3   OH237866   6.726   2.890   5.575  0.3784 -0.4994  0.2745
 5484TIP3    H137867   6.792   2.896   5.644 -1.8060 -0.7263  2.5225
 5484TIP3    H237868   6.752   2.958   5.513  1.1311  1.4959  2.5681
 5485TIP3   OH237869   3.608   5.871   1.591 -0.4885 -0.2791 -0.4533
 5485TIP3    H137870   3.580   5.915   1.510 -0.6402  0.5522  0.0387
 5485TIP3    H237871   3.534   5.816   1.615 -0.2051 -1.0240 -1.2064
 5486TIP3   OH237872   4.735   2.169   0.041 -0.1748  0.3123  0.0463
 5486TIP3    H137873   4.777   2.195  -0.041 -0.4911  0.3057 -0.1214
 5486TIP3    H237874   4.796   2.196   0.110 -0.5475  1.6493 -0.1166
 5487TIP3   OH237875   6.156   0.189   4.186  0.3910 -0.5921  0.5610
 5487TIP3    H137876   6.170   0.216   4.277 -0.4605  0.6397  0.3413
 5487TIP3    H237877   6.178   0.267   4.134  0.1856 -1.0635 -0.2488
 5488TIP3   OH237878   0.195   0.110  15.334  0.1976  0.1939  0.2974
 5488TIP3    H137879   0.104   0.086  15.317  0.5746 -0.8824 -0.3388
 5488TIP3    H237880   0.245   0.064  15.266  1.4456 -1.1962  2.0765
 5489TIP3   OH237881   6.205   0.470   6.101  0.1470 -0.0220 -0.1241
 5489TIP3    H137882   6.222   0.505   6.189 -0.7305 -0.2891  0.1573
 5489TIP3    H237883   6.192   0.376   6.114 -0.8058  0.0613 -0.4261
 5490TIP3   OH237884   3.543   5.233   4.819 -0.0348 -0.3124 -0.2965
 5490TIP3    H137885   3.491   5.157   4.845 -0.6846 -0.2462 -1.3603
 5490TIP3    H237886   3.598   5.201   4.747  0.6417 -0.1053  0.1154
 5491TIP3   OH237887   1.160   5.430   4.537 -0.4988  0.2315 -0.3515
 5491TIP3    H137888   1.206   5.366   4.483 -1.8231 -1.0787  0.0015
 5491TIP3    H237889   1.168   5.512   4.489  1.0481 -0.2218 -0.9366
 5492TIP3   OH237890   4.345   2.238  13.897 -0.1499 -0.0330 -0.2060
 5492TIP3    H137891   4.295   2.164  13.865  0.4028 -0.2817 -0.5040
 5492TIP3    H237892   4.432   2.227  13.859  0.5584 -0.3918  1.4440
 5493TIP3   OH237893   0.819   0.027  14.622  0.0848 -0.5119 -0.3843
 5493TIP3    H137894   0.796   0.015  14.714  1.2835 -2.3807 -0.2653
 5493TIP3    H237895   0.740   0.062  14.582 -0.9189 -0.9576  1.1109
 5494TIP3   OH237896   6.183   3.409   4.460 -0.1391  0.2223  0.5875
 5494TIP3    H137897   6.263   3.411   4.512  1.2124 -1.7364 -1.2283
 5494TIP3    H237898   6.201   3.468   4.387 -1.6744  2.2460  1.7234
 5495TIP3   OH237899   5.652   0.978   6.509 -0.2171  0.1524 -0.7383
 5495TIP3    H137900   5.642   0.951   6.600 -0.5787  0.8337 -0.5754
 5495TIP3    H237901   5.677   0.898   6.463 -2.3307 -0.7262 -0.4582
 5496TIP3   OH237902   5.932   4.547  14.423 -0.6626 -0.3802  0.1731
 5496TIP3    H137903   5.973   4.614  14.477 -1.2843  0.6666 -0.6138
 5496TIP3    H237904   5.972   4.558  14.336 -1.4429 -0.3878 -0.2001
 5497TIP3   OH237905   5.716   1.525  14.170 -0.2001  0.2172 -0.3538
 5497TIP3    H137906   5.717   1.470  14.091  0.7595  1.8196 -1.5124
 5497TIP3    H237907   5.625   1.555  14.177  0.0784  1.5929 -2.0046
 5498TIP3   OH237908   4.668   4.335   0.932 -0.2565 -0.3631  0.5463
 5498TIP3    H137909   4.587   4.311   0.975 -0.0797  1.2827  1.9142
 5498TIP3    H237910   4.673   4.278   0.855 -1.3823 -2.2840  1.8371
 5499TIP3   OH237911   4.038   2.189  12.489 -0.1289 -0.8375 -0.1530
 5499TIP3    H137912   3.964   2.182  12.429  2.2183 -1.8658 -3.1486
 5499TIP3    H237913   4.055   2.283  12.496  0.2826 -0.7236 -2.1819
 5500TIP3   OH237914   5.364   4.520  15.847 -0.4878 -0.3266  0.2495
 5500TIP3    H137915   5.322   4.599  15.881 -1.9640 -0.8534 -0.2764
 5500TIP3    H237916   5.339   4.518  15.755  0.3008 -0.9367  0.0431
 5501TIP3   OH237917   0.321   1.811  12.786  0.5230  0.4182  0.3260
 5501TIP3    H137918   0.416   1.825  12.787  0.8472 -1.2426 -1.0977
 5501TIP3    H237919   0.302   1.772  12.872  0.7519  2.5630  1.4045
 5502TIP3   OH237920   1.783   4.944   0.416 -0.3413 -0.0467  0.2572
 5502TIP3    H137921   1.767   4.855   0.383 -3.0426 -0.6998  2.9106
 5502TIP3    H237922   1.869   4.939   0.457 -0.2529 -1.3123 -0.0290
 5503TIP3   OH237923   3.222   4.344  17.181 -0.2286 -0.0925 -0.2812
 5503TIP3    H137924   3.245   4.401  17.255 -1.1943  1.1606 -0.9159
 5503TIP3    H237925   3.179   4.268  17.222 -0.4914  0.4512  0.4746
 5504TIP3   OH237926   5.235   1.771   2.570 -0.0918  0.9128 -0.0890
 5504TIP3    H137927   5.327   1.764   2.592  0.0054  1.4126 -0.3093
 5504TIP3    H237928   5.189   1.738   2.647  0.2784 -0.8131 -0.5671
 5505TIP3   OH237929   3.143   0.490   0.777  0.3372 -0.0107  0.0620
 5505TIP3    H137930   3.110   0.477   0.866  1.0158 -1.7265  0.0914
 5505TIP3    H237931   3.075   0.454   0.720 -0.5801  2.0167 -0.2288
 5506TIP3   OH237932   4.754   6.071  13.484  0.7255  0.1929 -0.1589
 5506TIP3    H137933   4.761   6.052  13.578  0.1805  0.6718 -0.0090
 5506TIP3    H237934   4.721   6.161  13.481  0.8403  0.2147 -0.8118
 5507TIP3   OH237935   1.642   6.030  16.872  0.0382  0.2379 -0.3717
 5507TIP3    H137936   1.600   6.099  16.923 -0.1147  2.1286 -2.8397
 5507TIP3    H237937   1.573   5.966  16.855 -0.0499 -0.1159  1.2045
 5508TIP3   OH237938   1.724   6.694  16.640 -0.3165 -0.1020  0.3520
 5508TIP3    H137939   1.677   6.777  16.646 -0.1741  0.1572 -1.3956
 5508TIP3    H237940   1.658   6.631  16.611 -0.2785 -0.4571  1.0273
 5509TIP3   OH237941   3.160   3.658   3.540 -0.0380  0.2569  0.6194
 5509TIP3    H137942   3.100   3.727   3.513  0.1920  1.3245  2.6127
 5509TIP3    H237943   3.247   3.695   3.527  0.1613 -0.5025 -0.3200
 5510TIP3   OH237944   2.152   4.366   0.936  0.1961 -0.3506  0.2983
 5510TIP3    H137945   2.152   4.461   0.947  1.7211 -0.1427 -1.0897
 5510TIP3    H237946   2.219   4.350   0.869  0.1191 -2.4287  0.6660
 5511TIP3   OH237947   6.596   3.511  11.917 -0.0763 -0.0361  0.5431
 5511TIP3    H137948   6.610   3.448  11.846  1.5533  1.8123 -0.8709
 5511TIP3    H237949   6.525   3.567  11.887 -0.1883  0.0307  0.9242
 5512TIP3   OH237950   1.988   1.687  13.444 -0.2027 -0.0105 -0.6445
 5512TIP3    H137951   2.014   1.596  13.446  0.1399  0.0875 -0.6269
 5512TIP3    H237952   2.052   1.730  13.388  0.1603  0.3743  0.0492
 5513TIP3   OH237953   0.971   6.033  13.169  0.3738  0.2459 -0.0285
 5513TIP3    H137954   0.952   5.954  13.218  2.4195 -0.3830 -0.1324
 5513TIP3    H237955   0.920   6.025  13.088  0.0153 -0.6207  0.2801
 5514TIP3   OH237956   0.285   2.560   0.544  0.3114  0.3593 -0.0069
 5514TIP3    H137957   0.232   2.549   0.623  0.4623  0.9094  0.1789
 5514TIP3    H237958   0.342   2.483   0.543  0.0043  0.1241  0.1760
 5515TIP3   OH237959   1.465   5.336   0.574 -0.7007  0.0145 -0.0916
 5515TIP3    H137960   1.506   5.389   0.506 -1.4852  1.0040  0.1816
 5515TIP3    H237961   1.371   5.343   0.558 -0.8438 -0.8718  0.2714
 5516TIP3   OH237962   5.924   4.832   2.724  0.3450  0.3219 -0.2172
 5516TIP3    H137963   5.965   4.794   2.647  1.1850 -0.7631  0.7354
 5516TIP3    H237964   5.941   4.770   2.794 -2.7437 -0.0722  0.3154
 5517TIP3   OH237965   3.458   6.270   1.295 -0.4495  0.4319 -0.0308
 5517TIP3    H137966   3.440   6.353   1.251  1.0218  1.0062  0.3872
 5517TIP3    H237967   3.553   6.262   1.292 -0.5424 -1.0234  0.3522
 5518TIP3   OH237968   3.736   1.297   2.918  0.3540  0.4500  0.0474
 5518TIP3    H137969   3.660   1.240   2.911  1.2046 -0.5498 -1.4783
 5518TIP3    H237970   3.709   1.378   2.874 -0.3755  0.7599  1.0123
 5519TIP3   OH237971   1.363   5.332  16.216  0.5915  0.0650  0.0508
 5519TIP3    H137972   1.362   5.282  16.298  0.8648 -0.3705 -0.2073
 5519TIP3    H237973   1.358   5.266  16.147  2.5652  0.2583 -0.3441
 5520TIP3   OH237974   0.266   6.216   1.824 -0.7322 -0.1063  0.6384
 5520TIP3    H137975   0.351   6.260   1.823 -0.1733 -1.1544  0.0760
 5520TIP3    H237976   0.207   6.276   1.777  0.0329 -0.0055 -0.2203
 5521TIP3   OH237977   4.678   3.362  17.057  0.1032 -0.0268 -0.1244
 5521TIP3    H137978   4.630   3.420  16.998  0.3119 -1.2136 -1.5360
 5521TIP3    H237979   4.769   3.364  17.025  0.1034 -1.1435 -0.2501
 5522TIP3   OH237980   4.526   6.691   2.608 -0.2107  0.7167  0.4101
 5522TIP3    H137981   4.526   6.779   2.647 -2.7972  1.0599 -0.2050
 5522TIP3    H237982   4.528   6.631   2.682  0.5417  1.2752  0.8600
 5523TIP3   OH237983   4.977   2.698   2.329 -0.4539  0.6187 -0.0638
 5523TIP3    H137984   5.071   2.683   2.323 -0.5396 -2.1893  2.8970
 5523TIP3    H237985   4.964   2.736   2.416 -2.1112 -0.1292  0.0619
 5524TIP3   OH237986   2.865   3.992   5.568  0.0096  0.4904 -0.2564
 5524TIP3    H137987   2.871   3.932   5.493  0.8963 -1.9706  1.6348
 5524TIP3    H237988   2.793   3.957   5.621  0.2056  1.4173  0.6573
 5525TIP3   OH237989   3.047   0.003  11.575 -1.2641 -0.8506 -0.5832
 5525TIP3    H137990   3.034  -0.054  11.500 -2.0207 -1.6424  0.1405
 5525TIP3    H237991   3.116  -0.039  11.626  0.9783  0.8831 -1.9727
 5526TIP3   OH237992   6.329   1.826   0.451 -0.3085 -0.4274  0.3021
 5526TIP3    H137993   6.353   1.786   0.535  2.0712  0.0919 -0.0472
 5526TIP3    H237994   6.390   1.787   0.388 -1.1728  0.1666 -0.9408
 5527TIP3   OH237995   0.122   0.676  13.135 -0.2637 -0.0874 -0.2761
 5527TIP3    H137996   0.186   0.622  13.088 -0.9131 -1.2589  0.1285
 5527TIP3    H237997   0.169   0.756  13.158  1.0045 -0.8524 -0.1420
 5528TIP3   OH237998   2.695   4.472   5.100 -0.8332  0.3027  0.3085
 5528TIP3    H137999   2.759   4.528   5.055 -0.6035 -0.8294 -0.8068
 5528TIP3    H238000   2.680   4.517   5.184  1.7715  0.3734  0.8246
 5529TIP3   OH238001   5.730   0.258  15.814  0.3155 -0.3144  0.6334
 5529TIP3    H138002   5.796   0.212  15.762  0.9738  0.7579  0.4743
 5529TIP3    H238003   5.682   0.189  15.859  0.1108 -1.2557 -0.9330
 5530TIP3   OH238004   0.811   4.916  14.835  0.0754 -0.4160 -0.2514
 5530TIP3    H138005   0.793   4.931  14.928  0.4053  0.1991 -0.2761
 5530TIP3    H238006   0.867   4.839  14.833 -0.7582 -1.0462 -0.0184
 5531TIP3   OH238007   3.029   0.207  13.774  0.1020  0.2293 -0.6025
 5531TIP3    H138008   3.119   0.190  13.746  0.0830  0.8880 -1.0799
 5531TIP3    H238009   3.036   0.272  13.844  0.0337 -0.1637 -0.2252
 5532TIP3   OH238010   1.698   2.663  12.513 -0.3666  0.1216  0.2579
 5532TIP3    H138011   1.664   2.748  12.541 -0.3468  0.3968 -0.5325
 5532TIP3    H238012   1.781   2.654  12.561 -0.2701  0.6421  0.2004
 5533TIP3   OH238013   1.613   1.071  15.218 -0.7421 -0.3810  0.0894
 5533TIP3    H138014   1.562   1.086  15.298 -0.8406 -1.3288  0.2118
 5533TIP3    H238015   1.621   0.976  15.212 -1.1147 -0.3429 -1.2738
 5534TIP3   OH238016   5.697   2.942   2.176  0.3924 -0.0654  0.5227
 5534TIP3    H138017   5.663   2.924   2.089 -1.1188  0.2018  1.0211
 5534TIP3    H238018   5.763   2.875   2.192 -1.7488 -2.2992  0.5080
 5535TIP3   OH238019   1.360   4.334  17.007 -0.2805  0.3655  0.2952
 5535TIP3    H138020   1.337   4.300  17.094  1.0119  0.4808  0.7052
 5535TIP3    H238021   1.403   4.418  17.025  0.3108  0.2225 -0.4221
 5536TIP3   OH238022   5.918   5.178   0.248 -0.0399  0.3685  0.8328
 5536TIP3    H138023   5.833   5.203   0.213 -1.1097 -0.6290  2.5683
 5536TIP3    H238024   5.906   5.088   0.278  1.6469  0.1876  1.0735
 5537TIP3   OH238025   4.216   0.602   6.169 -0.4457 -0.1761 -0.1746
 5537TIP3    H138026   4.177   0.590   6.255  1.6277  0.2086  0.8775
 5537TIP3    H238027   4.185   0.689   6.141 -0.2172  0.1988  0.7069
 5538TIP3   OH238028   0.725   3.626   2.637 -0.3460  0.2863 -0.2220
 5538TIP3    H138029   0.679   3.636   2.554  0.1971 -1.3225 -0.7555
 5538TIP3    H238030   0.679   3.683   2.697 -1.2328  0.8977 -1.4451
 5539TIP3   OH238031   4.300   1.552   6.528  0.4680  0.3339  0.1398
 5539TIP3    H138032   4.261   1.568   6.442 -0.4673 -0.3170  0.4238
 5539TIP3    H238033   4.356   1.628   6.544  0.2083  0.7329 -0.7917
 5540TIP3   OH238034   2.473   1.730   5.832 -0.4580 -0.0141 -0.1496
 5540TIP3    H138035   2.468   1.763   5.921  0.4110  0.1253 -0.1407
 5540TIP3    H238036   2.420   1.791   5.780  0.1978  0.7377  0.0503
 5541TIP3   OH238037   2.756   1.649  12.701 -0.0373  1.0091  0.1467
 5541TIP3    H138038   2.755   1.726  12.644 -0.4117  0.0776 -1.1496
 5541TIP3    H238039   2.689   1.592  12.665 -0.7831  0.6749  1.9807
 5542TIP3   OH238040   3.836   5.930  11.946  0.5419 -0.2892 -0.1910
 5542TIP3    H138041   3.761   5.984  11.922  0.4202 -0.8419 -1.1329
 5542TIP3    H238042   3.912   5.977  11.912  0.5498 -0.1082  0.0778
 5543TIP3   OH238043   0.376   6.102   5.130 -0.8414  0.0172  0.1052
 5543TIP3    H138044   0.390   6.186   5.086 -0.8847  1.4508  2.5981
 5543TIP3    H238045   0.282   6.087   5.122 -0.9868  0.7059  0.4178
 5544TIP3   OH238046   3.474   0.041   5.763  0.5324  0.1114 -0.0820
 5544TIP3    H138047   3.384   0.071   5.748  1.3904  2.1787 -1.5652
 5544TIP3    H238048   3.488  -0.025   5.696  0.4408  0.5492 -0.5418
 5545TIP3   OH238049   0.952   6.437   0.153  0.6137  0.0137 -0.2976
 5545TIP3    H138050   0.901   6.487   0.089  1.9729  1.3286 -0.4065
 5545TIP3    H238051   0.893   6.368   0.181 -1.6730  2.1041  0.4216
 5546TIP3   OH238052   6.100   0.154   4.474  0.5558  0.4901  0.1489
 5546TIP3    H138053   6.182   0.135   4.520  0.4076 -1.1000 -0.1895
 5546TIP3    H238054   6.085   0.076   4.420 -0.3215  1.4649 -1.0520
 5547TIP3   OH238055   6.614   5.883  15.764 -0.2490 -0.3784 -0.4562
 5547TIP3    H138056   6.627   5.811  15.826  1.6977 -0.9241 -1.4279
 5547TIP3    H238057   6.654   5.959  15.807  0.4712 -0.5966 -0.7318
 5548TIP3   OH238058   2.260   0.212  14.617  0.3779  0.1185  0.8338
 5548TIP3    H138059   2.265   0.191  14.710  0.8442 -0.6992  0.6321
 5548TIP3    H238060   2.246   0.128  14.574  3.8201 -0.0906 -0.1364
 5549TIP3   OH238061   6.700   0.810  14.736  0.2179  0.2292 -0.3143
 5549TIP3    H138062   6.684   0.858  14.818  0.0935 -0.3905  0.0300
 5549TIP3    H238063   6.624   0.831  14.682 -0.1626 -0.0960  0.0831
 5550TIP3   OH238064   6.631   3.112   3.403 -0.1610  0.1976 -0.1101
 5550TIP3    H138065   6.711   3.148   3.441  0.2146  0.4317 -1.0966
 5550TIP3    H238066   6.576   3.091   3.479 -0.2720  2.5214  0.5350
 5551TIP3   OH238067   2.570   5.554   4.561  0.0499 -0.7424  0.5064
 5551TIP3    H138068   2.590   5.623   4.624 -3.0120  0.1053  0.7094
 5551TIP3    H238069   2.526   5.486   4.612 -2.3114 -0.1288 -0.5505
 5552TIP3   OH238070   2.136   2.979  16.120 -0.3618 -0.7560  0.0575
 5552TIP3    H138071   2.215   3.016  16.081 -1.1871  0.5093 -0.5101
 5552TIP3    H238072   2.107   2.912  16.058 -0.9002  0.2802 -0.8478
 5553TIP3   OH238073   2.731   6.200  16.922  0.4156  0.2698  0.1425
 5553TIP3    H138074   2.726   6.267  16.991 -0.2445  0.8966 -0.4936
 5553TIP3    H238075   2.814   6.217  16.879  1.2516 -0.6758  1.3079
 5554TIP3   OH238076   6.621   5.604  16.266 -0.9744  0.0096 -0.1299
 5554TIP3    H138077   6.707   5.571  16.292 -1.1374 -0.9908 -0.7996
 5554TIP3    H238078   6.560   5.556  16.321 -1.0995  0.9847  0.6007
 5555TIP3   OH238079   6.573   0.482  11.297 -0.2530  0.2571  0.1750
 5555TIP3    H138080   6.516   0.458  11.224  0.4292  0.5964 -0.4778
 5555TIP3    H238081   6.513   0.507  11.367 -1.2402 -4.8775  1.6009
 5556TIP3   OH238082   1.581   3.757   3.849  0.6582  0.0922  0.6225
 5556TIP3    H138083   1.661   3.798   3.814  0.8582  1.4461  2.5314
 5556TIP3    H238084   1.511   3.816   3.823  0.9080  1.6306  3.0773
 5557TIP3   OH238085   1.565   6.623  14.449 -0.1312 -0.0556  0.0746
 5557TIP3    H138086   1.618   6.653  14.375  1.0550  0.3664  1.0407
 5557TIP3    H238087   1.624   6.566  14.499 -0.6261  0.3170  1.1178
 5558TIP3   OH238088   6.097   5.223   5.850  0.0665  0.5694 -0.0334
 5558TIP3    H138089   6.008   5.207   5.820 -0.2076 -1.4748  1.6143
 5558TIP3    H238090   6.089   5.288   5.919 -0.3629 -0.4843  0.9449
 5559TIP3   OH238091   5.793   3.552   4.555 -0.8298  0.3639 -0.4791
 5559TIP3    H138092   5.757   3.608   4.623 -1.6127 -0.7516  0.0395
 5559TIP3    H238093   5.813   3.612   4.483 -0.2569  1.5194  0.5969
 5560TIP3   OH238094   4.297   1.564  11.004  0.1652 -0.0881  0.1456
 5560TIP3    H138095   4.298   1.656  10.977  0.3879 -0.1412 -0.0373
 5560TIP3    H238096   4.377   1.528  10.966  0.9702  0.0458  1.6455
 5561TIP3   OH238097   0.770   4.426   2.621 -0.6542 -0.1507 -0.1016
 5561TIP3    H138098   0.827   4.502   2.611 -0.2433 -0.1034  2.0280
 5561TIP3    H238099   0.819   4.367   2.679 -1.7268 -1.2294 -0.2482
 5562TIP3   OH238100   4.056   1.387  13.662 -0.5032  0.4568 -0.1408
 5562TIP3    H138101   3.962   1.406  13.654 -0.4238  1.4220  0.9397
 5562TIP3    H238102   4.072   1.319  13.597 -1.6746  1.2262 -1.2769
 5563TIP3   OH238103   3.413   2.310   1.970  0.0326  0.1755 -0.2441
 5563TIP3    H138104   3.385   2.230   2.015 -2.6853  0.8766 -0.4944
 5563TIP3    H238105   3.442   2.280   1.884 -0.0317 -0.6406  0.0050
 5564TIP3   OH238106   2.488   0.113  14.069  0.3193  0.4653 -0.1896
 5564TIP3    H138107   2.561   0.103  14.130  0.7510  0.3530 -0.7242
 5564TIP3    H238108   2.493   0.204  14.041  0.6612  0.2850 -0.7331
 5565TIP3   OH238109   4.171   3.229   5.048  0.3422 -0.2177  0.3039
 5565TIP3    H138110   4.266   3.242   5.055  0.4939 -0.9813 -0.2342
 5565TIP3    H238111   4.156   3.143   5.089 -0.3197  0.5298  1.6991
 5566TIP3   OH238112   4.993   2.112   4.266  0.2640 -0.2460  0.3563
 5566TIP3    H138113   4.959   2.199   4.290  0.1256 -0.2095  0.0285
 5566TIP3    H238114   5.020   2.074   4.349 -0.9141 -0.4218  0.6717
 5567TIP3   OH238115   2.874   0.446   4.789  0.4405  0.1282 -0.3667
 5567TIP3    H138116   2.886   0.434   4.883  0.5817  0.2184 -0.3727
 5567TIP3    H238117   2.958   0.421   4.750 -0.2008 -1.7776 -0.6467
 5568TIP3   OH238118   1.909   4.476   2.383  0.2738  0.4975 -0.0187
 5568TIP3    H138119   1.970   4.548   2.400 -1.2032  1.7165  0.3359
 5568TIP3    H238120   1.827   4.504   2.423 -0.6508 -0.9134 -0.8337
 5569TIP3   OH238121   1.860   1.449   5.161  0.3079  0.2645  0.4418
 5569TIP3    H138122   1.872   1.520   5.098  3.0159 -0.4643 -0.0284
 5569TIP3    H238123   1.884   1.487   5.246  0.3607  0.2995  0.4117
 5570TIP3   OH238124   5.535   6.146  11.020  0.1935  0.3907  0.6844
 5570TIP3    H138125   5.506   6.095  11.096 -1.5777  2.8570  1.7797
 5570TIP3    H238126   5.612   6.194  11.051  0.6127 -0.0154  0.2947
 5571TIP3   OH238127   1.879   2.581  15.662  0.4228 -0.3499  0.2335
 5571TIP3    H138128   1.924   2.640  15.601  2.5265 -1.1360  0.9365
 5571TIP3    H238129   1.890   2.494  15.624  0.7845 -0.7173  1.1514
 5572TIP3   OH238130   0.248   0.564  10.444 -0.1445  0.0270  0.0480
 5572TIP3    H138131   0.202   0.497  10.495 -0.1389  1.0758  1.4961
 5572TIP3    H238132   0.338   0.533  10.439 -0.5862 -1.1353 -1.2104
 5573TIP3   OH238133   3.558   3.833  17.212 -0.0409  0.4264 -0.4812
 5573TIP3    H138134   3.535   3.903  17.273 -0.2474 -0.6888  0.7668
 5573TIP3    H238135   3.642   3.860  17.176 -0.2695  1.4702 -0.2693
 5574TIP3   OH238136   1.785   0.393   5.628  0.2515 -0.6527 -0.7016
 5574TIP3    H138137   1.720   0.350   5.572  0.8645 -0.2027 -1.7756
 5574TIP3    H238138   1.779   0.486   5.605 -0.0041 -0.3424  0.5234
 5575TIP3   OH238139   5.905   5.741  17.268  0.5634 -0.1057  0.0166
 5575TIP3    H138140   5.974   5.775  17.211  0.6963  3.2048  1.8494
 5575TIP3    H238141   5.855   5.819  17.293 -2.6926 -2.1044  0.3466
 5576TIP3   OH238142   1.695   0.469  14.847 -0.2950 -0.3429  0.4400
 5576TIP3    H138143   1.753   0.529  14.801 -1.7805 -1.1760 -2.7980
 5576TIP3    H238144   1.752   0.400  14.880  0.9704  0.8837  0.8832
 5577TIP3   OH238145   3.300   3.284   2.424  0.0934 -0.5222  0.0345
 5577TIP3    H138146   3.209   3.258   2.440 -0.2882  0.9622  0.4233
 5577TIP3    H238147   3.305   3.374   2.456  1.4153 -0.2072 -0.9811
 5578TIP3   OH238148   3.614   3.544  15.509 -0.3529  0.0774  0.0163
 5578TIP3    H138149   3.681   3.602  15.545  1.3038  0.2518 -2.9420
 5578TIP3    H238150   3.539   3.552  15.567  2.3936 -0.7476  4.0627
 5579TIP3   OH238151   4.105   3.834   3.705 -0.2720 -0.0561 -0.5216
 5579TIP3    H138152   4.071   3.753   3.667 -1.1108  1.2412 -2.7535
 5579TIP3    H238153   4.033   3.897   3.693  0.7695  1.2799  0.1089
 5580TIP3   OH238154   3.265   1.380   4.864  0.0477 -0.3173  0.7082
 5580TIP3    H138155   3.329   1.387   4.793 -0.0927 -1.1674  0.4980
 5580TIP3    H238156   3.314   1.342   4.937  0.7379  2.3759  1.7787
 5581TIP3   OH238157   6.044   2.438  11.524 -0.5559 -0.5564 -0.0452
 5581TIP3    H138158   6.113   2.379  11.494  1.4636  1.4197  0.3789
 5581TIP3    H238159   6.022   2.491  11.448  1.0587  1.2013  0.6365
 5582TIP3   OH238160   5.491   1.546   5.507 -0.6478 -1.1408  0.2456
 5582TIP3    H138161   5.484   1.640   5.492  0.6564 -1.1474 -0.5472
 5582TIP3    H238162   5.463   1.534   5.598  0.4915  0.2017  0.8087
 5583TIP3   OH238163   3.302   2.555  15.062  0.2721 -0.0853  0.9641
 5583TIP3    H138164   3.290   2.478  15.007  0.4558 -1.6889  3.0617
 5583TIP3    H238165   3.240   2.619  15.027 -0.5293 -1.4727 -0.2797
 5584TIP3   OH238166   2.879   4.903   3.566  0.0281 -0.0354  0.4065
 5584TIP3    H138167   2.898   4.984   3.613  1.5811  0.0501 -0.3013
 5584TIP3    H238168   2.878   4.928   3.474  3.0751 -1.1629 -0.0650
 5585TIP3   OH238169   3.178   3.141   0.474  0.0762  0.0501 -0.3537
 5585TIP3    H138170   3.225   3.105   0.550  0.7170 -1.4625 -1.4168
 5585TIP3    H238171   3.092   3.101   0.479  0.2861 -0.4557 -0.6866
 5586TIP3   OH238172   5.435   2.111  12.371  0.1727 -0.1176 -0.2034
 5586TIP3    H138173   5.382   2.056  12.313 -0.3205 -1.2770  1.2965
 5586TIP3    H238174   5.525   2.085  12.353  0.0835  0.0542 -0.9520
 5587TIP3   OH238175   6.014   6.048  12.038  0.1086  0.2577 -0.4197
 5587TIP3    H138176   6.067   6.070  11.960 -0.5282 -0.6089 -1.1152
 5587TIP3    H238177   6.037   5.957  12.057 -0.6459  0.0871 -0.3251
 5588TIP3   OH238178   0.255   3.294  13.145 -0.1119  0.3905 -0.1993
 5588TIP3    H138179   0.299   3.259  13.223  1.8335  0.7021 -1.0957
 5588TIP3    H238180   0.164   3.305  13.172  0.4231  0.1306  1.9114
 5589TIP3   OH238181   0.492   5.325   3.881 -0.6480 -0.1609  0.2036
 5589TIP3    H138182   0.585   5.326   3.859 -0.3675 -0.1940  1.3030
 5589TIP3    H238183   0.490   5.305   3.975 -1.6838  1.2923  0.5325
 5590TIP3   OH238184   0.364   0.564  10.819 -0.2938  0.6263 -0.0941
 5590TIP3    H138185   0.278   0.521  10.822  0.5245 -1.0482  1.6409
 5590TIP3    H238186   0.426   0.492  10.803  0.9536  1.5002  0.6500
 5591TIP3   OH238187   0.801   4.665  17.103  0.3906  0.1602 -0.1408
 5591TIP3    H138188   0.731   4.710  17.151 -0.6055 -2.9110  1.5182
 5591TIP3    H238189   0.868   4.647  17.168  1.1122 -0.0606 -0.9288
 5592TIP3   OH238190   5.120   3.730  12.353  0.1572 -0.0950  0.4726
 5592TIP3    H138191   5.160   3.771  12.277 -3.3966 -0.4138 -1.8145
 5592TIP3    H238192   5.050   3.790  12.379 -1.5264 -1.9999  0.5991
 5593TIP3   OH238193   4.281   2.597  10.720  0.1963  0.5154  0.0239
 5593TIP3    H138194   4.338   2.543  10.775  0.1311  0.9124  0.4927
 5593TIP3    H238195   4.208   2.540  10.698  2.1192 -1.0446 -3.0875
 5594TIP3   OH238196   0.857   5.071  12.548 -0.2037  0.3060  0.3862
 5594TIP3    H138197   0.765   5.052  12.532 -0.6482  2.1659  0.5311
 5594TIP3    H238198   0.896   4.986  12.568 -2.2186 -0.3265  1.9674
 5595TIP3   OH238199   0.762   4.330  11.628 -0.1569 -0.6116  0.4841
 5595TIP3    H138200   0.774   4.284  11.710  1.9476 -2.1465 -0.5983
 5595TIP3    H238201   0.765   4.423  11.652 -2.3523 -0.9433  2.4191
 5596TIP3   OH238202   1.262   2.491   0.364 -0.2835  0.0314  0.0709
 5596TIP3    H138203   1.288   2.575   0.401  1.6806  1.2499 -3.5115
 5596TIP3    H238204   1.180   2.509   0.318 -0.3180 -0.2070  0.0379
 5597TIP3   OH238205   3.624   4.176   0.680 -0.2420  0.2790 -0.4378
 5597TIP3    H138206   3.633   4.098   0.735 -1.7020  1.5725  1.7612
 5597TIP3    H238207   3.534   4.171   0.646 -0.0721  0.6067 -0.9552
 5598TIP3   OH238208   3.748   5.477  11.270  0.1310  0.0829  0.8253
 5598TIP3    H138209   3.704   5.410  11.218  0.3299 -0.6371  1.5746
 5598TIP3    H238210   3.795   5.530  11.205 -0.2651 -0.3241  0.2022
 5599TIP3   OH238211   5.606   1.260  16.111 -0.0393  0.4715  0.4285
 5599TIP3    H138212   5.630   1.282  16.202  1.6030 -0.5218  0.2817
 5599TIP3    H238213   5.517   1.227  16.117  0.7525 -1.6420  2.0887
 5600TIP3   OH238214   6.179   0.531   3.664  0.2589  0.3670 -0.5249
 5600TIP3    H138215   6.256   0.533   3.721 -0.7507  0.1126  0.8985
 5600TIP3    H238216   6.174   0.440   3.633  2.2642  1.0311 -3.1857
 5601TIP3   OH238217   1.684   5.671  16.954  0.5641  0.5196  0.5997
 5601TIP3    H138218   1.645   5.656  17.040  0.8167  2.6137  1.1201
 5601TIP3    H238219   1.777   5.654  16.967  0.4512 -0.2630  0.4381
 5602TIP3   OH238220   5.933   0.544  12.675 -0.3607 -0.4222  0.0978
 5602TIP3    H138221   5.959   0.472  12.617  0.0692 -0.7253  0.6565
 5602TIP3    H238222   5.881   0.602  12.619 -0.7729 -1.2009 -0.3378
 5603TIP3   OH238223   0.218   5.077   1.133 -0.0285 -0.0689  0.0586
 5603TIP3    H138224   0.209   5.091   1.228  0.0321 -0.7414  0.1688
 5603TIP3    H238225   0.312   5.088   1.116  0.8292 -4.2508  0.8633
 5604TIP3   OH238226   0.648   3.291  11.840  0.1607  0.3076  0.5775
 5604TIP3    H138227   0.607   3.323  11.920 -1.6618  1.9509 -0.9071
 5604TIP3    H238228   0.730   3.341  11.834 -0.5735  1.5560  0.5288
 5605TIP3   OH238229   3.348   5.764  15.766 -0.5582  0.2291  0.3054
 5605TIP3    H138230   3.281   5.812  15.814 -0.9606 -0.0083 -0.0070
 5605TIP3    H238231   3.409   5.830  15.735 -1.8965  0.7449 -1.3985
 5606TIP3   OH238232   0.980   5.205   0.533  0.3324 -0.3927  0.2178
 5606TIP3    H138233   1.042   5.132   0.524  1.2522  0.3265  0.5611
 5606TIP3    H238234   0.908   5.169   0.585 -0.0633 -1.5414 -1.0557
 5607TIP3   OH238235   3.431   6.523  13.179  0.1134 -0.4957  0.3343
 5607TIP3    H138236   3.378   6.563  13.110  0.9495  0.0280 -0.0225
 5607TIP3    H238237   3.432   6.430  13.157  0.5598 -0.3037 -0.5125
 5608TIP3   OH238238   2.542   0.954   1.761 -0.4065 -0.2938  0.2603
 5608TIP3    H138239   2.622   0.986   1.803 -0.1592 -0.2425 -0.2308
 5608TIP3    H238240   2.564   0.954   1.667 -1.8231  2.1420 -0.1558
 5609TIP3   OH238241   3.981   0.141  17.251 -0.2118  0.6883  0.0581
 5609TIP3    H138242   3.908   0.083  17.272  0.1913  0.7886  1.9850
 5609TIP3    H238243   3.984   0.204  17.324  2.1044  0.3580  0.3450
 5610TIP3   OH238244   2.948   5.217  15.892  0.2019 -0.1884  0.5484
 5610TIP3    H138245   2.906   5.244  15.974 -2.7767  0.2424 -0.9837
 5610TIP3    H238246   2.897   5.141  15.863 -0.1836  0.8851 -1.8648
 5611TIP3   OH238247   3.574   5.890   2.809  0.1935 -0.6636 -0.1160
 5611TIP3    H138248   3.570   5.876   2.714  2.3592 -0.9484 -0.2098
 5611TIP3    H238249   3.629   5.819   2.841 -0.3723 -0.4680  1.3570
 5612TIP3   OH238250   0.807   4.667  15.077  0.0118 -0.1779 -0.0181
 5612TIP3    H138251   0.724   4.621  15.069 -0.9904  1.7761 -1.4409
 5612TIP3    H238252   0.839   4.676  14.987  1.5730 -0.4873  0.4599
 5613TIP3   OH238253   5.413   1.461  12.276  0.1761  0.6155 -0.3741
 5613TIP3    H138254   5.442   1.526  12.211 -0.6091  0.0661 -1.3095
 5613TIP3    H238255   5.325   1.489  12.300 -0.8503 -0.9731 -2.0458
 5614TIP3   OH238256   0.351   4.773   5.480  0.3773 -0.0549 -0.2957
 5614TIP3    H138257   0.375   4.814   5.397 -0.4175 -0.7090 -0.8664
 5614TIP3    H238258   0.332   4.847   5.539  0.1753  0.4100 -0.9369
 5615TIP3   OH238259   6.357   3.538   0.208 -0.8289  0.4361  0.8106
 5615TIP3    H138260   6.284   3.578   0.254 -0.2145 -1.6452  3.9951
 5615TIP3    H238261   6.412   3.611   0.180 -3.3544  1.9711 -0.4317
 5616TIP3   OH238262   1.420   1.921   0.733  0.5999 -0.2411 -0.2783
 5616TIP3    H138263   1.512   1.940   0.755  1.1998 -0.3760 -2.4472
 5616TIP3    H238264   1.396   1.988   0.669 -0.3852 -0.9805 -0.7125
 5617TIP3   OH238265   3.450   1.142  16.893 -0.2943  0.5277  0.4697
 5617TIP3    H138266   3.524   1.202  16.885 -0.4402  0.5961 -0.4354
 5617TIP3    H238267   3.484   1.069  16.945  0.7592  0.0191 -0.8632
 5618TIP3   OH238268   6.362   5.089   6.145 -0.0060 -0.2206  0.6537
 5618TIP3    H138269   6.284   5.034   6.145 -0.4764  0.3898  2.3019
 5618TIP3    H238270   6.328   5.177   6.126  0.5176 -0.2140 -0.2989
 5619TIP3   OH238271   4.334   2.313   3.223 -0.1611 -0.3625  0.5134
 5619TIP3    H138272   4.393   2.277   3.289  0.0168  1.1842  1.2451
 5619TIP3    H238273   4.382   2.389   3.188 -0.8460 -0.3360 -0.3820
 5620TIP3   OH238274   1.343   6.092   1.783 -0.6849 -0.6448  0.0593
 5620TIP3    H138275   1.301   6.167   1.825 -1.1530 -0.5801 -0.5218
 5620TIP3    H238276   1.272   6.033   1.761 -0.3835 -0.9399 -0.1380
 5621TIP3   OH238277   0.014   3.426   3.558 -0.9297  0.5666  0.2338
 5621TIP3    H138278   0.104   3.398   3.539 -0.7017  1.2070  0.3595
 5621TIP3    H238279  -0.003   3.495   3.495 -1.1837  0.7438  0.4956
 5622TIP3   OH238280   6.099   5.518   3.398 -0.5233  0.1613  0.1349
 5622TIP3    H138281   6.073   5.427   3.413  0.7438 -0.1794  0.3434
 5622TIP3    H238282   6.036   5.569   3.449 -0.6565 -0.6370  0.7905
 5623TIP3   OH238283   3.821   3.074  11.092 -0.5537 -0.8804 -0.0320
 5623TIP3    H138284   3.730   3.073  11.123 -0.8513  0.9783 -0.7369
 5623TIP3    H238285   3.820   3.019  11.013 -1.1265 -0.6305 -0.2023
 5624TIP3   OH238286   6.716   6.682   0.186  0.1032  0.1696  0.2508
 5624TIP3    H138287   6.706   6.593   0.152  1.5845 -0.4273  1.2637
 5624TIP3    H238288   6.744   6.734   0.110 -0.7464 -0.2118 -0.3367
 5625TIP3   OH238289   5.601   5.260  14.590 -0.7622 -0.1961 -0.0336
 5625TIP3    H138290   5.549   5.258  14.670 -0.7521 -0.4160 -0.0324
 5625TIP3    H238291   5.580   5.344  14.549 -0.7343 -0.0664  0.2214
 5626TIP3   OH238292   2.288   6.586   4.975 -0.1008  0.2973  0.1624
 5626TIP3    H138293   2.277   6.619   5.064 -2.2118  1.1618 -0.3490
 5626TIP3    H238294   2.304   6.493   4.986  0.9185  0.5838  1.4627
 5627TIP3   OH238295   4.667   1.858  11.461  0.3050 -0.3712 -0.0076
 5627TIP3    H138296   4.600   1.830  11.400 -0.5585 -0.7142  1.0691
 5627TIP3    H238297   4.633   1.834  11.548  1.3551  0.3561  0.6373
 5628TIP3   OH238298   6.531   1.682   2.651  0.6092  0.3041 -0.0162
 5628TIP3    H138299   6.460   1.659   2.591 -0.6670 -0.4680  1.7036
 5628TIP3    H238300   6.536   1.777   2.648  0.4673  0.2882 -1.2003
 5629TIP3   OH238301   2.642   1.658  11.408 -0.5859  0.3212  0.9872
 5629TIP3    H138302   2.713   1.612  11.362 -0.2487  0.9916  0.8313
 5629TIP3    H238303   2.619   1.599  11.480 -0.9941 -0.6639  0.0891
 5630TIP3   OH238304   5.029   0.087  11.079  0.3365  0.8339  0.1978
 5630TIP3    H138305   5.060   0.067  10.991 -0.4985 -0.7064  0.2085
 5630TIP3    H238306   4.956   0.148  11.066 -1.2129 -1.0500 -0.4035
 5631TIP3   OH238307   3.998   5.570   4.685 -0.2303  0.0516 -0.4643
 5631TIP3    H138308   4.010   5.477   4.706  0.0668  0.5140  1.7395
 5631TIP3    H238309   4.086   5.601   4.664 -0.1000  0.1052  0.1387
 5632TIP3   OH238310   3.630   5.524   0.669  0.1399 -0.7504  0.5951
 5632TIP3    H138311   3.615   5.429   0.667 -0.8134 -0.6364  1.4393
 5632TIP3    H238312   3.652   5.542   0.761 -1.4399  0.0761  0.8435
 5633TIP3   OH238313   5.713   5.582  16.047 -0.1371 -0.2215  0.0330
 5633TIP3    H138314   5.727   5.492  16.016 -2.1553 -0.4610 -0.3711
 5633TIP3    H238315   5.762   5.588  16.128  2.0897 -0.8616 -1.1937
 5634TIP3   OH238316   2.095   4.653   2.500  0.1093 -0.1338 -0.3195
 5634TIP3    H138317   2.104   4.731   2.555  1.7941 -0.5215  0.0004
 5634TIP3    H238318   2.116   4.683   2.412  1.7030 -0.4021 -0.0477
 5635TIP3   OH238319   5.529   6.426   2.930 -0.5218  0.1991  0.2520
 5635TIP3    H138320   5.622   6.402   2.933 -0.5514 -0.1606 -1.2498
 5635TIP3    H238321   5.503   6.414   2.839 -2.4188 -1.0993  0.8960
 5636TIP3   OH238322   4.350   1.077  15.428 -0.1680 -0.0581  0.4317
 5636TIP3    H138323   4.414   1.103  15.494 -1.4995 -0.0745  1.7780
 5636TIP3    H238324   4.365   0.983  15.416 -0.0316 -0.0890  0.8260
 5637TIP3   OH238325   1.235   5.712   0.251 -0.4655 -0.1047 -0.2359
 5637TIP3    H138326   1.276   5.626   0.243 -0.1377 -0.1436  1.4135
 5637TIP3    H238327   1.208   5.735   0.162 -2.2948 -2.7547 -0.4727
 5638TIP3   OH238328   0.083   4.768  13.031  0.1438  0.0497  0.8688
 5638TIP3    H138329   0.127   4.685  13.047 -1.8801 -1.5633 -1.3579
 5638TIP3    H238330   0.022   4.751  12.959 -0.4433  3.4454  0.3547
 5639TIP3   OH238331   6.418   4.263   4.435  0.3580 -0.2493 -0.0977
 5639TIP3    H138332   6.381   4.185   4.393  1.0579  0.5710 -2.4214
 5639TIP3    H238333   6.511   4.245   4.441  0.5325  0.3914 -0.6989
 5640TIP3   OH238334   0.316   5.071   3.126 -0.2551  0.3665  0.4207
 5640TIP3    H138335   0.385   5.035   3.182 -0.5621  0.3697  0.8105
 5640TIP3    H238336   0.355   5.150   3.088 -0.0260  0.3400  0.5963
 5641TIP3   OH238337   2.445   3.139  13.881  0.0510  0.1410  0.3117
 5641TIP3    H138338   2.536   3.118  13.862  0.0780 -1.0059  1.5441
 5641TIP3    H238339   2.394   3.081  13.824  0.0859  0.4434 -0.0315
 5642TIP3   OH238340   1.840   6.325   5.954  0.2842 -0.5652  0.0428
 5642TIP3    H138341   1.751   6.335   5.988  0.7575 -0.3589  1.2799
 5642TIP3    H238342   1.829   6.319   5.859 -1.0054 -0.0499  0.1361
 5643TIP3   OH238343   5.182   2.884  16.842  0.1302 -0.2906  0.1654
 5643TIP3    H138344   5.235   2.958  16.872 -0.6224  0.7807 -1.0948
 5643TIP3    H238345   5.103   2.887  16.897 -1.1313  1.5172 -1.6423
 5644TIP3   OH238346   3.397   4.104   3.050 -0.0330  0.2411 -0.3337
 5644TIP3    H138347   3.355   4.139   2.971 -1.9429 -2.2676 -0.5393
 5644TIP3    H238348   3.352   4.149   3.122 -0.8249 -0.0659 -0.6263
 5645TIP3   OH238349   2.133   4.338  11.794  0.0194 -0.0632  0.5980
 5645TIP3    H138350   2.123   4.253  11.752 -1.0990  0.2380  0.1982
 5645TIP3    H238351   2.167   4.395  11.725  0.9954 -0.2248  0.9304
 5646TIP3   OH238352   2.801   3.611  14.941 -0.7162  0.0041  0.1228
 5646TIP3    H138353   2.843   3.689  14.904  1.1661 -1.1119 -0.2433
 5646TIP3    H238354   2.856   3.589  15.017  0.3530 -2.3617 -1.2188
 5647TIP3   OH238355   3.677   0.261   2.369 -0.7210  0.4599 -0.1088
 5647TIP3    H138356   3.598   0.302   2.405  0.7385  0.2771  3.7822
 5647TIP3    H238357   3.651   0.173   2.346 -1.4162 -0.2395  2.9193
 5648TIP3   OH238358   3.350   3.578  11.245 -0.0531 -0.5357  0.1310
 5648TIP3    H138359   3.334   3.612  11.157  0.3853 -0.2092  0.1767
 5648TIP3    H238360   3.282   3.512  11.258 -1.3980  0.8268  0.3289
 5649TIP3   OH238361   6.458   2.720  14.314 -0.2647  0.4137  0.0117
 5649TIP3    H138362   6.472   2.641  14.262  1.7588  1.2951 -0.8757
 5649TIP3    H238363   6.437   2.788  14.250  0.6355  1.1567  0.4941
 5650TIP3   OH238364   3.622   2.379   1.763 -0.1296 -0.0961  0.6103
 5650TIP3    H138365   3.627   2.468   1.799 -0.3660 -0.4895  1.6342
 5650TIP3    H238366   3.682   2.328   1.817  1.1617 -0.2678 -0.9230
 5651TIP3   OH238367   4.250   4.373   0.274 -0.3252 -0.3028 -0.3185
 5651TIP3    H138368   4.267   4.346   0.184  0.5283  0.9421 -0.5567
 5651TIP3    H238369   4.166   4.332   0.296 -0.4777 -0.7345 -1.6294
 5652TIP3   OH238370   3.919   4.175  16.798 -0.3498 -0.7249  0.1999
 5652TIP3    H138371   3.903   4.083  16.779  1.4213 -0.8917 -0.6766
 5652TIP3    H238372   3.887   4.222  16.721 -1.0030 -0.6120  0.5309
 5653TIP3   OH238373   1.610   1.348   1.493 -0.0824 -0.5581 -0.0291
 5653TIP3    H138374   1.530   1.378   1.538  1.4753  2.9334  0.7712
 5653TIP3    H238375   1.594   1.369   1.401  0.7494  2.6466  0.4443
 5654TIP3   OH238376   4.418   1.437  13.113 -0.3863 -0.0253 -0.6077
 5654TIP3    H138377   4.365   1.376  13.061  0.6447  0.5897 -2.4881
 5654TIP3    H238378   4.428   1.394  13.197 -2.7140 -0.7664 -0.6248
 5655TIP3   OH238379   3.618   3.072  15.249  0.0711  0.6834 -0.3090
 5655TIP3    H138380   3.624   3.133  15.176 -0.6928 -0.2653 -1.2080
 5655TIP3    H238381   3.706   3.035  15.256 -0.0682  0.0403 -1.4678
 5656TIP3   OH238382   2.313   3.575   4.333 -0.3761  0.7068 -0.2392
 5656TIP3    H138383   2.371   3.624   4.392 -0.7057 -0.4665  1.1164
 5656TIP3    H238384   2.346   3.595   4.246 -0.1806  2.9021  0.2793
 5657TIP3   OH238385   3.509   0.411   5.024  0.2350  0.6657  0.2647
 5657TIP3    H138386   3.499   0.475   5.093 -0.7506 -0.5638  1.3253
 5657TIP3    H238387   3.515   0.462   4.943  0.5486  2.0915  1.1771
 5658TIP3   OH238388   0.738   3.200   2.062  0.6731 -0.0946  0.0312
 5658TIP3    H138389   0.804   3.166   2.122 -0.1632  0.6891  1.4289
 5658TIP3    H238390   0.656   3.193   2.110  0.0230  0.8283 -0.9071
 5659TIP3   OH238391   2.422   5.721  11.192 -0.4386  0.2385 -0.7887
 5659TIP3    H138392   2.340   5.761  11.161 -0.5978  0.4325 -0.1328
 5659TIP3    H238393   2.406   5.703  11.285  0.2112  0.1244 -0.6968
 5660TIP3   OH238394   5.245   5.393   3.336 -1.0094  0.5021  0.1103
 5660TIP3    H138395   5.310   5.376   3.404  0.6958 -0.2162 -1.6019
 5660TIP3    H238396   5.272   5.337   3.263 -2.4871  1.5871 -1.3385
 5661TIP3   OH238397   5.402   6.716  13.383  0.1815 -0.1677  0.1605
 5661TIP3    H138398   5.435   6.697  13.470  0.2139 -1.7518 -0.1654
 5661TIP3    H238399   5.423   6.808  13.368  1.5375 -0.2807  1.2182
 5662TIP3   OH238400   3.560   5.917  11.761  0.1061 -0.1425  0.0910
 5662TIP3    H138401   3.609   5.837  11.780 -0.0985 -0.0835  0.9187
 5662TIP3    H238402   3.482   5.910  11.816 -1.4158 -0.7684 -2.0075
 5663TIP3   OH238403   4.863   6.101  16.543  0.0217 -0.4823 -0.3463
 5663TIP3    H138404   4.882   6.067  16.631  0.7086 -0.2131 -0.3916
 5663TIP3    H238405   4.821   6.185  16.559  1.1820  0.0930 -0.2936
 5664TIP3   OH238406   2.159   2.891  11.199  0.6599  0.3145 -0.2180
 5664TIP3    H138407   2.076   2.916  11.240  0.7336  2.6249 -1.3234
 5664TIP3    H238408   2.224   2.901  11.269  0.2890  0.7004  0.0791
 5665TIP3   OH238409   5.475   5.279  14.195  0.0055 -0.3358  0.9356
 5665TIP3    H138410   5.485   5.219  14.121 -1.8343  0.3201  0.1036
 5665TIP3    H238411   5.559   5.325  14.200  0.9435 -1.9197  0.6826
 5666TIP3   OH238412   4.154   0.078  14.406 -0.5001  0.1980  0.1136
 5666TIP3    H138413   4.094   0.006  14.384 -2.2406  0.2943  3.8072
 5666TIP3    H238414   4.200   0.048  14.484 -0.3694  2.6044  1.0403
 5667TIP3   OH238415   6.192   2.353  10.786  0.3966  0.1621  0.6692
 5667TIP3    H138416   6.262   2.288  10.783  0.8759  0.6055  1.9333
 5667TIP3    H238417   6.231   2.432  10.749 -0.2554 -0.2935 -1.0870
 5668TIP3   OH238418   2.488   5.835  16.041  0.1840  0.1765 -0.0496
 5668TIP3    H138419   2.518   5.777  15.971  1.5395  0.3856  0.3163
 5668TIP3    H238420   2.421   5.890  16.001  0.8791  0.2342 -1.1651
 5669TIP3   OH238421   5.680   1.836  13.610  0.5163  0.0736 -0.5254
 5669TIP3    H138422   5.703   1.891  13.534  0.8144 -0.0021 -0.4890
 5669TIP3    H238423   5.689   1.894  13.685  0.0671  0.1929 -0.5603
 5670TIP3   OH238424   1.019   4.589  17.247 -0.3245  0.4444 -0.5013
 5670TIP3    H138425   1.065   4.505  17.239 -0.8003  0.1038  0.2278
 5670TIP3    H238426   0.975   4.584  17.332 -1.9387  0.6298 -1.2927
 5671TIP3   OH238427   2.869   1.145  13.746 -0.2697  0.4675  0.7971
 5671TIP3    H138428   2.893   1.076  13.684 -1.2325  0.0614  0.8563
 5671TIP3    H238429   2.779   1.167  13.723 -0.0921  1.4723  1.0054
 5672TIP3   OH238430   2.775   2.291   6.579  0.2568  0.6031 -0.6293
 5672TIP3    H138431   2.713   2.254   6.642  1.7083  0.3773  0.7277
 5672TIP3    H238432   2.723   2.308   6.501 -0.8079 -2.9575 -0.8634
 5673TIP3   OH238433   5.558   2.918   6.003  0.0037 -0.9096  0.1673
 5673TIP3    H138434   5.584   2.973   6.076 -0.5371  0.0237 -0.3270
 5673TIP3    H238435   5.495   2.857   6.041 -1.7627  0.8044  0.1424
 5674TIP3   OH238436   6.086   4.363   5.724  0.2245 -0.2045 -0.0187
 5674TIP3    H138437   6.145   4.384   5.652 -0.2754 -1.7108 -0.9248
 5674TIP3    H238438   6.143   4.346   5.798  0.9159 -1.0286 -0.7155
 5675TIP3   OH238439   5.919   5.620  11.640  0.1856 -0.1712 -0.2176
 5675TIP3    H138440   5.898   5.639  11.731  0.7358  2.9710 -0.6586
 5675TIP3    H238441   5.882   5.693  11.590  2.6965 -0.0959 -2.1598
 5676TIP3   OH238442   1.009   1.234   3.386 -0.4443  0.3580 -0.3855
 5676TIP3    H138443   1.087   1.289   3.378 -0.9217  0.8795 -1.7952
 5676TIP3    H238444   1.016   1.171   3.314 -1.8477  1.1290 -1.2439
 5677TIP3   OH238445   4.842   0.659  11.576  0.9970  0.2234  0.0561
 5677TIP3    H138446   4.766   0.641  11.522  1.5115 -0.2282 -0.5445
 5677TIP3    H238447   4.917   0.632  11.522  1.5822  0.6714  0.6186
 5678TIP3   OH238448   3.366   3.315   1.398 -0.6406  0.0392  0.1377
 5678TIP3    H138449   3.329   3.243   1.449 -1.1637  1.3883  1.7645
 5678TIP3    H238450   3.351   3.290   1.307 -3.1031 -0.7298  0.6775
 5679TIP3   OH238451   5.347   1.795  12.370  0.6296 -0.3575 -0.2658
 5679TIP3    H138452   5.368   1.732  12.439 -2.2777 -0.5502  0.5808
 5679TIP3    H238453   5.377   1.753  12.289  1.0343 -1.6822  0.5420
 5680TIP3   OH238454   1.201   1.790   6.645 -0.1739 -0.0078 -0.5586
 5680TIP3    H138455   1.251   1.860   6.603 -1.1854  0.7600 -0.5258
 5680TIP3    H238456   1.113   1.798   6.607 -1.3455  1.1692  2.1544
 5681TIP3   OH238457   2.528   6.064   6.360 -0.6213 -0.2223 -0.1234
 5681TIP3    H138458   2.617   6.096   6.346 -0.4849 -0.4517  0.2083
 5681TIP3    H238459   2.472   6.140   6.343 -0.4677 -0.4340 -1.7688
 5682TIP3   OH238460   4.586   3.356   2.854  0.5497 -0.2403 -0.4243
 5682TIP3    H138461   4.668   3.366   2.806  1.0961 -0.0320  0.5135
 5682TIP3    H238462   4.566   3.445   2.886  0.3841 -0.4323  0.0161
 5683TIP3   OH238463   3.201   3.126   2.740  0.2602 -0.0335  0.4612
 5683TIP3    H138464   3.208   3.220   2.754  0.4692  0.1620 -0.7977
 5683TIP3    H238465   3.290   3.094   2.751  0.4827  0.1659 -0.6099
 5684TIP3   OH238466   2.470   1.115   5.313 -0.0005  0.1357 -0.5714
 5684TIP3    H138467   2.512   1.054   5.253  0.4975  0.0576 -0.1519
 5684TIP3    H238468   2.497   1.202   5.282  0.9315  0.0680  0.0193
 5685TIP3   OH238469   0.750   5.467   2.794 -0.0526 -0.4548  0.0651
 5685TIP3    H138470   0.798   5.385   2.810  0.8252 -0.2682 -1.4778
 5685TIP3    H238471   0.662   5.439   2.770  0.9236 -1.1810 -3.1540
 5686TIP3   OH238472   6.599   0.280  16.431  0.4018  0.2597 -0.4223
 5686TIP3    H138473   6.539   0.207  16.444 -0.0856  0.5154 -1.1565
 5686TIP3    H238474   6.663   0.247  16.368  0.0512  0.5281 -0.9287
 5687TIP3   OH238475   4.311   1.104  16.107  0.1950 -0.3169 -0.4453
 5687TIP3    H138476   4.387   1.104  16.050 -0.3680  0.9178 -1.2417
 5687TIP3    H238477   4.248   1.163  16.064  0.5581  2.5105  2.4703
 5688TIP3   OH238478   4.417   6.016  12.284 -1.2060  0.0382 -0.2329
 5688TIP3    H138479   4.471   6.089  12.253  0.9253 -1.6218 -0.6510
 5688TIP3    H238480   4.353   6.003  12.214 -1.0690  0.9401 -0.5460
 5689TIP3   OH238481   3.111   6.412   0.273 -0.2237  0.3085 -0.0572
 5689TIP3    H138482   3.122   6.392   0.367 -1.0242 -1.2194 -0.2418
 5689TIP3    H238483   3.184   6.469   0.252  1.3224 -1.1649  1.0011
 5690TIP3   OH238484   2.953   3.006   5.193 -0.1862 -0.3836  0.3306
 5690TIP3    H138485   2.980   3.069   5.260 -0.3198 -0.2421  0.2528
 5690TIP3    H238486   2.969   2.920   5.232  1.1162 -0.3131 -0.0154
 5691TIP3   OH238487   3.079   2.564   2.766 -0.3341 -0.3946 -0.1997
 5691TIP3    H138488   3.050   2.650   2.796 -2.4107 -0.4316 -1.8696
 5691TIP3    H238489   2.998   2.514   2.755  0.4887 -1.2935 -2.9445
 5692TIP3   OH238490   3.208   1.840   4.431  0.2983 -0.0379  0.1072
 5692TIP3    H138491   3.230   1.806   4.518  1.0359 -0.8999 -0.4117
 5692TIP3    H238492   3.163   1.768   4.387  2.8821 -0.8282 -1.4146
 5693TIP3   OH238493   4.552   3.911   3.786  0.3637  0.2683 -0.1409
 5693TIP3    H138494   4.630   3.915   3.842 -0.7066 -0.6396  1.4878
 5693TIP3    H238495   4.565   3.833   3.732  0.1620 -0.4543  0.8246
 5694TIP3   OH238496   3.132   1.441   2.032 -0.1404  0.0864  0.2128
 5694TIP3    H138497   3.195   1.429   1.960  0.9893  0.6894  1.0546
 5694TIP3    H238498   3.145   1.365   2.089  0.4151  0.6005  0.7931
 5695TIP3   OH238499   2.377   6.771  15.012  0.5773  0.2523  0.1127
 5695TIP3    H138500   2.396   6.856  15.052  0.1776  0.2423  0.3173
 5695TIP3    H238501   2.410   6.780  14.922 -0.4605  1.0092 -0.2050
 5696TIP3   OH238502   3.950   1.903   4.860  0.0093  0.3172  0.0191
 5696TIP3    H138503   3.855   1.893   4.861  0.0190  0.1382 -0.4761
 5696TIP3    H238504   3.965   1.983   4.810  0.1964 -0.8650 -1.9154
 5697TIP3   OH238505   4.285   2.411   4.547  0.1531 -0.6813  0.3453
 5697TIP3    H138506   4.314   2.331   4.503 -0.6651 -0.4088 -0.7419
 5697TIP3    H238507   4.224   2.381   4.615  0.5375 -1.0302  0.5388
 5698TIP3   OH238508   1.709   0.329  11.565 -0.2330  0.0426  0.4814
 5698TIP3    H138509   1.724   0.396  11.499 -1.2834  0.9869  1.1638
 5698TIP3    H238510   1.625   0.352  11.604  0.1345 -0.7657  1.8175
 5699TIP3   OH238511   5.207   0.803  17.058  0.1085 -0.5036  0.2544
 5699TIP3    H138512   5.295   0.786  17.023  0.5084  1.8361 -0.0272
 5699TIP3    H238513   5.222   0.857  17.135 -1.0622 -0.6782  0.6196
 5700TIP3   OH238514   2.781   4.214   4.792 -0.4620 -0.3075 -0.4907
 5700TIP3    H138515   2.797   4.207   4.698 -0.7347  2.2937 -0.8010
 5700TIP3    H238516   2.832   4.290   4.820 -0.8911 -0.6406  1.3520
 5701TIP3   OH238517   1.882   1.605   3.156  0.1030 -0.2097  0.0740
 5701TIP3    H138518   1.897   1.651   3.239 -0.6001 -0.9521  0.6223
 5701TIP3    H238519   1.967   1.605   3.114  0.0817  1.8900 -0.1047
 5702TIP3   OH238520   5.678   1.792  15.524 -0.1144 -0.4240  0.4828
 5702TIP3    H138521   5.620   1.844  15.579 -0.2764  0.3805 -0.4370
 5702TIP3    H238522   5.760   1.786  15.574 -0.8574 -1.2827  1.6354
 5703TIP3   OH238523   4.406   6.740   0.527 -0.7157  0.0609 -0.4625
 5703TIP3    H138524   4.409   6.695   0.611 -2.1053 -0.1813 -0.5178
 5703TIP3    H238525   4.497   6.765   0.510 -0.4511  0.4534  1.2800
 5704TIP3   OH238526   4.095   4.947  13.856 -0.4567  0.2272 -0.7944
 5704TIP3    H138527   4.046   5.028  13.865 -0.8273 -0.1102  0.3751
 5704TIP3    H238528   4.129   4.949  13.767  0.3856  2.1338 -0.4619
 5705TIP3   OH238529   4.391   5.604  15.326  0.1799  0.0692  0.3564
 5705TIP3    H138530   4.389   5.518  15.368 -1.8112 -0.9404 -1.6110
 5705TIP3    H238531   4.343   5.662  15.385 -1.2049 -0.9458  0.2644
 5706TIP3   OH238532   3.527   4.278  10.670 -0.2308 -0.1349  0.7051
 5706TIP3    H138533   3.471   4.337  10.721 -0.3079  0.8594 -0.4760
 5706TIP3    H238534   3.476   4.197  10.663 -1.1581  0.4498  0.3995
 5707TIP3   OH238535   4.333   4.905   2.025 -0.2710 -0.0326 -0.0811
 5707TIP3    H138536   4.287   4.835   1.978  0.1012 -1.6599  1.8118
 5707TIP3    H238537   4.265   4.966   2.051 -1.2001 -1.5570  1.2532
 5708TIP3   OH238538   1.156   5.067  14.771  0.2999  0.2731 -0.1690
 5708TIP3    H138539   1.230   5.072  14.711  0.5693 -2.4430 -0.1861
 5708TIP3    H238540   1.125   4.977  14.764 -2.9243  1.2436  0.0151
 5709TIP3   OH238541   0.248   3.680   0.261  0.0982 -0.6815 -0.2516
 5709TIP3    H138542   0.331   3.633   0.254  0.0307 -1.0598  1.0978
 5709TIP3    H238543   0.184   3.613   0.285 -0.1406 -0.0458  0.9677
 5710TIP3   OH238544   5.813   4.487   4.098  0.4079  0.1462 -0.5528
 5710TIP3    H138545   5.851   4.575   4.102 -1.3960  0.9392  0.0879
 5710TIP3    H238546   5.840   4.454   4.012  2.1213  0.8136 -0.3251
 5711TIP3   OH238547   2.223   2.664  11.037 -0.0135  0.0625 -0.3154
 5711TIP3    H138548   2.192   2.748  11.071 -1.5757 -1.3226  1.9516
 5711TIP3    H238549   2.312   2.656  11.070 -0.2734  0.3234  0.4689
 5712TIP3   OH238550   1.694   0.513   4.011 -0.2679  0.2526 -0.0025
 5712TIP3    H138551   1.732   0.595   4.044 -1.1364  1.2015 -1.2566
 5712TIP3    H238552   1.605   0.512   4.046  0.5087 -1.5140  2.1718
 5713TIP3   OH238553   5.372   1.809   2.013  0.1484  0.2797 -0.1285
 5713TIP3    H138554   5.382   1.846   2.101  1.6474  2.3684 -1.1019
 5713TIP3    H238555   5.278   1.792   2.005  0.0609 -0.6236  2.0938
 5714TIP3   OH238556   0.892   5.944   3.494 -0.3775 -0.2038  0.1198
 5714TIP3    H138557   0.963   5.923   3.434 -1.3227 -1.9474 -0.4629
 5714TIP3    H238558   0.898   5.877   3.563  0.1098  1.1963  1.4965
 5715TIP3   OH238559   2.564   3.296  11.518 -0.5746 -0.0254 -0.4706
 5715TIP3    H138560   2.644   3.326  11.474 -0.7932 -0.0833 -0.9075
 5715TIP3    H238561   2.532   3.374  11.564  1.1030 -0.5875  1.8274
 5716TIP3   OH238562   4.130   3.384   1.467  0.0463 -0.5856  0.7690
 5716TIP3    H138563   4.222   3.362   1.485  1.4259  3.7967  0.2183
 5716TIP3    H238564   4.122   3.378   1.372 -1.2688 -3.8392  0.9651
 5717TIP3   OH238565   2.746   5.190  15.398  0.0143  0.0727 -0.3693
 5717TIP3    H138566   2.744   5.102  15.434 -0.5964  0.8403  1.5780
 5717TIP3    H238567   2.821   5.233  15.440  0.4040  0.4612 -1.4140
 5718TIP3   OH238568   2.752   0.494  11.789  0.0445 -0.4252  0.3413
 5718TIP3    H138569   2.799   0.435  11.730  0.2547 -0.2569  0.3406
 5718TIP3    H238570   2.698   0.547  11.732 -0.1090 -0.5842  0.3376
 5719TIP3   OH238571   6.284   6.154  16.156  0.2840 -0.3021  0.1116
 5719TIP3    H138572   6.211   6.092  16.150  0.2516 -0.2393 -0.1595
 5719TIP3    H238573   6.361   6.098  16.163  0.0912 -0.3736  2.0885
 5720TIP3   OH238574   6.355   6.383   0.124  0.7812 -0.1983 -0.1781
 5720TIP3    H138575   6.346   6.327   0.046 -3.1494  0.2093 -0.2154
 5720TIP3    H238576   6.290   6.348   0.186  0.7845  2.0896  1.2138
 5721TIP3   OH238577   3.921   1.173  10.861  0.3411  0.5817  0.0976
 5721TIP3    H138578   3.885   1.203  10.777 -0.2165  0.5453  0.3224
 5721TIP3    H238579   3.986   1.239  10.884 -0.6965  1.5126  0.4627
 5722TIP3   OH238580   1.700   0.941   1.317  0.0337 -0.8878 -0.1683
 5722TIP3    H138581   1.787   0.908   1.294  1.0368  0.8425  0.9088
 5722TIP3    H238582   1.711   1.036   1.323 -1.9278 -0.6233  0.0624
 5723TIP3   OH238583   0.418   0.775   3.416 -0.3306  0.1331  0.2745
 5723TIP3    H138584   0.461   0.832   3.352 -0.2276 -2.4668 -2.1205
 5723TIP3    H238585   0.490   0.739   3.467 -0.0529 -0.5743 -0.5944
 5724TIP3   OH238586   4.224   3.881   1.608  0.1829 -0.4839 -0.4773
 5724TIP3    H138587   4.142   3.929   1.595 -0.4337 -0.4920  2.6044
 5724TIP3    H238588   4.288   3.950   1.626  0.2141 -0.6223 -0.0654
 5725TIP3   OH238589   3.626   1.744  11.434 -0.0979 -0.1352  0.2417
 5725TIP3    H138590   3.651   1.809  11.368 -0.5826 -0.6015 -0.4098
 5725TIP3    H238591   3.585   1.674  11.384 -0.3674 -0.5471  1.0317
 5726TIP3   OH238592   6.182   5.804   4.786 -0.2486 -0.3418 -0.0966
 5726TIP3    H138593   6.176   5.803   4.691 -0.1566 -0.0161 -0.1078
 5726TIP3    H238594   6.225   5.888   4.806 -0.8692 -0.1074  0.2620
 5727TIP3   OH238595   3.785   4.138   2.236  0.3497 -0.2424  0.0313
 5727TIP3    H138596   3.863   4.101   2.277  0.5797 -0.4340 -0.5662
 5727TIP3    H238597   3.783   4.229   2.266  0.3398 -0.4665  0.7089
 5728TIP3   OH238598   3.459   5.556  13.857  0.2303 -1.0223 -0.4715
 5728TIP3    H138599   3.549   5.524  13.860  0.6565  0.1634  0.9470
 5728TIP3    H238600   3.448   5.603  13.941 -0.8576  0.9936 -1.6595
 5729TIP3   OH238601   0.447   6.309  13.603 -0.5042 -0.3763  0.5620
 5729TIP3    H138602   0.428   6.401  13.619 -0.4451 -0.2259 -0.2002
 5729TIP3    H238603   0.429   6.266  13.687  0.2902  0.4418  1.1676
 5730TIP3   OH238604   1.107   0.080  12.073  0.2024  0.1715  0.0354
 5730TIP3    H138605   1.045   0.100  12.003  0.6672  0.0359 -0.4217
 5730TIP3    H238606   1.190   0.065  12.028  0.4527 -0.1541  0.5975
 5731TIP3   OH238607   1.873   4.525  12.038  0.3393 -0.0096 -0.1696
 5731TIP3    H138608   1.827   4.525  11.954 -0.7594 -1.2445  0.4024
 5731TIP3    H238609   1.931   4.601  12.033 -1.1398  1.1253 -1.2740
 5732TIP3   OH238610   2.085   1.363   2.441  0.1916  0.2911 -0.0190
 5732TIP3    H138611   2.007   1.317   2.473  0.6650 -0.2780  0.3339
 5732TIP3    H238612   2.138   1.294   2.400  1.3391  0.3305  1.3451
 5733TIP3   OH238613   4.034   0.317  12.341  0.0408 -0.0067 -0.3873
 5733TIP3    H138614   3.995   0.231  12.323  3.5430 -1.3817 -2.5190
 5733TIP3    H238615   4.082   0.338  12.261 -0.1131  3.6904  0.3279
 5734TIP3   OH238616   1.895   3.870  13.114  0.4441  0.0484 -0.4063
 5734TIP3    H138617   1.824   3.856  13.051 -0.2687 -0.5465  0.4956
 5734TIP3    H238618   1.918   3.782  13.144 -0.6569  0.4086  1.6715
 5735TIP3   OH238619   6.192   3.277  13.746 -0.5291 -0.2244  0.0308
 5735TIP3    H138620   6.159   3.213  13.683 -0.7808  1.6033 -1.8249
 5735TIP3    H238621   6.281   3.248  13.766 -0.7590 -1.3341 -0.4967
 5736TIP3   OH238622   2.161   5.516  13.298  0.6703  0.3351 -0.3816
 5736TIP3    H138623   2.166   5.573  13.222  1.1833 -0.2142 -0.7700
 5736TIP3    H238624   2.252   5.504  13.325  0.4818  0.6846  0.4407
 5737TIP3   OH238625   0.695   2.624  16.923 -0.1000  0.7567  0.6037
 5737TIP3    H138626   0.725   2.696  16.979 -0.8507  2.0605 -0.6076
 5737TIP3    H238627   0.627   2.581  16.975 -0.5074  1.7039  0.8781
 5738TIP3   OH238628   4.522   6.318  10.641 -0.5730  0.4521  0.1772
 5738TIP3    H138629   4.494   6.406  10.614  1.3451  1.2291  0.5804
 5738TIP3    H238630   4.599   6.333  10.695 -0.2132 -1.5021  0.2772
 5739TIP3   OH238631   6.367   4.379  16.031  0.5605 -0.1773 -0.0223
 5739TIP3    H138632   6.462   4.362  16.026  0.6182 -0.1829  0.8165
 5739TIP3    H238633   6.341   4.397  15.941  1.7693  2.0159 -0.0123
 5740TIP3   OH238634   2.120   3.012  17.216  0.3837 -0.1633 -0.0821
 5740TIP3    H138635   2.143   3.070  17.144  1.5365 -2.0950 -1.3302
 5740TIP3    H238636   2.199   3.006  17.269 -0.3109  0.8595  1.1226
 5741TIP3   OH238637   6.271   2.442  15.473 -0.1085  0.2078 -0.0272
 5741TIP3    H138638   6.256   2.397  15.556 -1.2188  0.3810 -0.1238
 5741TIP3    H238639   6.318   2.378  15.419  0.5605  0.0731  0.7051
 5742TIP3   OH238640   4.578   4.315  13.657  0.3944  0.0029 -0.2027
 5742TIP3    H138641   4.544   4.388  13.708 -1.1220 -0.3791 -0.6047
 5742TIP3    H238642   4.667   4.341  13.633  0.5420  0.8919  1.2117
 5743TIP3   OH238643   5.955   3.969  12.884  0.6434  0.1887  0.3869
 5743TIP3    H138644   6.046   3.940  12.887  0.9044  0.7994 -0.8724
 5743TIP3    H238645   5.960   4.063  12.902  0.2668  0.2288  0.2825
 5744TIP3   OH238646   0.990   2.074   0.075 -0.0784  0.2470 -0.4598
 5744TIP3    H138647   0.926   2.072   0.146 -2.6688 -0.2237 -2.6367
 5744TIP3    H238648   0.986   2.164   0.043  2.1319  0.8495  0.7973
 5745TIP3   OH238649   2.962   4.902  10.811 -0.3388 -0.1848  0.0962
 5745TIP3    H138650   2.866   4.901  10.812 -0.4116 -0.5627 -1.8884
 5745TIP3    H238651   2.986   4.811  10.791  0.4069  0.0430 -0.0754
 5746TIP3   OH238652   5.867   4.825  12.261 -0.2170 -0.4183 -0.6353
 5746TIP3    H138653   5.911   4.872  12.190  1.0802  0.0673  0.4293
 5746TIP3    H238654   5.893   4.734  12.249  0.0880 -0.3214 -0.7307
 5747TIP3   OH238655   2.633   3.901  13.894 -0.2342  0.8066 -0.3234
 5747TIP3    H138656   2.678   3.973  13.938 -1.2419  1.6804 -0.6776
 5747TIP3    H238657   2.589   3.854  13.964  1.5844 -0.3806  0.1027
 5748TIP3   OH238658   3.558   3.110  14.083 -0.5791 -0.4181 -0.2983
 5748TIP3    H138659   3.624   3.042  14.097  0.7214  0.1709 -3.0282
 5748TIP3    H238660   3.572   3.171  14.155  0.1195 -1.5780  0.5978
 5749TIP3   OH238661   2.173   1.594   5.109  0.1997  0.3396 -0.3458
 5749TIP3    H138662   2.140   1.652   5.178  0.6045 -0.0097  0.1456
 5749TIP3    H238663   2.137   1.508   5.131  3.2819 -0.6277  1.6138
 5750TIP3   OH238664   0.225   6.526   4.464 -0.2346 -0.1455  0.0902
 5750TIP3    H138665   0.228   6.490   4.376 -1.5995 -1.3952  0.5152
 5750TIP3    H238666   0.317   6.536   4.489  0.1820  0.7078 -1.6189
 5751TIP3   OH238667   2.285   2.009  14.456  0.1459 -0.2304 -0.6103
 5751TIP3    H138668   2.257   1.949  14.387 -0.0319  0.0713 -0.8036
 5751TIP3    H238669   2.249   1.972  14.536 -0.7666  0.1059 -0.8403
 5752TIP3   OH238670   5.918   3.965   0.463 -0.2414 -0.0106 -0.0197
 5752TIP3    H138671   5.929   4.035   0.398 -0.8538 -0.5952 -0.7835
 5752TIP3    H238672   6.007   3.933   0.480 -0.0332  0.4491 -0.2405
 5753TIP3   OH238673   1.807   0.088   5.407  0.8757 -0.6821  0.0244
 5753TIP3    H138674   1.796   0.025   5.336  0.7436 -0.6021 -0.0256
 5753TIP3    H238675   1.835   0.169   5.363  0.6017 -0.5769  0.0436
 5754TIP3   OH238676   5.665   6.437   2.544 -0.3413  0.8020 -0.3606
 5754TIP3    H138677   5.571   6.451   2.537 -0.9360 -2.5051 -0.9630
 5754TIP3    H238678   5.682   6.437   2.639 -1.2087  0.3183 -0.1896
 5755TIP3   OH238679   5.828   0.549   2.569 -0.3942  0.4712 -0.7251
 5755TIP3    H138680   5.901   0.591   2.615 -1.4375  0.8051  0.6916
 5755TIP3    H238681   5.844   0.567   2.476  1.7344 -0.1403 -0.5241
 5756TIP3   OH238682   5.961   2.432  15.860  0.1633 -0.1253 -0.4290
 5756TIP3    H138683   5.877   2.440  15.906  0.7070 -2.3356  1.1344
 5756TIP3    H238684   5.938   2.395  15.775 -0.4562 -0.7447  0.0006
 5757TIP3   OH238685   1.958   4.594  14.720 -0.3853 -0.6744  0.2037
 5757TIP3    H138686   1.866   4.609  14.696  0.2201  0.8349 -1.3334
 5757TIP3    H238687   1.967   4.635  14.806 -0.9689 -0.1885  0.0380
 5758TIP3   OH238688   3.407   0.929   1.939  0.1631 -0.0782  0.9597
 5758TIP3    H138689   3.362   0.877   2.005 -0.7232 -1.0177 -0.3149
 5758TIP3    H238690   3.345   0.998   1.916 -0.4620 -1.0309 -0.3852
 5759TIP3   OH238691   0.484   3.855   3.220  0.5309 -0.0648 -0.1469
 5759TIP3    H138692   0.478   3.918   3.292  0.8820  0.1345 -0.2915
 5759TIP3    H238693   0.395   3.820   3.212  0.0418  1.2639 -0.8472
 5760TIP3   OH238694   5.218   3.164   0.386  0.0427 -0.0442  0.2103
 5760TIP3    H138695   5.146   3.221   0.415 -0.7970 -0.9514 -0.0207
 5760TIP3    H238696   5.178   3.109   0.318  1.1981  0.0314 -0.5516
 5761TIP3   OH238697   2.602   3.913  11.849  0.1601 -0.9381 -0.1097
 5761TIP3    H138698   2.668   3.862  11.895 -0.8608 -1.6666  0.5827
 5761TIP3    H238699   2.574   3.856  11.777  0.7244 -0.3707 -0.8022
 5762TIP3   OH238700   5.689   4.836  16.006 -0.2665  0.1591  0.0813
 5762TIP3    H138701   5.754   4.766  16.008 -0.6326 -0.1999 -0.3857
 5762TIP3    H238702   5.709   4.885  15.926  0.4396  1.0293  0.7744
 5763TIP3   OH238703   0.622   4.096  13.025  0.2657  0.0707 -0.1539
 5763TIP3    H138704   0.561   4.146  13.079 -1.6464  0.3052 -2.3718
 5763TIP3    H238705   0.615   4.006  13.059  1.4637  0.7127  1.9175
 5764TIP3   OH238706   5.584   5.454  15.356  0.0704 -0.3055  0.2957
 5764TIP3    H138707   5.561   5.413  15.272 -0.9650 -0.0045  0.4128
 5764TIP3    H238708   5.583   5.381  15.418  2.5746 -0.8560 -0.2032
 5765TIP3   OH238709   2.955   1.282  12.703 -0.3318 -0.6971  0.0972
 5765TIP3    H138710   3.041   1.316  12.676 -1.3120  0.8383 -1.2996
 5765TIP3    H238711   2.915   1.253  12.621 -1.5513 -0.3976  0.5753
 5766TIP3   OH238712   6.458   3.368  15.090 -1.0902  0.0608  0.2307
 5766TIP3    H138713   6.528   3.314  15.053 -1.1758  0.2671 -0.2435
 5766TIP3    H238714   6.378   3.316  15.078 -1.1683  0.2679 -0.2000
 5767TIP3   OH238715   2.474   5.248   1.928 -0.1686 -0.0878  0.1473
 5767TIP3    H138716   2.565   5.272   1.911 -0.3992  1.2134  0.6617
 5767TIP3    H238717   2.454   5.184   1.860  0.0134  2.3310 -2.3551
 5768TIP3   OH238718   0.242   3.259  12.492  0.8058 -0.1382 -0.0355
 5768TIP3    H138719   0.307   3.320  12.458  0.3608  0.0240 -0.6211
 5768TIP3    H238720   0.207   3.303  12.570  1.2154 -0.1149  0.1382
 5769TIP3   OH238721   2.177   1.292   6.080 -0.2046  0.2151  0.1999
 5769TIP3    H138722   2.229   1.368   6.104 -3.7774  2.5629  1.4003
 5769TIP3    H238723   2.175   1.294   5.984  1.1544  0.5497  0.1566
 5770TIP3   OH238724   1.926   2.290   5.723 -0.5886 -0.0047 -0.2127
 5770TIP3    H138725   2.005   2.235   5.723 -1.1421 -0.8245 -0.4591
 5770TIP3    H238726   1.955   2.373   5.686 -0.1989 -0.8294 -1.8352
 5771TIP3   OH238727   4.190   2.307  10.393 -0.0718 -0.2719  0.7418
 5771TIP3    H138728   4.183   2.324  10.486  1.3429 -0.5618  0.9238
 5771TIP3    H238729   4.267   2.250  10.384 -0.8116 -1.1498 -0.4861
 5772TIP3   OH238730   5.415   0.335  14.114 -0.5393  0.3105 -0.4762
 5772TIP3    H138731   5.432   0.365  14.025 -1.4033 -0.5385 -0.9437
 5772TIP3    H238732   5.492   0.363  14.164  0.2955  0.1453 -1.6417
 5773TIP3   OH238733   6.369   6.702  15.530 -0.5477 -0.1879  0.1250
 5773TIP3    H138734   6.358   6.629  15.469  0.4453 -0.5703  0.3755
 5773TIP3    H238735   6.423   6.666  15.601 -1.8541  0.1993  1.3451
 5774TIP3   OH238736   4.807   1.349  13.119 -0.1051  0.6252 -0.4395
 5774TIP3    H138737   4.818   1.273  13.176 -1.6300  0.6731 -0.0452
 5774TIP3    H238738   4.740   1.322  13.056 -2.3071  2.3491  1.0587
 5775TIP3   OH238739   6.106   1.102  13.482  0.1864 -0.3191 -0.4125
 5775TIP3    H138740   6.075   1.120  13.571  1.2864 -1.7115  0.2941
 5775TIP3    H238741   6.093   1.007  13.471 -1.2949  0.0332 -2.3074
 5776TIP3   OH238742   1.132   4.040  14.272  0.3509  0.1277 -0.2950
 5776TIP3    H138743   1.151   4.066  14.362  1.8273 -2.0126  0.1045
 5776TIP3    H238744   1.130   4.122  14.222  2.3049  1.1669  1.2140
 5777TIP3   OH238745   4.039   5.190   4.917  0.0326 -0.3215 -0.1453
 5777TIP3    H138746   3.963   5.198   4.859  0.0688 -1.0300 -0.3055
 5777TIP3    H238747   4.039   5.097   4.942 -0.1849  0.0340  1.2528
 5778TIP3   OH238748   1.129   4.353   2.744  0.1737  0.1224  0.4193
 5778TIP3    H138749   1.056   4.309   2.788  0.9494 -0.1644  1.4507
 5778TIP3    H238750   1.096   4.441   2.726 -0.9130 -0.4394 -0.4118
 5779TIP3   OH238751   5.278   6.324  10.355 -0.0247  0.1800  0.3979
 5779TIP3    H138752   5.351   6.346  10.297  1.0454  2.3144  2.4066
 5779TIP3    H238753   5.210   6.292  10.296  1.3991  1.1344 -1.9042
 5780TIP3   OH238754   0.893   0.108  11.868 -0.1520  0.1050  0.0325
 5780TIP3    H138755   0.931   0.020  11.862 -0.9514 -0.2177 -0.6911
 5780TIP3    H238756   0.808   0.099  11.824  1.1573  2.0390 -3.3003
 5781TIP3   OH238757   1.480   4.640  16.267  0.4351 -0.2785  0.1822
 5781TIP3    H138758   1.398   4.592  16.277 -1.1861  2.2028 -0.2493
 5781TIP3    H238759   1.537   4.580  16.219 -2.6778 -0.6444 -3.6786
 5782TIP3   OH238760   1.685   0.906  15.542 -0.1444  0.2335  0.2049
 5782TIP3    H138761   1.755   0.955  15.499 -0.4146  0.5847  0.1596
 5782TIP3    H238762   1.609   0.964  15.538 -0.3985 -0.0820  0.3897
 5783TIP3   OH238763   3.559   2.274  17.191 -0.5052 -0.5522 -0.2545
 5783TIP3    H138764   3.600   2.258  17.106 -2.1025 -1.3698 -0.9067
 5783TIP3    H238765   3.500   2.200  17.205 -1.0292  0.0728  1.1041
 5784TIP3   OH238766   3.771   6.502   0.647  0.0135  0.2516 -0.1994
 5784TIP3    H138767   3.820   6.420   0.651  0.7596  0.6857 -0.4407
 5784TIP3    H238768   3.822   6.559   0.590  0.2678  1.4017  1.1330
 5785TIP3   OH238769   2.718   1.477  13.832 -0.5803 -0.3812 -0.3312
 5785TIP3    H138770   2.706   1.429  13.750 -0.5711 -2.0679  0.6141
 5785TIP3    H238771   2.663   1.555  13.822  0.4918  0.1807 -2.4661
 5786TIP3   OH238772   0.604   4.264  16.628  0.7462 -0.1359 -0.1724
 5786TIP3    H138773   0.584   4.253  16.722  1.7479 -2.3151 -0.1453
 5786TIP3    H238774   0.631   4.355  16.620 -0.8478  0.5455  1.3566
 5787TIP3   OH238775   2.621   5.725  16.899  0.1049 -0.4294 -0.3077
 5787TIP3    H138776   2.651   5.779  16.972 -1.5053  2.4303 -1.5586
 5787TIP3    H238777   2.697   5.715  16.843  1.1386 -1.9374  1.2578
 5788TIP3   OH238778   5.585   5.226   1.107  0.0866 -0.7965  0.0253
 5788TIP3    H138779   5.552   5.184   1.028  1.3222  0.1088 -1.0366
 5788TIP3    H238780   5.571   5.320   1.092 -2.0384 -0.6829  2.0531
 5789TIP3   OH238781   3.939   4.979   1.983  0.1267  0.2249 -0.2872
 5789TIP3    H138782   3.845   4.963   1.993 -0.3866  2.1831 -1.3208
 5789TIP3    H238783   3.945   5.074   1.968  2.2184  0.0402 -0.9065
 5790TIP3   OH238784   6.418   0.640   3.826 -0.4244  0.1715  0.1207
 5790TIP3    H138785   6.490   0.688   3.867 -0.5189 -0.8326  1.5271
 5790TIP3    H238786   6.348   0.705   3.817 -0.1337  0.6015  0.8719
 5791TIP3   OH238787   6.559   1.420   4.254 -0.8357  0.2257  0.1585
 5791TIP3    H138788   6.637   1.475   4.260 -0.6769 -0.0218  0.3833
 5791TIP3    H238789   6.511   1.454   4.178 -0.5415  0.4178  0.0580
 5792TIP3   OH238790   3.163   5.907   4.487 -0.1090 -0.1813  0.2024
 5792TIP3    H138791   3.158   5.937   4.396  0.3928  0.5643  0.4149
 5792TIP3    H238792   3.134   5.815   4.483  2.9260 -1.2162 -1.2588
 5793TIP3   OH238793   5.896   6.152  13.502 -0.0171 -0.5919  0.3572
 5793TIP3    H138794   5.835   6.178  13.432  0.8614 -3.4628 -1.6672
 5793TIP3    H238795   5.852   6.081  13.548  0.7677 -1.0127  0.4893
 5794TIP3   OH238796   0.865   6.741  16.723  0.1838  0.0635  0.1322
 5794TIP3    H138797   0.879   6.683  16.799  1.9280  0.5580  0.2351
 5794TIP3    H238798   0.803   6.807  16.755  1.0544  0.3922  1.2452
 5795TIP3   OH238799   5.671   0.334  12.966  0.2251 -0.2503  0.2175
 5795TIP3    H138800   5.694   0.408  13.023  0.0869  0.2803 -0.4101
 5795TIP3    H238801   5.606   0.370  12.905 -1.5794 -1.4519  1.3345
 5796TIP3   OH238802   4.392   4.801   2.274  0.1413  0.0117 -0.7729
 5796TIP3    H138803   4.481   4.822   2.304  0.0778 -0.8323  0.0254
 5796TIP3    H238804   4.382   4.853   2.194  1.9391 -1.0532 -1.7661
 5797TIP3   OH238805   0.334   2.362   4.141  0.3374  0.1711 -0.0983
 5797TIP3    H138806   0.263   2.307   4.175  0.2850 -0.6525 -1.4631
 5797TIP3    H238807   0.291   2.445   4.120 -0.3561 -0.4725 -1.3533
 5798TIP3   OH238808   0.033   1.064  12.791 -0.4703  0.0374 -0.4369
 5798TIP3    H138809   0.014   0.973  12.813 -1.7193  0.0591 -1.3143
 5798TIP3    H238810  -0.031   1.086  12.724 -1.8154  2.3054  1.4504
 5799TIP3   OH238811   1.516   1.693  16.473 -0.0854  0.6022 -0.3251
 5799TIP3    H138812   1.424   1.715  16.460 -0.3145  0.3128  0.7006
 5799TIP3    H238813   1.551   1.766  16.524  0.4135  0.9931 -1.1942
 5800TIP3   OH238814   3.450   1.720   1.658  0.6352  0.2747 -0.0493
 5800TIP3    H138815   3.362   1.745   1.687  1.1102  1.2161  0.6125
 5800TIP3    H238816   3.492   1.802   1.632  1.0421 -0.2642 -1.1827
 5801TIP3   OH238817   3.243   5.931  16.842 -0.4191  0.0519 -0.4562
 5801TIP3    H138818   3.276   5.852  16.884  0.1388 -1.8136 -3.9793
 5801TIP3    H238819   3.169   5.958  16.896 -0.2494 -2.5098  1.2569
 5802TIP3   OH238820   6.277   2.238   3.510 -0.0502  0.0284 -0.9885
 5802TIP3    H138821   6.214   2.193   3.567  1.2538  0.9163  1.3148
 5802TIP3    H238822   6.225   2.304   3.465 -0.5505  2.7783  3.0616
 5803TIP3   OH238823   2.825   0.555   5.059  0.4020  0.2585 -0.8203
 5803TIP3    H138824   2.879   0.569   5.136 -0.9368  0.4668  0.1209
 5803TIP3    H238825   2.756   0.496   5.088  0.4010 -0.4143 -2.1220
 5804TIP3   OH238826   0.461   2.045   3.260 -0.2180 -0.4539 -0.2965
 5804TIP3    H138827   0.488   2.137   3.254  1.6639 -0.6886  2.5181
 5804TIP3    H238828   0.367   2.047   3.240 -0.2017  2.0613 -0.4929
 5805TIP3   OH238829   0.184   4.453   0.610 -0.3165  0.1897  0.1553
 5805TIP3    H138830   0.192   4.360   0.631  0.1192  0.3288  0.6158
 5805TIP3    H238831   0.173   4.495   0.695  0.7151  0.6873  0.0460
 5806TIP3   OH238832   3.626   3.877  16.063  0.0992 -0.6853  0.4496
 5806TIP3    H138833   3.683   3.953  16.076 -0.5288 -0.0847 -0.2383
 5806TIP3    H238834   3.676   3.804  16.099  0.6040  0.0849  1.3920
 5807TIP3   OH238835   1.201   2.597   3.747  0.0781 -0.1339 -0.2792
 5807TIP3    H138836   1.139   2.534   3.784  1.3062 -1.2116  0.0175
 5807TIP3    H238837   1.149   2.649   3.685 -1.6136  0.4622  1.5334
 5808TIP3   OH238838   5.455   6.638  15.967  0.2370  0.0463  0.3655
 5808TIP3    H138839   5.361   6.641  15.948  0.1088  1.4879  1.0884
 5808TIP3    H238840   5.474   6.545  15.980 -1.0613 -0.2776  0.1040
 5809TIP3   OH238841   5.580   5.059  11.288 -0.3216  0.1611  0.1439
 5809TIP3    H138842   5.654   5.103  11.246 -0.1434 -1.1206 -0.9502
 5809TIP3    H238843   5.574   5.100  11.375  1.4287  0.5551  0.1161
 5810TIP3   OH238844   1.930   2.150  11.750  0.5493 -0.1789  0.1036
 5810TIP3    H138845   1.995   2.165  11.819  0.4686 -0.3301  0.2145
 5810TIP3    H238846   1.860   2.101  11.794  1.0753 -1.4010 -0.3726
 5811TIP3   OH238847   1.580   1.528   5.169  0.5696  0.2025  0.0292
 5811TIP3    H138848   1.675   1.530   5.154  0.2787 -1.6296 -2.8847
 5811TIP3    H238849   1.568   1.461   5.236  1.3318  0.8604  0.8507
 5812TIP3   OH238850   3.261   6.764   6.047 -0.4037 -0.0851 -0.1362
 5812TIP3    H138851   3.184   6.820   6.060 -0.0997 -0.0113  1.5825
 5812TIP3    H238852   3.232   6.678   6.077  0.1601 -0.0576  0.5118
 5813TIP3   OH238853   2.343   3.700   4.843 -0.3481 -0.1573  0.4843
 5813TIP3    H138854   2.315   3.657   4.762  3.2456  0.1025 -1.1063
 5813TIP3    H238855   2.329   3.634   4.911 -0.4584 -1.6587 -0.9159
 5814TIP3   OH238856   2.691   3.625   5.135 -0.5221 -0.2472 -0.6133
 5814TIP3    H138857   2.758   3.693   5.142  0.6500 -1.1864 -2.1528
 5814TIP3    H238858   2.612   3.671   5.106  0.1693  0.5007 -1.3274
 5815TIP3   OH238859   6.372   3.095  16.191  0.4158 -0.3952  0.2139
 5815TIP3    H138860   6.364   3.012  16.238  0.4215 -0.3117  0.3613
 5815TIP3    H238861   6.401   3.157  16.257 -0.6080 -0.0422  0.3458
 5816TIP3   OH238862   0.173   1.606  16.520 -0.6161  0.2826  0.0189
 5816TIP3    H138863   0.200   1.533  16.464  1.5191  0.6682  0.4837
 5816TIP3    H238864   0.180   1.684  16.464 -0.1731  0.4598  0.3178
 5817TIP3   OH238865   0.436   1.612   5.005 -0.4266  0.3172  0.3008
 5817TIP3    H138866   0.409   1.546   5.069  0.6948  0.3340  0.8213
 5817TIP3    H238867   0.477   1.561   4.935  0.7657  0.4608  0.8717
 5818TIP3   OH238868   3.081   0.812  15.949  0.1705 -0.1302 -0.1349
 5818TIP3    H138869   3.105   0.899  15.916 -0.7089 -0.3311 -1.3759
 5818TIP3    H238870   3.038   0.830  16.033 -0.5649  0.7109 -0.6686
 5819TIP3   OH238871   2.234   2.029   3.816 -0.3283 -0.0925 -0.0752
 5819TIP3    H138872   2.182   1.958   3.854  0.6380 -0.9805 -0.3697
 5819TIP3    H238873   2.324   2.007   3.837  0.1808 -0.1750 -2.0832
 5820TIP3   OH238874   2.154   6.582  15.609  0.6947 -0.1870  0.1520
 5820TIP3    H138875   2.059   6.574  15.611  0.7376 -0.6631  0.5110
 5820TIP3    H238876   2.186   6.492  15.621  1.1877 -0.0545 -0.1271
 5821TIP3   OH238877   3.767   6.131  12.166 -0.4777 -0.1706  0.1641
 5821TIP3    H138878   3.714   6.198  12.208  0.4835  1.3471 -0.9403
 5821TIP3    H238879   3.819   6.178  12.101  0.8027 -1.8777 -0.1394
 5822TIP3   OH238880   4.072   1.963   1.767  0.0564  0.1114 -0.3449
 5822TIP3    H138881   4.148   1.956   1.825 -0.6893 -1.4829  0.5015
 5822TIP3    H238882   4.059   1.874   1.734 -1.3874  0.3791 -0.5520
 5823TIP3   OH238883   5.338   1.001  11.639  0.0552  0.2654  0.8335
 5823TIP3    H138884   5.281   0.932  11.672 -0.4463  0.5237  0.5199
 5823TIP3    H238885   5.372   0.967  11.556 -1.1861  0.8765  0.0341
 5824TIP3   OH238886   3.264   1.836   6.328 -0.1815  0.2766  0.1584
 5824TIP3    H138887   3.192   1.877   6.282  0.4535  3.5260  1.8001
 5824TIP3    H238888   3.336   1.837   6.265 -0.7213 -0.2080 -0.4806
 5825TIP3   OH238889   1.328   0.914   3.615  0.4421 -1.0320 -0.1058
 5825TIP3    H138890   1.388   0.933   3.686  0.5121 -0.0010 -0.4241
 5825TIP3    H238891   1.369   0.952   3.538 -0.6142 -0.2994 -0.3263
 5826TIP3   OH238892   5.521   2.325   1.461  0.3579  0.2069  0.4609
 5826TIP3    H138893   5.448   2.281   1.506 -1.2054 -1.5445 -3.2878
 5826TIP3    H238894   5.582   2.254   1.441  1.6082  1.1458  0.8792
 5827TIP3   OH238895   4.556   0.979   3.699  0.3748 -0.2593 -0.7352
 5827TIP3    H138896   4.514   0.895   3.718 -1.9005  1.1319  0.9735
 5827TIP3    H238897   4.646   0.969   3.730 -0.1674 -1.7056  0.4690
 5828TIP3   OH238898   3.612   5.227  13.114 -0.3015  0.5168  0.4010
 5828TIP3    H138899   3.625   5.282  13.191 -1.0185  0.8202  0.3156
 5828TIP3    H238900   3.694   5.234  13.065  0.5842 -0.5577  1.6632
 5829TIP3   OH238901   3.809   2.338   3.960  0.6449  0.0503  0.0018
 5829TIP3    H138902   3.898   2.368   3.938  0.5183 -0.2553 -0.9887
 5829TIP3    H238903   3.769   2.321   3.875 -0.0974 -0.5969  0.4777
 5830TIP3   OH238904   3.986   0.856   2.313  0.0351 -0.0551  0.1312
 5830TIP3    H138905   4.071   0.872   2.270  0.4077  3.5081  1.7975
 5830TIP3    H238906   3.926   0.915   2.268 -0.1793  1.6597  2.4386
 5831TIP3   OH238907   4.295   1.900   0.814 -0.4642  0.5646  0.7681
 5831TIP3    H138908   4.362   1.941   0.868  0.5508  0.1970 -0.1681
 5831TIP3    H238909   4.261   1.828   0.867  0.0558  0.6147  1.1740
 5832TIP3   OH238910   4.930   4.249  14.302 -0.2779 -0.0586  0.8801
 5832TIP3    H138911   5.022   4.222  14.298 -0.3733 -0.2693 -0.6922
 5832TIP3    H238912   4.903   4.230  14.392  1.1927 -0.0616  1.3450
 5833TIP3   OH238913   4.118   6.014  16.198 -0.4721  0.5626 -0.1050
 5833TIP3    H138914   4.078   6.033  16.283  0.1822  1.4198  0.0280
 5833TIP3    H238915   4.094   6.089  16.143  0.4762  0.8113 -0.1870
 5834TIP3   OH238916   0.196   5.655   1.680  0.1096 -0.2022  0.0083
 5834TIP3    H138917   0.210   5.571   1.636 -0.4255 -0.8203  0.9751
 5834TIP3    H238918   0.207   5.720   1.611 -0.6304 -1.1248 -1.0220
 5835TIP3   OH238919   2.393   0.039   5.494 -0.6585 -0.7622  0.2533
 5835TIP3    H138920   2.302   0.046   5.523 -0.6219 -0.9302  0.4142
 5835TIP3    H238921   2.428   0.127   5.504 -0.7784 -0.7161  0.2764
 5836TIP3   OH238922   3.321   0.182   3.956  0.2493 -0.0579  0.8821
 5836TIP3    H138923   3.323   0.166   3.862  1.1173 -0.0064  0.8887
 5836TIP3    H238924   3.238   0.227   3.971 -0.0151 -0.3091  0.1835
 5837TIP3   OH238925   6.613   5.146  15.542  0.0030 -0.0869  0.1160
 5837TIP3    H138926   6.549   5.139  15.614 -0.0159 -2.8540 -0.0369
 5837TIP3    H238927   6.566   5.192  15.473 -0.5754  1.0885  1.2473
 5838TIP3   OH238928   2.968   0.556  16.206  0.8064 -0.3658  0.3142
 5838TIP3    H138929   3.043   0.605  16.172  1.0974  0.2019  1.6751
 5838TIP3    H238930   2.934   0.612  16.277 -0.6097 -0.8437  0.0377
 5839TIP3   OH238931   0.269   3.746  10.930 -0.3138 -0.2545  0.3721
 5839TIP3    H138932   0.356   3.785  10.925 -1.3699  2.0902 -1.3545
 5839TIP3    H238933   0.265   3.686  10.856  0.3925 -1.7515  1.4959
 5840TIP3   OH238934   5.738   2.571   1.050 -0.7856 -0.4255 -0.1667
 5840TIP3    H138935   5.786   2.529   1.121  1.4486 -0.0248 -1.3800
 5840TIP3    H238936   5.730   2.504   0.982 -1.1166 -0.1919 -0.3670
 5841TIP3   OH238937   3.396   4.154   4.700  0.0667 -0.6209  0.2546
 5841TIP3    H138938   3.423   4.092   4.768  0.2470 -0.4051  0.3825
 5841TIP3    H238939   3.322   4.111   4.656  0.2596 -0.9754  0.2677
 5842TIP3   OH238940   2.237   1.149  10.622 -0.3089  0.4069  0.1877
 5842TIP3    H138941   2.203   1.180  10.537 -2.2646 -0.2807  0.6720
 5842TIP3    H238942   2.218   1.056  10.623  0.3846  0.2624  1.1024
 5843TIP3   OH238943   0.858   3.986  11.130  0.0358  0.3138 -0.0507
 5843TIP3    H138944   0.794   3.961  11.063  0.7403 -1.8524  0.0114
 5843TIP3    H238945   0.821   3.953  11.211  0.2427  0.9498  0.3094
 5844TIP3   OH238946   6.073   1.788   4.456  0.2050  0.2117  0.0731
 5844TIP3    H138947   6.137   1.737   4.506 -0.4693 -1.8926 -1.1262
 5844TIP3    H238948   5.993   1.782   4.508  0.2284  0.4213  0.1343
 5845TIP3   OH238949   2.896   5.686  16.906  0.5239 -0.3559  0.0544
 5845TIP3    H138950   2.942   5.743  16.968  0.5802 -1.5558  1.1428
 5845TIP3    H238951   2.909   5.598  16.939  0.7016 -1.0630 -1.7778
 5846TIP3   OH238952   5.170   0.401   2.017 -0.7951  0.0677  0.3766
 5846TIP3    H138953   5.193   0.403   1.924  1.1003 -1.5723  0.7291
 5846TIP3    H238954   5.208   0.482   2.052 -1.6086  0.7481 -0.2712
 5847TIP3   OH238955   0.274   6.177   4.037 -0.0887  0.3060 -0.3148
 5847TIP3    H138956   0.345   6.171   3.973  0.8086 -0.3969  0.6975
 5847TIP3    H238957   0.202   6.218   3.990  0.0900 -1.3462 -2.1686
 5848TIP3   OH238958   2.583   6.442   1.687 -0.4883 -0.2751  0.3173
 5848TIP3    H138959   2.508   6.499   1.701 -1.2416 -0.9118 -0.9819
 5848TIP3    H238960   2.564   6.363   1.738  0.2575  0.3186  1.5905
 5849TIP3   OH238961   4.486   0.881  13.749 -0.1885 -0.0542 -0.5938
 5849TIP3    H138962   4.542   0.907  13.822 -1.1008 -0.8474  0.4120
 5849TIP3    H238963   4.542   0.828  13.693  0.5777  0.7367 -0.5993
 5850TIP3   OH238964   6.277   2.036   5.990 -0.1498  0.2891 -0.3637
 5850TIP3    H138965   6.200   2.086   6.017 -1.6462 -2.6100  1.2456
 5850TIP3    H238966   6.349   2.075   6.040 -0.8674  1.9208 -0.5359
 5851TIP3   OH238967   4.041   3.545  14.397 -0.0588  0.3600  0.3941
 5851TIP3    H138968   3.946   3.537  14.396 -0.4138  3.2675 -1.6631
 5851TIP3    H238969   4.066   3.548  14.305  1.8118  1.4210  0.8930
 5852TIP3   OH238970   0.935   4.580   1.520 -0.3909 -0.1802  0.0811
 5852TIP3    H138971   1.001   4.557   1.455 -0.7737 -0.4305 -0.2294
 5852TIP3    H238972   0.874   4.636   1.473  0.0484  0.7517  0.5942
 5853TIP3   OH238973   0.434   2.315   0.581  0.2495  0.4146 -0.3411
 5853TIP3    H138974   0.511   2.338   0.529  0.6117  0.3875  0.1839
 5853TIP3    H238975   0.461   2.325   0.672  0.8328 -3.2025  0.0256
 5854TIP3   OH238976   1.918   1.383   0.376 -0.5845 -0.5158 -0.4448
 5854TIP3    H138977   1.955   1.453   0.322 -0.6203  0.1101  0.3309
 5854TIP3    H238978   1.825   1.404   0.383 -0.4723 -0.2443  0.3630
 5855TIP3   OH238979   1.932   4.928  11.369  0.0730 -0.2993 -0.0719
 5855TIP3    H138980   2.021   4.893  11.369 -0.2707 -1.2083  0.4449
 5855TIP3    H238981   1.912   4.943  11.277  0.4798 -0.8410 -0.2548
 5856TIP3   OH238982   5.182   0.504   5.649  0.3270  0.2035 -0.2574
 5856TIP3    H138983   5.175   0.527   5.557  0.3340 -0.4558 -0.4265
 5856TIP3    H238984   5.265   0.458   5.657 -0.4430 -1.2436 -0.2591
 5857TIP3   OH238985   5.015   1.758  11.876 -0.0568  0.5649 -0.3242
 5857TIP3    H138986   5.106   1.783  11.859  0.1608 -1.5274 -2.9864
 5857TIP3    H238987   5.011   1.665  11.853 -2.5513  0.1866  1.2415
 5858TIP3   OH238988   5.975   2.013  14.519  0.0123 -0.2822 -0.4202
 5858TIP3    H138989   5.905   2.071  14.489  0.3702 -0.4073 -1.5569
 5858TIP3    H238990   6.055   2.066  14.511  0.3514 -0.9310 -1.5511
 5859TIP3   OH238991   3.255   5.207   2.035  0.4909  0.1986 -0.4097
 5859TIP3    H138992   3.289   5.232   1.949  0.4615  0.0007 -0.4804
 5859TIP3    H238993   3.170   5.166   2.016  0.9526 -0.8065 -0.3864
 5860TIP3   OH238994   4.553   0.360  13.318 -0.2210 -0.0442  0.3630
 5860TIP3    H138995   4.624   0.423  13.320 -1.6698  1.6557  0.5926
 5860TIP3    H238996   4.574   0.302  13.245  1.8879 -0.2391  1.0670
 5861TIP3   OH238997   1.115   4.033   4.316  0.5257 -0.1756 -0.2747
 5861TIP3    H138998   1.108   3.941   4.292  1.3564  0.2282 -2.2823
 5861TIP3    H238999   1.185   4.035   4.381  0.1911 -1.0210  0.1218
 5862TIP3   OH239000   2.405   4.245   1.546 -0.1500  1.0204  0.5736
 5862TIP3    H139001   2.396   4.253   1.451 -0.2542  2.4093  0.6866
 5862TIP3    H239002   2.315   4.245   1.579 -0.1003  1.0151  0.7112
 5863TIP3   OH239003   2.080   6.258   1.209  0.0677  0.2148 -0.0902
 5863TIP3    H139004   2.150   6.218   1.158  0.8270  1.5970 -0.1953
 5863TIP3    H239005   2.125   6.295   1.285 -0.1298  2.9581 -1.1784
 5864TIP3   OH239006   2.544   6.051  13.183  0.1565 -0.4643 -0.2751
 5864TIP3    H139007   2.530   6.110  13.109 -0.1408 -1.7571 -1.3037
 5864TIP3    H239008   2.527   5.964  13.147  0.5742 -1.1824  1.1835
 5865TIP3   OH239009   5.718   1.179   0.944 -0.3060 -0.4289 -0.2297
 5865TIP3    H139010   5.780   1.108   0.963 -0.0972 -0.5571 -1.3603
 5865TIP3    H239011   5.773   1.252   0.917 -0.6495 -0.5910 -1.3886
 5866TIP3   OH239012   0.536   0.195  16.792 -0.0194  0.7513 -0.0738
 5866TIP3    H139013   0.626   0.180  16.818  0.2162  1.8371 -0.2065
 5866TIP3    H239014   0.493   0.229  16.871 -0.4526 -0.2544  0.1363
 5867TIP3   OH239015   4.033   5.790  12.236 -0.2698  0.4852  0.2715
 5867TIP3    H139016   4.124   5.774  12.211 -0.6704 -0.1971 -0.8327
 5867TIP3    H239017   3.986   5.713  12.204 -1.2753  0.9520  0.5918
 5868TIP3   OH239018   5.129   5.167  16.239 -0.6223 -0.2241 -0.2071
 5868TIP3    H139019   5.149   5.252  16.278  0.8800 -0.3573 -0.6463
 5868TIP3    H239020   5.131   5.106  16.312  0.2736 -0.1751 -0.1804
 5869TIP3   OH239021   4.779   5.590  15.426  0.1615 -0.5498 -0.6473
 5869TIP3    H139022   4.846   5.559  15.487 -0.1196 -1.4521 -0.7957
 5869TIP3    H239023   4.800   5.547  15.343  0.2872  0.3451 -1.0980
 5870TIP3   OH239024   2.871   0.027  13.619 -0.3559  0.0567  0.5641
 5870TIP3    H139025   2.836  -0.039  13.679  1.4038 -0.4907  1.0226
 5870TIP3    H239026   2.950   0.060  13.662  0.8125 -0.1480 -1.3248
 5871TIP3   OH239027   4.018   1.280   4.441 -0.2192 -0.1568  0.5246
 5871TIP3    H139028   4.044   1.275   4.349 -1.3465 -2.0532  0.2631
 5871TIP3    H239029   4.077   1.219   4.485 -2.3797 -2.5454  0.3221
 5872TIP3   OH239030   3.402   3.073  16.440 -0.1396 -1.0323 -0.0828
 5872TIP3    H139031   3.475   3.011  16.446  0.6482 -0.0228  1.7150
 5872TIP3    H239032   3.325   3.022  16.464  0.7359 -1.0128  3.2268
 5873TIP3   OH239033   3.358   0.857   3.898  0.4127 -0.1362  0.1818
 5873TIP3    H139034   3.403   0.914   3.836  0.1094 -0.8951 -0.7521
 5873TIP3    H239035   3.304   0.800   3.844  1.8111 -2.3328  0.9555
 5874TIP3   OH239036   6.336   3.016  15.504  0.0502  1.0122  0.4748
 5874TIP3    H139037   6.412   3.025  15.562  1.1367 -1.3543 -0.4242
 5874TIP3    H239038   6.374   2.986  15.421 -1.6187  2.6533 -0.9481
 5875TIP3   OH239039   4.666   0.583   4.951  0.4107 -0.3574 -0.1172
 5875TIP3    H139040   4.741   0.607   5.005  0.2808  0.3567 -0.2482
 5875TIP3    H239041   4.666   0.647   4.880 -0.9951  0.3915  0.5166
 5876TIP3   OH239042   0.353   3.319   1.279  0.2474  0.5184 -0.2746
 5876TIP3    H139043   0.409   3.295   1.352 -0.3568 -0.4872 -0.1097
 5876TIP3    H239044   0.301   3.240   1.262 -2.0994  1.7885  0.4859
 5877TIP3   OH239045   0.558   1.322   2.961 -0.8942 -0.0482  0.0250
 5877TIP3    H139046   0.483   1.263   2.965 -1.0318  0.1168 -0.1207
 5877TIP3    H239047   0.634   1.265   2.974 -1.0811 -0.1150  0.9032
 5878TIP3   OH239048   3.633   2.045  15.440 -0.0104 -0.2209 -0.2594
 5878TIP3    H139049   3.692   2.055  15.515 -1.1687 -0.1529  0.6736
 5878TIP3    H239050   3.558   1.997  15.476  0.0522 -1.4941 -1.7312
 5879TIP3   OH239051   2.667   0.950  16.819 -0.3203  0.3652  0.4842
 5879TIP3    H139052   2.651   0.870  16.769  0.6961  0.1464  0.4984
 5879TIP3    H239053   2.623   0.935  16.902  1.0915 -0.8214  1.0624
 5880TIP3   OH239054   1.197   5.868  12.502 -0.6785  0.3007  0.8537
 5880TIP3    H139055   1.224   5.877  12.593  0.9351 -2.1213  0.7227
 5880TIP3    H239056   1.106   5.839  12.507 -0.4084 -0.4495  1.7478
 5881TIP3   OH239057   4.542   0.796  12.129 -0.1287 -0.7701  0.2805
 5881TIP3    H139058   4.519   0.806  12.037 -0.7674  2.0258  0.6653
 5881TIP3    H239059   4.478   0.850  12.176  0.3904 -1.8571  2.3452
 5882TIP3   OH239060   5.303   5.828   3.130  0.1335 -0.7073 -0.5252
 5882TIP3    H139061   5.275   5.911   3.167  0.4745 -0.8454  0.0551
 5882TIP3    H239062   5.222   5.780   3.113 -0.1033  0.0366 -1.5874
 5883TIP3   OH239063   3.297   0.501   1.131  0.5443 -0.0126 -0.2546
 5883TIP3    H139064   3.269   0.592   1.143  0.3400 -0.3014  1.6277
 5883TIP3    H239065   3.392   0.506   1.126  0.6245  0.2017  1.1490
 5884TIP3   OH239066   5.984   1.578   5.081  0.2113  0.0865 -0.1710
 5884TIP3    H139067   5.955   1.492   5.112  1.1153 -0.1436  0.0669
 5884TIP3    H239068   6.079   1.575   5.087  0.2775  0.9363 -0.6266
 5885TIP3   OH239069   6.671   2.954  13.893  0.9711  0.0507 -0.1871
 5885TIP3    H139070   6.716   2.904  13.825  1.2290 -0.3196  0.2571
 5885TIP3    H239071   6.670   2.896  13.969 -0.7722 -0.1854 -0.3569
 5886TIP3   OH239072   2.001   5.523  14.408 -0.0982  0.5154  0.1445
 5886TIP3    H139073   2.088   5.525  14.448 -1.1768 -1.3202  2.8191
 5886TIP3    H239074   1.971   5.614  14.414  0.3697  0.5768  2.2658
 5887TIP3   OH239075   3.066   1.471  16.455 -0.2242 -0.2906  0.7452
 5887TIP3    H139076   2.991   1.412  16.459 -0.1392 -0.5254 -0.6526
 5887TIP3    H239077   3.095   1.478  16.546 -0.9708 -1.4445  1.1021
 5888TIP3   OH239078   5.332   0.406   1.792  0.3734  0.8944  0.2210
 5888TIP3    H139079   5.357   0.486   1.746 -1.3944  1.4631  0.1978
 5888TIP3    H239080   5.323   0.341   1.722  2.5661  0.4158  0.3115
 5889TIP3   OH239081   3.383   3.700  16.842 -0.5009  0.7455  0.3883
 5889TIP3    H139082   3.362   3.793  16.833 -2.1226  0.3896  0.2015
 5889TIP3    H239083   3.472   3.692  16.808 -1.4297  1.7582 -2.5526
 5890TIP3   OH239084   0.037   1.896  12.120  0.2379  0.3631  0.4679
 5890TIP3    H139085  -0.045   1.920  12.163  0.9630  0.2665  1.9717
 5890TIP3    H239086   0.095   1.872  12.192  1.1722 -0.8601 -0.6576
 5891TIP3   OH239087   3.274   6.206   3.039  0.0080 -0.0108 -0.2915
 5891TIP3    H139088   3.256   6.300   3.033 -2.7601 -0.5896 -3.1207
 5891TIP3    H239089   3.352   6.194   2.985  1.2189  0.7574  1.1973
 5892TIP3   OH239090   3.639   3.474   6.899  0.0846 -0.0544  0.4796
 5892TIP3    H139091   3.636   3.386   6.861  1.7696  0.1963 -0.3469
 5892TIP3    H239092   3.678   3.529   6.830  1.8302  0.7219  2.0097
 5893TIP3   OH239093   1.939   2.255  14.931  0.0611  0.0601  0.7831
 5893TIP3    H139094   1.844   2.269  14.924 -0.0361 -0.4166  1.1169
 5893TIP3    H239095   1.955   2.177  14.878 -0.1248 -1.3875  2.7595
 5894TIP3   OH239096   5.049   4.622  15.566 -0.8142  0.3569  0.3777
 5894TIP3    H139097   5.131   4.664  15.592 -0.5061 -0.1890  0.3062
 5894TIP3    H239098   4.981   4.673  15.610 -0.2832 -0.8553  2.7662
 5895TIP3   OH239099   4.149   2.531   0.917 -0.2373  0.4992 -0.3382
 5895TIP3    H139100   4.243   2.516   0.908 -0.5953 -1.2916 -1.5670
 5895TIP3    H239101   4.137   2.624   0.896  1.4984  1.3913  2.1808
 5896TIP3   OH239102   2.892   6.667   2.368 -0.5305 -0.1646  0.1501
 5896TIP3    H139103   2.870   6.761   2.366 -1.7783 -0.4548 -0.1853
 5896TIP3    H239104   2.943   6.653   2.288  1.7607  0.6895  1.3545
 5897TIP3   OH239105   1.415   5.148  13.911 -0.1628  0.4837 -0.5160
 5897TIP3    H139106   1.510   5.151  13.896 -0.1949 -0.3601 -0.9774
 5897TIP3    H239107   1.379   5.130  13.824 -0.7353  0.6602 -0.3135
 5898TIP3   OH239108   1.097   3.761   5.416  0.2663  0.1675 -0.6391
 5898TIP3    H139109   1.181   3.805   5.405  1.7324 -2.4327 -0.3931
 5898TIP3    H239110   1.056   3.807   5.489  0.8575  2.2708 -1.5452
 5899TIP3   OH239111   6.585   3.898  12.875 -0.1803  0.1514  0.1766
 5899TIP3    H139112   6.647   3.836  12.913  0.6535  0.5151 -0.5466
 5899TIP3    H239113   6.533   3.846  12.814  1.6347  0.4187 -1.7061
 5900TIP3   OH239114   0.489   3.394  11.645  0.3705 -0.8500 -0.3249
 5900TIP3    H139115   0.509   3.485  11.666 -1.1351 -0.8437  1.3259
 5900TIP3    H239116   0.547   3.343  11.701 -0.9117 -0.8434  1.0858
 5901TIP3   OH239117   0.397   5.168  16.898  0.5731 -0.1247 -0.6780
 5901TIP3    H139118   0.362   5.243  16.850  2.3668  0.2656 -1.4372
 5901TIP3    H239119   0.320   5.128  16.938 -0.3184  2.8742  0.8840
 5902TIP3   OH239120   6.007   4.350  15.365 -0.0466  0.0765  0.4863
 5902TIP3    H139121   5.938   4.284  15.361 -0.1244  0.0959  1.3120
 5902TIP3    H239122   5.961   4.432  15.384 -0.0850  0.6189 -1.7537
 5903TIP3   OH239123   2.029   4.723   4.803  0.7040 -0.3289  0.5538
 5903TIP3    H139124   2.095   4.667   4.764  1.2773 -0.1392  1.2156
 5903TIP3    H239125   1.966   4.663   4.842  0.0602 -0.5195 -0.7330
 5904TIP3   OH239126   4.801   4.208  11.900 -0.9133 -0.1183 -0.2570
 5904TIP3    H139127   4.879   4.175  11.945 -1.7689 -2.0764 -0.1321
 5904TIP3    H239128   4.827   4.213  11.808 -0.6881 -0.9126 -0.2400
 5905TIP3   OH239129   6.090   3.984  17.206 -0.0207  0.3407 -0.0379
 5905TIP3    H139130   6.060   4.033  17.129 -0.2581  1.6419  0.8383
 5905TIP3    H239131   6.062   4.038  17.280  0.4765 -0.7277  0.9497
 5906TIP3   OH239132   2.228   0.193  11.394  0.2304 -0.0919  0.0418
 5906TIP3    H139133   2.141   0.156  11.412  0.3967 -0.8124 -0.5896
 5906TIP3    H239134   2.242   0.178  11.301 -0.1434  2.5702 -0.5263
 5907TIP3   OH239135   1.216   1.968   5.352  0.7263 -0.3219  0.1101
 5907TIP3    H139136   1.125   1.991   5.331  0.8086 -0.0696  0.0193
 5907TIP3    H239137   1.218   1.962   5.447  1.0121  1.4651  0.2625
 5908TIP3   OH239138   4.387   4.760   4.423  0.3357  0.5371 -0.1566
 5908TIP3    H139139   4.351   4.773   4.510 -1.0975 -0.2726 -0.5951
 5908TIP3    H239140   4.475   4.799   4.427  1.0849 -1.1514  2.1891
 5909TIP3   OH239141   1.767   0.527   0.262  0.1533 -0.6553 -0.1949
 5909TIP3    H139142   1.739   0.480   0.340 -0.3986 -2.0168 -1.1603
 5909TIP3    H239143   1.803   0.609   0.294 -4.6291  1.2138  1.2458
 5910TIP3   OH239144   4.307   4.163   6.155  0.2336  0.1080  0.4580
 5910TIP3    H139145   4.372   4.221   6.116  1.8393 -0.7529  1.7455
 5910TIP3    H239146   4.351   4.078   6.162 -1.3512 -0.7517  0.5106
 5911TIP3   OH239147   1.805   0.791  15.108 -0.2141  0.2682 -0.4846
 5911TIP3    H139148   1.850   0.872  15.134 -0.9395  0.2676  0.8837
 5911TIP3    H239149   1.860   0.754  15.039 -0.5344  2.5707 -2.1009
 5912TIP3   OH239150   3.324   0.646   3.603 -0.1698  0.0335 -0.1654
 5912TIP3    H139151   3.229   0.657   3.598 -0.0176  1.6329 -0.0600
 5912TIP3    H239152   3.358   0.706   3.537  0.7949 -0.0446  0.2522
 5913TIP3   OH239153   1.053   6.514  15.565 -0.4967  0.0945  0.0402
 5913TIP3    H139154   1.028   6.427  15.532 -1.4493  0.5681 -0.5248
 5913TIP3    H239155   1.104   6.496  15.644 -0.6105 -0.9858 -0.1196
 5914TIP3   OH239156   0.558   6.300   3.584  0.3761 -0.6989 -0.0243
 5914TIP3    H139157   0.644   6.285   3.546  0.1625 -1.8824 -0.0651
 5914TIP3    H239158   0.497   6.265   3.519 -0.0006 -2.8248  1.3854
 5915TIP3   OH239159   3.492   1.409  13.117  0.2249  0.2924  0.3337
 5915TIP3    H139160   3.487   1.471  13.044  1.4971 -0.4977 -0.4586
 5915TIP3    H239161   3.515   1.462  13.193  0.0722  0.9581 -0.0819
 5916TIP3   OH239162   2.153   0.779  15.426 -0.5782  0.1659 -0.0635
 5916TIP3    H139163   2.179   0.815  15.341  0.7178 -1.7994 -0.5662
 5916TIP3    H239164   2.156   0.853  15.486  0.7455  1.1474 -1.2832
 5917TIP3   OH239165   3.653   4.321   1.449 -0.3111 -0.1798 -0.3608
 5917TIP3    H139166   3.604   4.288   1.524 -0.8393 -1.5362 -1.2804
 5917TIP3    H239167   3.741   4.285   1.460 -0.7818 -1.6676 -1.1513
 5918TIP3   OH239168   1.699   3.114   3.377 -0.2919 -0.7734  0.3642
 5918TIP3    H139169   1.748   3.183   3.331 -2.1759  0.2116 -0.2880
 5918TIP3    H239170   1.761   3.043   3.387  1.4635  0.6732  0.2136
 5919TIP3   OH239171   0.881   3.027   6.253  0.3181  0.3102  0.0326
 5919TIP3    H139172   0.913   3.063   6.336  0.5038  2.0704 -0.7609
 5919TIP3    H239173   0.808   2.971   6.278 -0.0119  1.2761  1.3534
 5920TIP3   OH239174   1.859   6.146   1.810  0.3138 -0.1633 -0.0159
 5920TIP3    H139175   1.807   6.067   1.826 -0.3675  0.2801 -0.0228
 5920TIP3    H239176   1.868   6.150   1.715  0.3459 -0.2280 -0.0157
 5921TIP3   OH239177   2.667   5.143  11.680  0.3037  0.2692 -0.4867
 5921TIP3    H139178   2.710   5.108  11.758 -0.2802  1.0301  0.1908
 5921TIP3    H239179   2.637   5.065  11.633 -1.4998 -0.1996  1.2963
 5922TIP3   OH239180   1.058   6.442  16.069  0.3113  0.3599 -0.0059
 5922TIP3    H139181   1.138   6.398  16.039  0.2503  0.3841 -0.2083
 5922TIP3    H239182   1.063   6.529  16.029 -0.5958 -0.1671 -1.3366
 5923TIP3   OH239183   0.158   2.289  12.183 -0.1475  0.0228 -1.1036
 5923TIP3    H139184   0.080   2.243  12.214 -0.8533  2.4555  1.1114
 5923TIP3    H239185   0.230   2.227  12.198 -1.4972 -1.9062 -2.2894
 5924TIP3   OH239186   1.179   6.007   1.050  0.6528 -0.4588 -0.0601
 5924TIP3    H139187   1.167   6.101   1.046  0.4575 -0.5006 -0.4996
 5924TIP3    H239188   1.151   5.975   0.964 -0.1027 -1.0065  0.3784
 5925TIP3   OH239189   0.651   2.000   2.004 -0.2105 -0.2141 -0.6952
 5925TIP3    H139190   0.640   1.910   1.973  1.2247 -0.1547 -1.4310
 5925TIP3    H239191   0.599   2.003   2.085 -0.1116 -1.7649 -0.5281
 5926TIP3   OH239192   5.998   3.489  16.938  0.0615 -0.1933 -0.3902
 5926TIP3    H139193   6.083   3.502  16.896  0.1954 -3.0736 -1.2851
 5926TIP3    H239194   5.935   3.524  16.876  0.4916  0.0247 -0.7135
 5927TIP3   OH239195   1.967   1.962   2.958  0.2938 -0.0545 -0.3821
 5927TIP3    H139196   1.978   2.057   2.961 -1.9438  0.3811 -2.6405
 5927TIP3    H239197   2.052   1.930   2.928  1.0358  1.2453  0.2408
 5928TIP3   OH239198   0.897   0.260  15.272 -0.7385  0.3241 -0.1971
 5928TIP3    H139199   0.808   0.233  15.295 -1.3445  1.4948 -1.0107
 5928TIP3    H239200   0.885   0.323  15.201  0.5413  2.4561  1.3321
 5929TIP3   OH239201   3.170   4.920   5.985 -0.2503  0.1379 -0.3625
 5929TIP3    H139202   3.129   5.006   5.980 -0.2848  0.0821 -1.1717
 5929TIP3    H239203   3.251   4.928   5.934 -0.2185 -0.2840 -0.3868
 5930TIP3   OH239204   5.972   2.665   4.851 -0.2183  0.0859  0.2189
 5930TIP3    H139205   5.882   2.658   4.817  0.7501 -0.2617 -2.5632
 5930TIP3    H239206   6.022   2.702   4.778  2.0804 -0.6527  1.3259
 5931TIP3   OH239207   6.437   4.665   1.892  0.4642 -0.3162 -0.1210
 5931TIP3    H139208   6.388   4.617   1.959  1.7127 -1.1470  0.2399
 5931TIP3    H239209   6.369   4.702   1.834 -0.5917 -0.6746  0.8498
 5932TIP3   OH239210   3.562   4.874   5.443 -0.1983  0.8687 -0.9095
 5932TIP3    H139211   3.633   4.939   5.447  0.4109  0.1739  0.2998
 5932TIP3    H239212   3.486   4.919   5.480  0.3311  0.7979  0.3295
 5933TIP3   OH239213   1.217   3.363  17.020 -0.0667  0.4243  0.3154
 5933TIP3    H139214   1.169   3.281  17.006  2.1933 -0.9277 -0.0438
 5933TIP3    H239215   1.308   3.336  17.028  0.6665  2.8579  1.0422
 5934TIP3   OH239216   6.028   0.738   0.408  1.0275  0.3321 -0.2068
 5934TIP3    H139217   5.981   0.655   0.417 -0.9942  1.4179 -0.2890
 5934TIP3    H239218   6.089   0.723   0.335  0.3172 -0.8922 -0.5852
 5935TIP3   OH239219   4.330   3.855   2.580  0.0630  0.1114  0.0566
 5935TIP3    H139220   4.382   3.796   2.527  2.1756  0.7274  1.3119
 5935TIP3    H239221   4.370   3.851   2.667 -2.1656  0.4590  1.1720
 5936TIP3   OH239222   2.888   6.104  11.954  0.3499 -0.0046 -0.3449
 5936TIP3    H139223   2.926   6.034  11.899  1.8206  0.0487  0.5359
 5936TIP3    H239224   2.946   6.108  12.030 -0.1003  1.7437 -0.0599
 5937TIP3   OH239225   0.075   2.936  11.072  0.1347 -0.0694 -0.2701
 5937TIP3    H139226  -0.004   2.981  11.044 -1.2997 -2.7345 -0.8082
 5937TIP3    H239227   0.044   2.863  11.125  2.2351 -1.2620 -0.5763
 5938TIP3   OH239228   3.828   1.085   2.782  0.2185 -0.4896  0.3847
 5938TIP3    H139229   3.811   1.025   2.854 -1.8555 -0.8308 -0.3101
 5938TIP3    H239230   3.811   1.172   2.818 -1.8643 -0.7249  0.1079
 5939TIP3   OH239231   4.284   1.388   2.774  0.7427 -0.1116  0.0219
 5939TIP3    H139232   4.369   1.430   2.764 -0.2176  1.6432 -1.4435
 5939TIP3    H239233   4.222   1.461   2.775 -0.8506 -1.4132 -0.3282
 5940TIP3   OH239234   1.609   3.093  16.852 -0.3962  0.3169 -0.3103
 5940TIP3    H139235   1.672   3.100  16.781 -0.2787  0.2533 -0.2140
 5940TIP3    H239236   1.662   3.101  16.932 -0.7444  2.2819 -0.2370
 5941TIP3   OH239237   4.222   6.580   3.724  0.0844  0.1804 -0.6345
 5941TIP3    H139238   4.221   6.573   3.819 -0.5517  2.4216 -0.4132
 5941TIP3    H239239   4.194   6.494   3.693  0.0619 -0.5145  1.1941
 5942TIP3   OH239240   0.194   1.381   4.149 -0.5110  0.3843  0.0413
 5942TIP3    H139241   0.127   1.376   4.081  0.7301  0.3442 -1.2173
 5942TIP3    H239242   0.270   1.418   4.105  0.9393 -1.4104  0.9008
 5943TIP3   OH239243   2.173   0.667   1.798 -0.2523  0.0930  0.8324
 5943TIP3    H139244   2.159   0.598   1.863 -0.0999  0.4509  1.2474
 5943TIP3    H239245   2.254   0.710   1.826 -0.5469  0.6793  0.7889
 5944TIP3   OH239246   2.710   0.836   4.823  0.3720 -0.1788 -0.2439
 5944TIP3    H139247   2.736   0.922   4.854  1.7862 -0.5021 -0.4810
 5944TIP3    H239248   2.677   0.791   4.901 -0.2104  0.5013 -0.0903
 5945TIP3   OH239249   0.351   0.148   4.717  0.1916 -0.2952 -0.7055
 5945TIP3    H139250   0.418   0.082   4.735  0.4216  0.2531  0.5528
 5945TIP3    H239251   0.384   0.196   4.642  1.5400  0.3741  0.2822
 5946TIP3   OH239252   3.045   5.746  14.710 -0.0719  0.4282 -0.4821
 5946TIP3    H139253   3.124   5.791  14.679  0.2832  0.4718  0.4351
 5946TIP3    H239254   3.076   5.690  14.781 -0.6218 -0.7946 -1.1843
 5947TIP3   OH239255   1.986   0.695  11.593 -0.6260 -0.2522  0.0198
 5947TIP3    H139256   1.966   0.781  11.629  0.9296  0.3587 -0.5253
 5947TIP3    H239257   1.983   0.636  11.669 -0.8375  0.4203  0.5424
 5948TIP3   OH239258   3.618   5.135  15.531 -0.1353 -0.3706  0.0327
 5948TIP3    H139259   3.637   5.221  15.570  0.3782 -0.3346 -0.2846
 5948TIP3    H239260   3.645   5.072  15.597 -1.0287 -0.2908  0.4959
 5949TIP3   OH239261   3.565   0.825  16.187  0.3398 -0.2927 -0.3711
 5949TIP3    H139262   3.571   0.758  16.119  3.0561  0.4811 -1.0165
 5949TIP3    H239263   3.648   0.819  16.234 -0.8387  0.2149  1.9662
 5950TIP3   OH239264   1.616   2.027   5.437  0.4354 -0.0568  0.2969
 5950TIP3    H139265   1.601   1.955   5.377  2.7419 -1.0893  0.8692
 5950TIP3    H239266   1.636   1.985   5.521  1.8081  1.2047  0.6479
 5951TIP3   OH239267   2.108   3.156   0.153  0.4861 -0.7417 -0.2924
 5951TIP3    H139268   2.145   3.183   0.237  1.0366 -0.5872 -0.5800
 5951TIP3    H239269   2.176   3.102   0.113  0.6281 -0.0277 -1.0579
 5952TIP3   OH239270   3.435   6.480  11.335 -0.3100  0.6594 -0.2105
 5952TIP3    H139271   3.407   6.480  11.243 -2.0290 -2.1236  0.1835
 5952TIP3    H239272   3.528   6.502  11.332 -0.6837  2.2946 -2.4293
 5953TIP3   OH239273   2.562   2.876  14.850  0.4584  0.9026  0.4399
 5953TIP3    H139274   2.568   2.924  14.932  0.3037  1.0732  0.3526
 5953TIP3    H239275   2.499   2.925  14.798  0.6256  0.8456  0.1838
 5954TIP3   OH239276   5.324   5.519  11.927  0.4405  0.2247 -0.3091
 5954TIP3    H139277   5.305   5.432  11.891  0.2480  0.7704 -1.5652
 5954TIP3    H239278   5.275   5.521  12.010  1.0999 -1.1473  0.1469
 5955TIP3   OH239279   3.754   5.465   2.057 -0.6043  0.5544 -0.2784
 5955TIP3    H139280   3.718   5.539   2.010 -2.7447 -0.0531  0.2924
 5955TIP3    H239281   3.678   5.410   2.078  0.5757 -0.4978  1.5670
 5956TIP3   OH239282   0.977   6.333  14.342 -0.4529  0.2675  0.1721
 5956TIP3    H139283   1.015   6.391  14.409 -0.3870 -0.3374  0.6717
 5956TIP3    H239284   1.047   6.324  14.277  0.3268 -0.8972  1.1211
 5957TIP3   OH239285   1.685   6.006   5.504  0.4235  0.1639  0.0261
 5957TIP3    H139286   1.719   5.919   5.484 -3.2280 -1.1583 -1.1203
 5957TIP3    H239287   1.763   6.061   5.513  2.9973 -3.4524  2.4465
 5958TIP3   OH239288   0.230   1.233  12.203 -0.7752  0.2717 -0.3477
 5958TIP3    H139289   0.226   1.140  12.224 -0.7643  0.4522  0.4862
 5958TIP3    H239290   0.140   1.257  12.183 -0.5344 -0.2923 -2.3200
 5959TIP3   OH239291   4.212   3.742   5.835  1.2031 -0.1794  0.0733
 5959TIP3    H139292   4.305   3.763   5.835  1.2782 -0.4970 -0.0951
 5959TIP3    H239293   4.169   3.819   5.873  1.7374 -0.8771  2.2395
 5960TIP3   OH239294   6.291   0.040   0.039 -0.4404  0.1876 -0.6718
 5960TIP3    H139295   6.309   0.105  -0.029  0.9837 -0.1080 -0.6059
 5960TIP3    H239296   6.376   0.022   0.078 -0.9494 -1.0456 -0.0699
 5961TIP3   OH239297   4.111   0.846  16.907 -0.0352  0.3554 -0.4364
 5961TIP3    H139298   4.107   0.864  16.813  0.2875 -0.9546 -0.7173
 5961TIP3    H239299   4.089   0.753  16.915 -0.0901  0.4572  0.7873
 5962TIP3   OH239300   5.653   5.921  17.130 -0.1002  0.1677 -0.9474
 5962TIP3    H139301   5.714   5.899  17.059 -1.1307 -0.1205 -1.7697
 5962TIP3    H239302   5.624   5.837  17.164 -0.3578  0.3026 -0.8328
 5963TIP3   OH239303   6.620   2.619   5.455 -0.4836  0.3277 -0.0894
 5963TIP3    H139304   6.706   2.650   5.428 -0.6322  1.1002  0.2958
 5963TIP3    H239305   6.612   2.532   5.416  1.5271 -0.8906  1.9296
 5964TIP3   OH239306   5.743   5.964  13.655 -0.1381  0.1503 -0.2936
 5964TIP3    H139307   5.710   6.050  13.678  0.8838  0.3841  0.3690
 5964TIP3    H239308   5.678   5.928  13.595 -1.1316  0.9310  0.2868
 5965TIP3   OH239309   0.856   6.673   0.981  0.6952 -0.3822 -0.1391
 5965TIP3    H139310   0.861   6.766   1.000  0.6024 -0.2995 -0.5112
 5965TIP3    H239311   0.791   6.666   0.910  1.3221 -0.6457 -0.6954
 5966TIP3   OH239312   1.391   1.419   1.013 -0.1748  0.1405  0.5521
 5966TIP3    H139313   1.300   1.444   0.997  0.0207  0.0243 -0.9260
 5966TIP3    H239314   1.441   1.479   0.957  0.4722 -1.6497 -0.8693
 5967TIP3   OH239315   0.324   4.156   1.250 -0.1733 -0.4195 -0.7345
 5967TIP3    H139316   0.283   4.145   1.165  1.6568 -1.1454 -1.5896
 5967TIP3    H239317   0.416   4.173   1.230  0.4457 -1.2969  1.1047
 5968TIP3   OH239318   5.734   5.888  12.122 -0.2989  0.2436 -0.3684
 5968TIP3    H139319   5.743   5.871  12.029 -0.3509  1.3723 -0.5902
 5968TIP3    H239320   5.643   5.915  12.133 -0.5848 -0.9091  0.1841
 5969TIP3   OH239321   5.827   3.759   5.416  0.1270  0.1809  0.0148
 5969TIP3    H139322   5.889   3.781   5.485 -0.5042 -0.0864  0.6910
 5969TIP3    H239323   5.797   3.843   5.383  0.8129  0.3113 -0.2914
 5970TIP3   OH239324   4.505   0.073  14.560  0.0956 -0.1022 -0.2144
 5970TIP3    H139325   4.438   0.083  14.628 -0.1044 -1.6467 -0.1527
 5970TIP3    H239326   4.495   0.151  14.505  0.4339  1.3276  1.6347
 5971TIP3   OH239327   2.035   4.989   4.276  0.7053  0.0704 -0.3867
 5971TIP3    H139328   1.964   5.043   4.310 -0.5319 -1.2856 -0.7653
 5971TIP3    H239329   2.027   4.996   4.181  2.2783  1.4139 -0.4668
 5972TIP3   OH239330   4.764   0.674   3.879 -0.5045  0.0709 -0.3855
 5972TIP3    H139331   4.799   0.762   3.890  0.0691  0.2094 -2.7229
 5972TIP3    H239332   4.818   0.619   3.935 -1.3209  1.2369  1.6672
 5973TIP3   OH239333   3.263   6.170  16.501  0.5332 -0.8624 -0.2195
 5973TIP3    H139334   3.215   6.241  16.457  1.0654 -1.4512 -1.8368
 5973TIP3    H239335   3.303   6.120  16.429  2.0737 -1.4492  0.9816
 5974TIP3   OH239336   4.218   5.941  13.000 -0.2456 -0.4953 -0.1343
 5974TIP3    H139337   4.196   5.968  12.911  0.6318  1.1020  0.0878
 5974TIP3    H239338   4.282   5.870  12.989 -0.4219 -0.5570 -0.7778
 5975TIP3   OH239339   2.324   3.333  11.274 -0.2499  0.2031 -0.0697
 5975TIP3    H139340   2.414   3.307  11.252 -0.5469 -1.3508  0.3956
 5975TIP3    H239341   2.285   3.357  11.190  0.8472  1.8044 -0.1610
 5976TIP3   OH239342   0.898   1.954  15.625 -0.4420 -0.1580  0.1929
 5976TIP3    H139343   0.932   1.998  15.548 -1.4422  3.2722  1.5353
 5976TIP3    H239344   0.969   1.963  15.690 -1.3890  1.4076  1.0779
 5977TIP3   OH239345   5.413   0.063   6.354  0.0026 -0.1481  0.1532
 5977TIP3    H139346   5.438   0.155   6.348  1.3965 -0.4661  0.6667
 5977TIP3    H239347   5.341   0.062   6.418 -0.8432  0.6949 -0.7393
 5978TIP3   OH239348   0.693   5.640  13.470 -0.3331  0.4016 -0.0176
 5978TIP3    H139349   0.641   5.624  13.549  0.1007 -0.7365  0.0580
 5978TIP3    H239350   0.731   5.726  13.483  0.4422 -0.1293  1.4275
 5979TIP3   OH239351   4.467   1.185   0.801 -0.6588  0.0212  0.1401
 5979TIP3    H139352   4.458   1.167   0.707  0.8404  0.0171 -0.0246
 5979TIP3    H239353   4.555   1.155   0.823 -0.0031  2.3138  0.9760
 5980TIP3   OH239354   3.418   1.629   4.860  0.5744  0.1881 -0.5868
 5980TIP3    H139355   3.448   1.693   4.925  1.0114 -0.5907 -0.0083
 5980TIP3    H239356   3.324   1.646   4.851 -0.0927 -1.4092  2.2724
 5981TIP3   OH239357   3.174   5.698  12.975 -0.4803  0.5857  0.4282
 5981TIP3    H139358   3.262   5.659  12.979 -0.9814 -0.5503  0.6220
 5981TIP3    H239359   3.154   5.703  12.882 -1.0642 -1.1973  0.4092
 5982TIP3   OH239360   4.843   1.877  16.923  0.2219 -0.2635  0.1438
 5982TIP3    H139361   4.782   1.881  16.850  2.8186 -2.5331 -2.3974
 5982TIP3    H239362   4.916   1.932  16.896  1.7152 -2.0077  0.4009
 5983TIP3   OH239363   4.223   0.828   1.589 -0.6384  0.5177  0.1814
 5983TIP3    H139364   4.226   0.876   1.672  1.4699  0.5437  0.1347
 5983TIP3    H239365   4.314   0.807   1.570 -1.0409  0.6851 -2.2440
 5984TIP3   OH239366   2.728   5.312   0.871  0.3537  0.1716  0.5576
 5984TIP3    H139367   2.695   5.393   0.908  0.7766  0.6890 -0.1838
 5984TIP3    H239368   2.791   5.339   0.804 -0.5663 -0.7294 -0.7280
 5985TIP3   OH239369   0.422   0.478   0.385 -0.0839  0.5342  0.2878
 5985TIP3    H139370   0.439   0.572   0.398  0.9590  0.3697  0.1659
 5985TIP3    H239371   0.500   0.446   0.340 -0.6593 -0.2948 -0.1355
 5986TIP3   OH239372   4.848   1.451   2.128  0.7268  0.2761  0.2580
 5986TIP3    H139373   4.915   1.516   2.149  0.2955  0.5497  0.8216
 5986TIP3    H239374   4.865   1.379   2.189  2.4652 -1.0724 -1.6829
 5987TIP3   OH239375   1.540   1.458   6.053  0.6997  0.2206 -0.1446
 5987TIP3    H139376   1.504   1.486   6.137  1.5327  0.3721  0.1727
 5987TIP3    H239377   1.486   1.501   5.988  0.1583  0.2501  0.3154
 5988TIP3   OH239378   3.991   3.698   1.851 -0.3045 -0.0568  0.7200
 5988TIP3    H139379   3.951   3.764   1.908  0.1959  1.3448 -0.4694
 5988TIP3    H239380   3.921   3.635   1.834 -1.4718  1.3068  0.2246
 5989TIP3   OH239381   4.176   1.217   5.396 -0.2834  0.4684 -0.0321
 5989TIP3    H139382   4.093   1.231   5.350 -0.1552  0.9281 -0.1286
 5989TIP3    H239383   4.197   1.302   5.434  0.5410  0.5599 -0.6653
 5990TIP3   OH239384   4.069   6.609   0.016 -0.3097  0.6566 -0.3293
 5990TIP3    H139385   4.137   6.620   0.082 -1.6118 -0.7284  1.3456
 5990TIP3    H239386   4.072   6.690  -0.035  2.1996  0.8631 -0.0043
 5991TIP3   OH239387   0.711   3.283   2.758 -0.5214 -0.3730  0.0354
 5991TIP3    H139388   0.661   3.216   2.804 -1.3720 -0.5436 -1.0782
 5991TIP3    H239389   0.793   3.240   2.733  0.3981  0.0173  2.1969
 5992TIP3   OH239390   1.948   2.354  12.006  0.1148  0.0518 -0.1956
 5992TIP3    H139391   1.910   2.266  12.004 -1.4259  0.7001 -1.0593
 5992TIP3    H239392   2.018   2.352  11.941 -2.1176  0.3556 -2.7580
 5993TIP3   OH239393   3.303   3.669  16.403  1.0600  0.3743  0.0436
 5993TIP3    H139394   3.331   3.754  16.370  2.0266 -0.0421 -0.2507
 5993TIP3    H239395   3.374   3.640  16.460  2.0114 -1.3800 -1.8967
 5994TIP3   OH239396   4.319   3.373   2.007 -0.5634  0.1229  0.5283
 5994TIP3    H139397   4.249   3.367   1.942 -3.7049 -0.6615  3.6431
 5994TIP3    H239398   4.351   3.284   2.015 -2.2745 -0.4242  1.9892
 5995TIP3   OH239399   6.729   0.552   2.908 -0.1001 -0.0129  0.4937
 5995TIP3    H139400   6.693   0.634   2.875 -0.4209 -0.7667 -1.1254
 5995TIP3    H239401   6.750   0.570   3.000 -2.4669  1.1257  0.8767
 5996TIP3   OH239402   1.670   1.567   0.354  0.2179 -0.5216  0.4635
 5996TIP3    H139403   1.710   1.598   0.272 -0.5382 -0.9113 -0.0659
 5996TIP3    H239404   1.591   1.521   0.326  0.7676 -2.0538  1.2996
 5997TIP3   OH239405   4.769   1.593   0.311 -0.3417 -0.1066  0.1532
 5997TIP3    H139406   4.775   1.601   0.215 -2.3240 -0.9383 -0.1091
 5997TIP3    H239407   4.709   1.664   0.337  1.6769  1.3413  1.0777
 5998TIP3   OH239408   5.243   6.413  13.887 -0.1307 -0.6586  0.0146
 5998TIP3    H139409   5.188   6.338  13.912  1.1265 -1.8487 -0.6347
 5998TIP3    H239410   5.203   6.488  13.931 -1.3457 -1.7291  0.8160
 5999TIP3   OH239411   5.208   0.872  12.834  0.3726  0.4832  0.0516
 5999TIP3    H139412   5.127   0.905  12.871 -0.1241 -0.9744  0.3281
 5999TIP3    H239413   5.186   0.784  12.803  0.5721  1.7134 -4.2448
 6000TIP3   OH239414   0.547   1.032   3.671 -0.1489  0.3383 -0.1034
 6000TIP3    H139415   0.574   1.107   3.723  0.9607  1.1790 -1.7810
 6000TIP3    H239416   0.625   0.977   3.666 -0.8472 -0.7702  0.8010
 6001TIP3   OH239417   5.837   4.411  12.758  0.1324  0.2989 -0.1111
 6001TIP3    H139418   5.879   4.481  12.708  0.6148  0.1329  0.0632
 6001TIP3    H239419   5.755   4.395  12.712  0.3787  0.4396 -0.6031
 6002TIP3   OH239420   6.035   2.537  13.643 -0.0218  0.2107 -0.2318
 6002TIP3    H139421   6.122   2.513  13.611 -0.0204 -2.8696  1.7107
 6002TIP3    H239422   5.975   2.482  13.594 -0.3755 -1.3021  1.7640
 6003TIP3   OH239423   2.051   6.205   3.187 -0.2750  0.2138 -0.0172
 6003TIP3    H139424   2.067   6.225   3.280 -1.6695  0.9204  0.0837
 6003TIP3    H239425   1.957   6.196   3.180 -0.1730  0.0266 -1.3566
 6004TIP3   OH239426   5.842   3.954  14.437 -0.2756  0.2015  0.1235
 6004TIP3    H139427   5.814   3.996  14.356 -0.9373 -0.2625  0.1078
 6004TIP3    H239428   5.885   4.024  14.487  0.8702  0.3061 -0.9679
 6005TIP3   OH239429   0.106   4.134  12.151 -0.3741 -0.6221  0.2890
 6005TIP3    H139430   0.187   4.160  12.194 -0.6364 -0.9757  1.0068
 6005TIP3    H239431   0.038   4.186  12.193 -0.6690 -1.1734  0.5023
 6006TIP3   OH239432   0.660   4.885   0.468 -0.2868  0.0058 -0.1549
 6006TIP3    H139433   0.647   4.970   0.425 -0.3701 -0.1011 -0.3395
 6006TIP3    H239434   0.692   4.828   0.399  0.4628  0.0738  0.1342
 6007TIP3   OH239435   4.692   5.994  14.552 -0.2421  0.2166 -0.3972
 6007TIP3    H139436   4.707   5.985  14.458  0.7131  2.9914 -0.6087
 6007TIP3    H239437   4.740   5.921  14.592  0.3651 -0.2914 -1.9760
 6008TIP3   OH239438   2.099   1.006  10.399  0.3241 -0.0312  0.4802
 6008TIP3    H139439   2.060   0.936  10.452 -0.7820 -0.5631 -0.9862
 6008TIP3    H239440   2.193   0.985  10.398  0.1917 -0.7123  1.1980
 6009TIP3   OH239441   0.653   6.027  17.337  0.2453 -0.1515 -0.2657
 6009TIP3    H139442   0.720   6.065  17.281 -0.2779  0.2290 -0.6480
 6009TIP3    H239443   0.625   5.947  17.291  0.6044 -0.4433  0.0164
 6010TIP3   OH239444   5.287   3.382   1.390 -0.2438 -0.3458 -0.3566
 6010TIP3    H139445   5.288   3.361   1.296  1.0437 -1.7334 -0.0643
 6010TIP3    H239446   5.217   3.447   1.399  0.4143  0.7288 -2.4590
 6011TIP3   OH239447   6.743   4.853   4.784 -0.0754 -0.3661  0.2297
 6011TIP3    H139448   6.755   4.926   4.723 -0.6810 -0.9815 -0.6446
 6011TIP3    H239449   6.653   4.825   4.771  0.8081 -2.8690 -1.3156
 6012TIP3   OH239450   1.389   5.790   5.541 -0.0759 -0.0920 -0.5346
 6012TIP3    H139451   1.334   5.868   5.547 -0.2094 -0.2844  1.7632
 6012TIP3    H239452   1.475   5.819   5.570 -0.2491 -0.8476  0.8589
 6013TIP3   OH239453   5.012   2.429   6.778 -0.3391  0.1642  0.1597
 6013TIP3    H139454   4.994   2.419   6.684  3.1004  1.4199 -0.7991
 6013TIP3    H239455   5.027   2.340   6.809 -2.3783 -0.3550 -0.1884
 6014TIP3   OH239456   3.882   6.472   0.164  0.4569  0.1812  0.2334
 6014TIP3    H139457   3.815   6.539   0.150 -0.1642 -0.3246  0.7227
 6014TIP3    H239458   3.957   6.501   0.111 -1.0120 -0.5501 -2.4569
 6015TIP3   OH239459   6.025   4.826  11.393 -0.5369 -0.2159  0.5319
 6015TIP3    H139460   6.009   4.809  11.486  1.3537  0.2832  0.9832
 6015TIP3    H239461   5.996   4.916  11.380  0.4444  0.1830  0.9900
 6016TIP3   OH239462   0.264   1.909   0.631  0.1327 -0.2272  0.3330
 6016TIP3    H139463   0.248   1.987   0.579  2.1077  1.6679  2.3225
 6016TIP3    H239464   0.313   1.850   0.573  0.3407  0.8562 -0.6227
 6017TIP3   OH239465   4.648   3.553   3.914  0.1786 -0.3711 -0.5805
 6017TIP3    H139466   4.657   3.579   3.822 -0.0556 -0.6177 -0.6743
 6017TIP3    H239467   4.677   3.462   3.916 -1.0116 -0.7583 -0.6415
 6018TIP3   OH239468   3.442   3.706   1.969  0.0338  0.4562  0.1201
 6018TIP3    H139469   3.410   3.687   1.881  0.1879 -0.1256  0.1867
 6018TIP3    H239470   3.387   3.653   2.027 -1.4916  2.4383  0.5726
 6019TIP3   OH239471   3.882   2.228   0.233  0.4547  0.5640  0.1860
 6019TIP3    H139472   3.823   2.168   0.187  0.5994  0.6597 -0.1312
 6019TIP3    H239473   3.967   2.184   0.230  0.2562  0.0541  1.3335
 6020TIP3   OH239474   3.854   5.501   3.903  0.0322  0.6049  0.0705
 6020TIP3    H139475   3.899   5.528   3.823 -1.8274  1.0315 -0.8920
 6020TIP3    H239476   3.773   5.460   3.872 -0.8561  1.0082  1.7318
 6021TIP3   OH239477   3.051   4.564  11.363 -0.0496 -0.1414  0.0330
 6021TIP3    H139478   2.982   4.534  11.421 -0.9816  0.9956 -0.4515
 6021TIP3    H239479   3.009   4.571  11.277  1.2784 -1.7203 -0.8023
 6022TIP3   OH239480   1.387   0.496   5.798 -0.0815  0.0982 -0.2054
 6022TIP3    H139481   1.429   0.501   5.884 -1.3202 -2.1955  0.6054
 6022TIP3    H239482   1.328   0.571   5.795  1.2119  1.1727  0.2002
 6023TIP3   OH239483   4.098   3.127   6.723 -0.4795 -0.3180  0.0873
 6023TIP3    H139484   4.021   3.183   6.730 -0.3652  0.1114 -1.6111
 6023TIP3    H239485   4.170   3.188   6.707  0.2770 -0.7055  1.7347
 6024TIP3   OH239486   6.199   0.612   6.599  0.6267  0.2089 -0.7186
 6024TIP3    H139487   6.240   0.698   6.605 -3.2277  2.1986 -0.0192
 6024TIP3    H239488   6.257   0.555   6.650  2.6615  2.6101 -0.1177
 6025TIP3   OH239489   5.378   5.068   3.505 -0.8687  0.2225  0.1147
 6025TIP3    H139490   5.466   5.096   3.478 -1.0954  0.3193 -0.5437
 6025TIP3    H239491   5.371   4.977   3.475 -0.6538 -0.1007  1.0042
 6026TIP3   OH239492   4.551   2.580   2.435 -0.2398 -0.7091 -0.0841
 6026TIP3    H139493   4.484   2.648   2.436  1.9577  1.6469  2.3918
 6026TIP3    H239494   4.532   2.526   2.512 -0.1798 -1.0094 -0.2762
 6027TIP3   OH239495   3.026   4.431  14.853  0.0352  0.5026  0.1561
 6027TIP3    H139496   2.937   4.444  14.886  0.4490 -0.9415  2.0403
 6027TIP3    H239497   3.055   4.349  14.894  0.7901 -1.3429 -3.6830
 6028TIP3   OH239498   2.678   3.765   4.387  0.1503 -0.1435 -0.1749
 6028TIP3    H139499   2.718   3.814   4.459  0.4911 -2.0227  1.0021
 6028TIP3    H239500   2.700   3.673   4.407 -2.9372 -1.0778 -0.6366
 6029TIP3   OH239501   3.142   3.138  13.576  0.1939  0.0217  0.5330
 6029TIP3    H139502   3.183   3.102  13.497 -0.4305  1.1825 -0.3507
 6029TIP3    H239503   3.088   3.067  13.609 -0.8191 -0.0096 -1.0378
 6030TIP3   OH239504   3.384   2.897  12.717  0.0015  0.2645  0.3263
 6030TIP3    H139505   3.421   2.984  12.736 -1.1667  0.7925  0.2473
 6030TIP3    H239506   3.444   2.836  12.760  1.4315  1.0359 -0.4998
 6031TIP3   OH239507   5.442   5.785   2.186 -0.3229 -0.0866  0.2876
 6031TIP3    H139508   5.508   5.760   2.250 -0.1914  1.8433  0.9512
 6031TIP3    H239509   5.486   5.847   2.128 -1.1010 -0.0341 -0.2648
 6032TIP3   OH239510   1.775   0.625  13.418 -0.2571  0.5292  0.4607
 6032TIP3    H139511   1.833   0.653  13.347 -1.9442 -0.1710 -1.2782
 6032TIP3    H239512   1.710   0.570  13.375 -0.9633 -0.4697  2.6966
 6033TIP3   OH239513   5.365   6.470   0.118  0.2187  0.2005 -0.2895
 6033TIP3    H139514   5.276   6.436   0.111  0.5031 -0.3672 -1.3623
 6033TIP3    H239515   5.354   6.563   0.137 -0.6160  0.3101 -1.2429
 6034TIP3   OH239516   1.758   2.500   5.544  0.4461 -0.1869  0.4524
 6034TIP3    H139517   1.694   2.570   5.536  0.3976 -0.3892 -1.2343
 6034TIP3    H239518   1.819   2.531   5.610  0.8291  1.7757 -0.7328
 6035TIP3   OH239519   3.151   3.408   3.655 -0.7356  0.3186 -0.4352
 6035TIP3    H139520   3.172   3.491   3.612  0.1495  0.7685  0.8070
 6035TIP3    H239521   3.088   3.367   3.597  0.6206  0.7482 -2.3305
 6036TIP3   OH239522   1.809   5.726  12.678 -0.4858  0.4765 -0.1534
 6036TIP3    H139523   1.883   5.769  12.637 -0.0168  0.1624  0.3469
 6036TIP3    H239524   1.735   5.784  12.661 -0.3877  0.1569 -1.7602
 6037TIP3   OH239525   0.590   5.707   0.329  0.5710 -0.3438 -0.1906
 6037TIP3    H139526   0.654   5.638   0.349 -1.1704 -2.0453 -0.1949
 6037TIP3    H239527   0.546   5.724   0.412  0.2756  0.0004 -0.4149
 6038TIP3   OH239528   0.613   1.879  15.617 -0.3736  0.9448 -0.0381
 6038TIP3    H139529   0.606   1.786  15.636 -2.5100  1.5383  2.8022
 6038TIP3    H239530   0.698   1.904  15.654 -0.8968  0.5064  1.5754
 6039TIP3   OH239531   6.551   3.198  12.865 -0.0104  0.3148 -0.1981
 6039TIP3    H139532   6.579   3.242  12.784  0.6206 -0.7460 -0.5748
 6039TIP3    H239533   6.527   3.270  12.924  1.4972  1.2028 -0.6050
 6040TIP3   OH239534   0.336   0.810  11.077 -0.0511 -0.1608  0.4313
 6040TIP3    H139535   0.340   0.875  11.147 -0.0533 -0.4758  0.7258
 6040TIP3    H239536   0.323   0.727  11.122  0.2801 -0.4073  0.0764
 6041TIP3   OH239537   5.903   1.598   1.989  0.7458 -0.3199  0.2710
 6041TIP3    H139538   5.868   1.526   1.936 -1.6879 -1.4167  3.0810
 6041TIP3    H239539   5.863   1.676   1.952 -0.9653 -1.0639  0.4386
 6042TIP3   OH239540   3.335   5.317   5.586 -0.1379  0.0913  0.2425
 6042TIP3    H139541   3.354   5.368   5.664  0.6068  0.7262 -0.3370
 6042TIP3    H239542   3.239   5.319   5.579 -0.1626  0.7233  0.6807
 6043TIP3   OH239543   1.473   1.735   2.462  0.2912  0.2234  0.7281
 6043TIP3    H139544   1.538   1.666   2.478  1.1544  0.4317 -1.5480
 6043TIP3    H239545   1.391   1.687   2.447  0.6750 -0.2555  0.1144
 6044TIP3   OH239546   3.531   3.314   4.593  0.5650  0.0852 -0.6981
 6044TIP3    H139547   3.607   3.274   4.634 -0.7237 -1.3898  0.3735
 6044TIP3    H239548   3.528   3.276   4.505  1.3207  0.5264 -0.9204
 6045TIP3   OH239549   3.581   4.407   3.062  0.0161 -0.5777 -0.0506
 6045TIP3    H139550   3.626   4.344   3.117 -0.1958  0.6637  1.6057
 6045TIP3    H239551   3.647   4.473   3.042  0.3116 -1.3875 -1.9925
 6046TIP3   OH239552   2.837   1.073   4.849 -0.2081 -1.2688 -0.6128
 6046TIP3    H139553   2.917   1.047   4.803 -0.5645 -2.2312 -0.7164
 6046TIP3    H239554   2.828   1.167   4.832  0.0330 -1.4742 -1.9364
 6047TIP3   OH239555   6.141   1.610   0.176 -0.0543 -0.4780 -0.0845
 6047TIP3    H139556   6.231   1.581   0.164  0.0234 -0.7136  0.9521
 6047TIP3    H239557   6.136   1.694   0.131  1.3524  0.6653  1.7584
 6048TIP3   OH239558   4.426   4.307  13.396 -0.4189  0.3436 -0.3015
 6048TIP3    H139559   4.492   4.370  13.366  0.1107 -0.4080 -0.7382
 6048TIP3    H239560   4.462   4.270  13.476 -0.9222  0.8917  0.1846
 6049TIP3   OH239561   0.805   3.977  14.343 -0.3920 -0.3615  0.1533
 6049TIP3    H139562   0.804   4.038  14.417  0.4521 -0.6929  0.4543
 6049TIP3    H239563   0.886   3.928  14.354  0.1370  0.1039 -1.4301
 6050TIP3   OH239564   4.785   4.501   3.769  0.7920 -0.2874 -0.2236
 6050TIP3    H139565   4.853   4.471   3.829  1.5892 -1.9636 -1.8600
 6050TIP3    H239566   4.713   4.439   3.781  0.8446 -0.4627 -0.7992
 6051TIP3   OH239567   2.732   2.100  12.991 -0.3968  0.1091 -0.3451
 6051TIP3    H139568   2.709   2.066  12.905 -1.6384 -0.9880  0.3696
 6051TIP3    H239569   2.678   2.049  13.052 -0.4495  1.6660  0.9898
 6052TIP3   OH239570   2.327   2.466   0.511  0.2107  0.1138 -0.3042
 6052TIP3    H139571   2.261   2.404   0.482  1.1079 -2.3750  2.3624
 6052TIP3    H239572   2.286   2.512   0.584  1.1838 -1.2130  1.1500
 6053TIP3   OH239573   1.401   1.956   5.697 -1.4155  0.1150  0.2256
 6053TIP3    H139574   1.374   1.942   5.788  0.1947 -3.5154  0.3122
 6053TIP3    H239575   1.496   1.966   5.702 -1.5645  2.6093 -0.9048
 6054TIP3   OH239576   2.286   5.586   3.254 -0.1293 -0.4718  0.1354
 6054TIP3    H139577   2.334   5.557   3.176  0.1471 -0.3771  0.2720
 6054TIP3    H239578   2.274   5.507   3.306 -0.5995 -0.5975 -0.1546
 6055TIP3   OH239579   4.194   1.248   6.194  0.2671 -0.1004  0.4203
 6055TIP3    H139580   4.200   1.319   6.131  0.1396  0.0887  0.6175
 6055TIP3    H239581   4.186   1.292   6.279  1.7727 -0.3401  0.7122
 6056TIP3   OH239582   2.755   0.006  13.951 -0.0544 -0.6308  0.0933
 6056TIP3    H139583   2.839  -0.035  13.969 -0.1051 -0.4394  0.7660
 6056TIP3    H239584   2.770   0.100  13.963 -0.8325 -0.7363  2.1595
 6057TIP3   OH239585   4.808   2.531  12.678 -0.1397 -0.4090  0.4007
 6057TIP3    H139586   4.811   2.602  12.615 -0.8487  1.2305  2.1432
 6057TIP3    H239587   4.878   2.471  12.649 -1.6041 -0.7413 -2.9573
 6058TIP3   OH239588   6.536   0.887  15.265 -0.5140 -0.1441  0.4820
 6058TIP3    H139589   6.495   0.866  15.181 -1.1952  1.7061  0.3151
 6058TIP3    H239590   6.605   0.949  15.244 -1.8686  1.7830  1.4101
 6059TIP3   OH239591   1.156   1.177   1.774  0.0211  0.5438  0.0272
 6059TIP3    H139592   1.104   1.256   1.788  0.4615  1.0118 -0.8667
 6059TIP3    H239593   1.092   1.105   1.776 -0.2015  0.7547  2.2085
 6060TIP3   OH239594   3.251   0.964   0.618  0.3946 -0.3298 -0.3771
 6060TIP3    H139595   3.257   0.963   0.523 -1.8229  0.7961 -0.5895
 6060TIP3    H239596   3.197   0.888   0.639  0.5176 -0.3225 -0.0293
 6061TIP3   OH239597   0.554   2.319   3.962  0.8389  0.2336  0.2123
 6061TIP3    H139598   0.532   2.338   3.871 -2.0880 -1.2689  0.4799
 6061TIP3    H239599   0.472   2.336   4.010  1.9828 -0.0918  2.4005
 6062TIP3   OH239600   4.692   6.310   4.597 -0.1817 -0.2369  0.2015
 6062TIP3    H139601   4.636   6.271   4.529  0.1807 -0.4743  0.0346
 6062TIP3    H239602   4.745   6.236   4.629 -3.0051 -1.0815  3.5027
 6063TIP3   OH239603   1.977   2.812  14.572  0.0258  0.4885 -0.2694
 6063TIP3    H139604   1.988   2.742  14.507 -0.6091  0.0743  0.0539
 6063TIP3    H239605   2.052   2.869  14.559 -0.9680  1.3696 -2.5311
 6064TIP3   OH239606   0.942   1.543   5.476  0.2982  0.2576  0.1907
 6064TIP3    H139607   1.027   1.582   5.456  0.8588 -1.0321 -0.0481
 6064TIP3    H239608   0.901   1.528   5.390 -0.2861  1.1034  0.3137
 6065TIP3   OH239609   4.579   6.142   6.434  0.2260  0.0096 -0.1184
 6065TIP3    H139610   4.584   6.219   6.490  0.0939  0.5216 -0.8002
 6065TIP3    H239611   4.496   6.151   6.387 -0.4956 -1.2840  0.8473
 6066TIP3   OH239612   3.452   2.086   5.750  0.3042 -0.2947  0.8614
 6066TIP3    H139613   3.415   2.039   5.675  0.8212  2.1188 -1.0046
 6066TIP3    H239614   3.390   2.069   5.821 -2.4901  0.5971 -1.1776
 6067TIP3   OH239615   2.955   6.459  15.160 -0.5534  0.3171 -0.5737
 6067TIP3    H139616   2.861   6.441  15.158 -0.3990 -0.4373 -1.6629
 6067TIP3    H239617   2.966   6.538  15.107 -0.7229  1.2846  0.7674
 6068TIP3   OH239618   3.580   5.705   3.746  0.1572  0.4616  0.0731
 6068TIP3    H139619   3.623   5.636   3.796 -0.7499 -0.3042 -0.1707
 6068TIP3    H239620   3.521   5.747   3.810  0.1411  0.5059  0.0293
 6069TIP3   OH239621   5.299   1.688  12.831  0.1556  0.4928  0.3275
 6069TIP3    H139622   5.258   1.615  12.785 -0.5993  1.9858 -1.4773
 6069TIP3    H239623   5.252   1.765  12.802  0.5031  1.6926  2.6836
 6070TIP3   OH239624   3.127   4.546   0.660 -0.1598 -0.4116 -0.3937
 6070TIP3    H139625   3.147   4.594   0.741 -0.5644 -0.1956 -0.4169
 6070TIP3    H239626   3.128   4.454   0.686  2.5355 -0.5428 -0.7543
 6071TIP3   OH239627   4.768   3.907  10.876 -0.0168  0.4654  0.3501
 6071TIP3    H139628   4.834   3.972  10.900 -0.6526  1.0132  0.6270
 6071TIP3    H239629   4.687   3.956  10.868 -0.8905 -0.5240  2.3203
 6072TIP3   OH239630   4.698   3.155  16.823  0.3012  0.5980  0.2979
 6072TIP3    H139631   4.635   3.191  16.761  0.7632  0.9736  0.0420
 6072TIP3    H239632   4.773   3.214  16.820  1.0882 -0.3784 -0.1460
 6073TIP3   OH239633   5.966   6.447   3.795  0.1704 -0.0462 -0.3904
 6073TIP3    H139634   5.990   6.460   3.887 -0.3957 -0.1474 -0.2227
 6073TIP3    H239635   5.982   6.532   3.754  0.2445  0.0537 -0.1541
 6074TIP3   OH239636   1.632   1.797  17.152 -0.8232 -0.1839 -0.1147
 6074TIP3    H139637   1.645   1.876  17.204 -1.1518  0.3429 -0.8113
 6074TIP3    H239638   1.661   1.725  17.208  0.6765  0.5355  0.0638
 6075TIP3   OH239639   4.170   0.851  11.493 -0.3461  0.5823  0.2028
 6075TIP3    H139640   4.116   0.921  11.530 -2.2894 -0.2411 -0.9602
 6075TIP3    H239641   4.242   0.897  11.449 -0.7027  1.7504  0.7943
 6076TIP3   OH239642   4.656   5.917   4.315  0.2240  0.0631  0.1998
 6076TIP3    H139643   4.659   5.880   4.226 -2.0903  1.0617 -0.3616
 6076TIP3    H239644   4.693   6.005   4.306 -1.1239  0.6322 -0.0947
 6077TIP3   OH239645   2.421   5.419  16.649 -0.0161 -0.0322  0.1677
 6077TIP3    H139646   2.418   5.502  16.697  0.0666  0.3232 -0.4302
 6077TIP3    H239647   2.419   5.352  16.717  1.6652  0.4705  0.7604
 6078TIP3   OH239648   1.268   2.864  15.084  0.6964  0.1175 -0.1932
 6078TIP3    H139649   1.319   2.848  15.005  0.5684 -0.9843 -0.0677
 6078TIP3    H239650   1.201   2.927  15.057  3.2157  3.1965  0.1110
 6079TIP3   OH239651   6.083   0.920   2.773  0.2217 -0.2203 -0.0147
 6079TIP3    H139652   6.160   0.966   2.809  0.1163 -0.1987  0.1854
 6079TIP3    H239653   6.079   0.949   2.682 -0.2612  0.7312  0.3013
 6080TIP3   OH239654   1.850   1.316   2.248  0.1592 -0.4175  0.7492
 6080TIP3    H139655   1.837   1.257   2.174  1.1133  0.9592 -0.5574
 6080TIP3    H239656   1.771   1.370   2.249  0.5252  0.1424  0.1655
 6081TIP3   OH239657   6.496   2.519  14.116  0.5544 -0.5836 -0.0821
 6081TIP3    H139658   6.446   2.515  14.034  0.5420  0.1521 -0.1146
 6081TIP3    H239659   6.576   2.566  14.092 -0.0043  0.7653  0.5965
 6082TIP3   OH239660   5.897   4.751  10.829  0.2430  0.0075  0.3722
 6082TIP3    H139661   5.877   4.820  10.892 -0.4121  0.7459 -0.6127
 6082TIP3    H239662   5.914   4.797  10.747  1.1290 -0.9310  0.0146
 6083TIP3   OH239663   0.144   2.752  10.417  0.0968 -0.2030  0.8694
 6083TIP3    H139664   0.170   2.825  10.362 -2.1585 -0.5347 -0.7648
 6083TIP3    H239665   0.099   2.792  10.492 -0.9577  0.1184  0.0779
 6084TIP3   OH239666   5.531   1.213   2.440  0.2164 -0.1719  0.2648
 6084TIP3    H139667   5.559   1.303   2.452 -1.8236  0.4057  1.1808
 6084TIP3    H239668   5.471   1.216   2.365  3.4987 -1.6530 -2.7420
 6085TIP3   OH239669   4.911   0.510   4.057 -0.3379  0.0980  0.0762
 6085TIP3    H139670   5.005   0.515   4.075 -0.4095  1.2706  0.2021
 6085TIP3    H239671   4.903   0.441   3.991  0.7186  0.5960 -0.6116
 6086TIP3   OH239672   2.240   3.885   1.654 -0.0087 -0.7322 -0.6673
 6086TIP3    H139673   2.276   3.895   1.566 -0.7437 -0.7496 -0.9828
 6086TIP3    H239674   2.279   3.805   1.688 -1.7034 -2.2106 -2.0119
 6087TIP3   OH239675   3.519   3.748   5.234  0.2815  0.1340  0.1417
 6087TIP3    H139676   3.588   3.812   5.216  0.7564 -0.4365 -0.0961
 6087TIP3    H239677   3.481   3.776   5.318  1.7050 -0.3065  0.9610
 6088TIP3   OH239678   1.890   5.146   2.442  0.0539  0.2214  0.0892
 6088TIP3    H139679   1.968   5.092   2.423  0.5126  0.6997  0.5671
 6088TIP3    H239680   1.816   5.089   2.422  0.5275 -0.9179  1.4292
 6089TIP3   OH239681   2.283   1.910   4.256 -0.2928  0.2373  0.4389
 6089TIP3    H139682   2.202   1.949   4.288  0.2031  0.8176  1.0165
 6089TIP3    H239683   2.352   1.949   4.311  0.1859 -1.8218  1.3921
 6090TIP3   OH239684   1.976   6.432  12.831  0.3587  0.7824  0.1845
 6090TIP3    H139685   1.939   6.372  12.896 -2.0082  0.0613 -1.6983
 6090TIP3    H239686   2.051   6.386  12.795 -0.2511 -0.2107  0.1648
 6091TIP3   OH239687   6.561   4.732  11.127  0.2563  0.1735 -0.3796
 6091TIP3    H139688   6.592   4.799  11.189  1.7777 -0.7603 -0.0761
 6091TIP3    H239689   6.526   4.782  11.053 -0.1015  1.3022  0.5286
 6092TIP3   OH239690   1.100   1.303   6.005 -0.5262 -0.1391 -0.2578
 6092TIP3    H139691   1.195   1.313   5.991  0.0810 -2.8088  1.2787
 6092TIP3    H239692   1.078   1.373   6.066  0.2889  0.9176 -1.1312
 6093TIP3   OH239693   1.517   5.297   4.174 -0.0396 -0.5322  0.2601
 6093TIP3    H139694   1.589   5.272   4.116 -0.0858 -1.0304  0.4155
 6093TIP3    H239695   1.483   5.214   4.207  0.9964 -0.2104  2.2692
 6094TIP3   OH239696   1.421   6.342  15.588 -0.2843 -0.0724  0.3778
 6094TIP3    H139697   1.447   6.291  15.511 -0.6458  1.3161 -0.6904
 6094TIP3    H239698   1.489   6.323  15.653  0.6230 -0.4299 -0.6457
 6095TIP3   OH239699   4.252   6.688   0.188 -0.2237  0.0609 -0.1982
 6095TIP3    H139700   4.212   6.763   0.231 -1.0252  1.2583 -2.7872
 6095TIP3    H239701   4.345   6.713   0.179 -0.1127 -0.0761  0.5735
 6096TIP3   OH239702   1.217   4.169  15.417 -0.4087  0.2054 -0.8753
 6096TIP3    H139703   1.235   4.244  15.474 -0.6066  0.1315 -0.7141
 6096TIP3    H239704   1.121   4.164  15.413 -0.4190 -0.6917 -0.0091
 6097TIP3   OH239705   2.009   2.042   1.817 -0.4440 -0.7216  0.2779
 6097TIP3    H139706   1.939   1.999   1.866 -2.1029 -0.3260 -1.5921
 6097TIP3    H239707   2.044   1.974   1.760 -1.8461 -0.1224 -1.3870
 6098TIP3   OH239708   2.278   6.547   4.413 -0.0502 -0.2607  0.5603
 6098TIP3    H139709   2.253   6.638   4.396  0.5606 -0.0216  0.8998
 6098TIP3    H239710   2.207   6.495   4.375 -0.0661  0.3340 -0.2545
 6099TIP3   OH239711   6.012   1.383   0.281 -0.2667 -0.1329 -0.1359
 6099TIP3    H139712   6.063   1.455   0.243 -0.2957 -0.1720 -0.2484
 6099TIP3    H239713   6.050   1.304   0.244 -0.5762 -0.1501 -0.4216
 6100TIP3   OH239714   0.157   4.197  14.154  0.1691 -0.0153  0.0518
 6100TIP3    H139715   0.123   4.202  14.244 -0.6562 -0.6148 -0.2117
 6100TIP3    H239716   0.250   4.214  14.163 -0.2285  2.1415  0.7654
 6101TIP3   OH239717   5.698   0.528  11.576  0.5580 -0.8009  0.4571
 6101TIP3    H139718   5.626   0.545  11.515  1.1825  0.1031 -0.0407
 6101TIP3    H239719   5.680   0.440  11.610 -0.0411 -1.1459 -0.6968
 6102TIP3   OH239720   6.075   4.521   0.732 -0.0427  0.0255 -0.0991
 6102TIP3    H139721   6.040   4.521   0.821 -1.8624  0.6023 -0.7670
 6102TIP3    H239722   6.005   4.486   0.678  1.0546 -0.3958 -1.3149
 6103TIP3   OH239723   4.201   5.109   2.136  0.0364  0.1563  0.9698
 6103TIP3    H139724   4.123   5.119   2.191 -1.7299  1.5937 -1.6225
 6103TIP3    H239725   4.255   5.186   2.158 -0.8520  0.9523  0.4430
 6104TIP3   OH239726   1.528   6.381   5.672  0.3630  0.1989  0.4430
 6104TIP3    H139727   1.448   6.403   5.623  0.2692  0.3317  0.6532
 6104TIP3    H239728   1.584   6.458   5.661  0.6994 -0.1346 -0.1941
 6105TIP3   OH239729   3.299   4.280   5.423 -0.2178 -0.1175 -0.2248
 6105TIP3    H139730   3.228   4.235   5.468 -0.4364 -0.0986 -0.5425
 6105TIP3    H239731   3.349   4.210   5.381  2.1910 -0.5287  3.0244
 6106TIP3   OH239732   2.131   2.077   2.397 -0.0694  0.5791  0.2940
 6106TIP3    H139733   2.107   2.137   2.468 -0.0595  0.0966  0.7109
 6106TIP3    H239734   2.203   2.121   2.352 -0.6180  1.2665  0.0680
 6107TIP3   OH239735   2.291   2.749   5.508 -0.0663  0.6502 -0.0760
 6107TIP3    H139736   2.229   2.688   5.470 -2.7391  3.1523 -0.0859
 6107TIP3    H239737   2.342   2.781   5.434  0.1509 -0.2341 -0.3174
 6108TIP3   OH239738   4.807   0.879   3.468 -0.8166  0.0634  0.3268
 6108TIP3    H139739   4.747   0.913   3.401 -2.0833  1.8030  2.2394
 6108TIP3    H239740   4.767   0.798   3.497 -1.3547  0.3693  0.4367
 6109TIP3   OH239741   4.491   5.484   4.318 -0.1928 -0.3415 -0.1073
 6109TIP3    H139742   4.583   5.489   4.293 -0.2497  1.5141 -0.1030
 6109TIP3    H239743   4.491   5.438   4.401  0.7095 -0.5738 -0.2302
 6110TIP3   OH239744   1.018   6.587   4.671  0.2808  0.2167  0.0566
 6110TIP3    H139745   1.064   6.560   4.591 -0.4406  0.6633 -0.5144
 6110TIP3    H239746   1.007   6.681   4.662  2.4100  0.7371  1.8572
 6111TIP3   OH239747   3.668   2.865  16.737 -0.0159 -0.4015 -0.0833
 6111TIP3    H139748   3.683   2.919  16.660 -0.5388  0.0691  0.1371
 6111TIP3    H239749   3.732   2.794  16.730 -1.4495 -1.5987 -2.0715
 6112TIP3   OH239750   5.526   5.128  11.563 -0.1712 -0.0204 -0.2886
 6112TIP3    H139751   5.435   5.103  11.548 -0.4249 -0.9184  2.2524
 6112TIP3    H239752   5.520   5.213  11.607  0.3440  0.7597 -1.6557
 6113TIP3   OH239753   5.064   6.764   0.666  0.1873  0.3175  0.1561
 6113TIP3    H139754   5.084   6.709   0.591  0.6669 -0.0146  0.5229
 6113TIP3    H239755   4.999   6.715   0.716 -0.9619  1.0189 -0.5910
 6114TIP3   OH239756   0.648   4.813  16.630  0.4784  0.1958 -0.3530
 6114TIP3    H139757   0.615   4.857  16.709  0.6261  0.1338 -0.2553
 6114TIP3    H239758   0.698   4.881  16.584  0.7045  0.1322 -0.2028
 6115TIP3   OH239759   4.647   6.514  12.161 -0.2005 -0.5214  0.5392
 6115TIP3    H139760   4.702   6.552  12.230  0.0802 -1.0589  0.6175
 6115TIP3    H239761   4.695   6.532  12.080 -2.0265  2.9611  0.0381
 6116TIP3   OH239762   0.618   5.282  16.940  0.0612 -0.0082  1.0127
 6116TIP3    H139763   0.678   5.221  16.896 -0.7424 -0.6843  0.8414
 6116TIP3    H239764   0.531   5.247  16.922 -0.4350  1.3031  0.7469
 6117TIP3   OH239765   2.004   3.810  16.733  0.0792  0.1604  0.1275
 6117TIP3    H139766   2.031   3.728  16.775  0.7608  0.9975  1.4080
 6117TIP3    H239767   2.086   3.855  16.713 -0.2071 -0.3887 -2.6110
 6118TIP3   OH239768   5.751   0.647   6.797 -0.2690 -0.2658 -0.3109
 6118TIP3    H139769   5.754   0.571   6.739  0.9932 -1.5523  1.3456
 6118TIP3    H239770   5.659   0.654   6.822 -0.4278 -1.2001 -0.5825
 6119TIP3   OH239771   5.351   6.723  15.090 -0.0521 -0.4658 -0.2053
 6119TIP3    H139772   5.287   6.787  15.060  0.7604 -0.9478 -3.2378
 6119TIP3    H239773   5.361   6.742  15.184 -2.7082  1.2281 -0.1565
 6120TIP3   OH239774   2.897   5.219   2.100 -0.2793  0.5513  0.5893
 6120TIP3    H139775   2.832   5.241   2.166  0.0885  0.9070  0.8369
 6120TIP3    H239776   2.903   5.297   2.045 -0.2116  0.4463  0.4466
 6121TIP3   OH239777   0.064   5.020   2.580  0.1726  0.0519  0.1316
 6121TIP3    H139778   0.003   5.088   2.610 -1.9511 -1.5097 -0.3835
 6121TIP3    H239779   0.074   4.962   2.656 -1.2518 -1.1813 -0.5545
 6122TIP3   OH239780   4.222   0.565   5.731  0.0147  0.1718  0.2700
 6122TIP3    H139781   4.205   0.652   5.693 -1.9015 -0.7031 -1.0165
 6122TIP3    H239782   4.316   0.552   5.719 -0.2334  0.4993 -3.1542
 6123TIP3   OH239783   3.704   2.940  17.000  0.1243 -0.0150  0.5210
 6123TIP3    H139784   3.697   2.923  16.906  2.8399 -0.2101  0.2739
 6123TIP3    H239785   3.646   3.014  17.015  0.2649  0.5708 -1.4907
 6124TIP3   OH239786   1.473   0.876  13.028  0.1003 -0.1124  0.6962
 6124TIP3    H139787   1.505   0.872  13.118  2.1488  0.1800  0.0451
 6124TIP3    H239788   1.511   0.798  12.986 -0.0095  0.2714 -0.1325
 6125TIP3   OH239789   3.309   5.891  14.267 -0.5238  0.2717  0.3034
 6125TIP3    H139790   3.236   5.848  14.223  0.1933 -1.5970  0.8629
 6125TIP3    H239791   3.269   5.933  14.343 -0.9369 -1.3539  1.0121
 6126TIP3   OH239792   0.814   0.975   3.439  0.6440  0.0159  0.7171
 6126TIP3    H139793   0.874   0.979   3.365  0.1711 -2.0744  0.1462
 6126TIP3    H239794   0.768   1.059   3.437  0.3898 -0.1039 -1.6144
 6127TIP3   OH239795   5.358   2.452   4.915  0.1907  0.1606  0.6584
 6127TIP3    H139796   5.329   2.543   4.902 -1.4839  0.0769  3.0497
 6127TIP3    H239797   5.439   2.459   4.964 -0.8039  0.4434  2.3547
 6128TIP3   OH239798   5.074   0.850   0.205  0.1951  0.3717  0.2707
 6128TIP3    H139799   5.142   0.906   0.167  1.0490  1.1013  2.6528
 6128TIP3    H239800   5.123   0.777   0.243 -0.5730 -0.1569  0.2618
 6129TIP3   OH239801   5.408   4.220   4.003  0.0677  0.2490 -0.0574
 6129TIP3    H139802   5.317   4.191   4.009  0.0631  0.4712  1.7281
 6129TIP3    H239803   5.402   4.316   4.003  0.2701  0.2617 -0.7130
 6130TIP3   OH239804   4.058   6.018   5.387 -0.2502 -0.5580 -0.3792
 6130TIP3    H139805   4.143   6.053   5.415 -0.6764  0.2543 -0.0681
 6130TIP3    H239806   4.061   6.023   5.292  0.7027 -2.1197 -0.4579
 6131TIP3   OH239807   0.296   0.434   4.740  0.4099  0.0454 -0.0344
 6131TIP3    H139808   0.315   0.343   4.761 -1.3309 -0.6739 -1.2401
 6131TIP3    H239809   0.217   0.454   4.791  1.3605  1.2499  1.0220
 6132TIP3   OH239810   0.319   2.658  12.364 -0.3681 -0.1855  0.3102
 6132TIP3    H139811   0.234   2.624  12.391 -0.5741  0.2515  0.2074
 6132TIP3    H239812   0.305   2.751  12.350 -0.2699 -0.3798 -1.2818
 6133TIP3   OH239813   6.486   6.224   6.295  0.3531  0.0949  0.5440
 6133TIP3    H139814   6.475   6.307   6.248  1.6110  0.5048  0.9441
 6133TIP3    H239815   6.403   6.212   6.342 -0.5936  0.1155 -1.0493
 6134TIP3   OH239816   3.610   6.167  13.624 -0.0862 -0.0566 -0.2483
 6134TIP3    H139817   3.633   6.256  13.650  1.1698 -0.2652 -0.5760
 6134TIP3    H239818   3.558   6.178  13.545 -1.1632  0.4395  0.5137
 6135TIP3   OH239819   5.963   6.366  14.174  0.0159  0.0289  0.4167
 6135TIP3    H139820   5.899   6.301  14.203 -0.7281  0.4793 -0.1485
 6135TIP3    H239821   5.930   6.395  14.089  1.0909  0.1380  0.0184
 6136TIP3   OH239822   1.960   2.032  13.925  0.0351  0.3732 -0.0969
 6136TIP3    H139823   2.022   2.020  13.853 -1.6920 -0.8923 -1.4771
 6136TIP3    H239824   1.950   2.126  13.933  1.5829  0.5798 -0.3017
 6137TIP3   OH239825   0.024   6.428  13.315  0.2052  0.2029  0.0037
 6137TIP3    H139826   0.111   6.462  13.338 -0.1551  1.0416  0.1768
 6137TIP3    H239827   0.012   6.454  13.224 -0.2500  0.9507  0.2644
 6138TIP3   OH239828   3.879   4.090   5.358  0.7397 -0.1965  0.4581
 6138TIP3    H139829   3.910   4.000   5.368  1.3341 -0.0521 -0.0011
 6138TIP3    H239830   3.952   4.144   5.392  1.8073  0.2130 -2.2647
 6139TIP3   OH239831   2.055   6.680  10.883 -0.2273 -0.1846 -0.0663
 6139TIP3    H139832   2.071   6.674  10.789 -1.0180  1.2269 -0.3100
 6139TIP3    H239833   2.087   6.766  10.908 -2.3264  0.5121  0.4496
 6140TIP3   OH239834   1.771   3.351   6.497 -0.2382  0.3935 -0.0383
 6140TIP3    H139835   1.760   3.424   6.559  1.0935  0.4519  0.1653
 6140TIP3    H239836   1.829   3.386   6.430  0.0928 -0.3581 -0.1513
 6141TIP3   OH239837   3.155   3.110  14.014 -0.1914 -0.4234  0.7652
 6141TIP3    H139838   3.104   3.179  13.972  0.8836  0.1625  0.3838
 6141TIP3    H239839   3.163   3.138  14.105 -0.0271 -0.2064  0.6843
 6142TIP3   OH239840   1.239   0.359  13.140 -0.4744 -0.6053 -0.3600
 6142TIP3    H139841   1.301   0.318  13.080 -1.3602 -1.6083 -0.6289
 6142TIP3    H239842   1.176   0.403  13.084  1.1941  2.4290 -0.0771
 6143TIP3   OH239843   4.605   5.341  16.029  0.1725  0.1282 -0.2266
 6143TIP3    H139844   4.685   5.288  16.032 -0.0439 -0.1468  1.0700
 6143TIP3    H239845   4.541   5.292  16.080 -0.2960  1.1982  0.2539
 6144TIP3   OH239846   1.459   6.585  16.259 -0.1775 -0.0719 -0.0633
 6144TIP3    H139847   1.432   6.667  16.302 -2.6121 -2.1648  2.8190
 6144TIP3    H239848   1.541   6.562  16.303 -1.5601 -1.1093  2.1321
 6145TIP3   OH239849   4.420   4.664  17.227 -0.0107  0.0567  0.2366
 6145TIP3    H139850   4.336   4.620  17.241  0.1242  0.0679  1.1561
 6145TIP3    H239851   4.483   4.592  17.219 -0.2015  0.0208 -1.2868
 6146TIP3   OH239852   1.678   3.729   6.322  0.3410  0.2433 -0.6140
 6146TIP3    H139853   1.757   3.687   6.289  1.6736  2.8063 -0.9623
 6146TIP3    H239854   1.647   3.671   6.392  2.8049 -0.6315 -0.1624
 6147TIP3   OH239855   2.013   6.671   1.322  0.3085  0.0752  1.1310
 6147TIP3    H139856   2.032   6.666   1.228  1.3871 -1.4432  1.3768
 6147TIP3    H239857   2.063   6.746   1.353 -1.7221  1.9114  0.1820
 6148TIP3   OH239858   3.435   0.911   4.497  0.6103  0.4742 -0.1343
 6148TIP3    H139859   3.405   0.999   4.519 -0.2675  0.0402  0.4227
 6148TIP3    H239860   3.524   0.924   4.464  0.1727  1.6683 -0.9026
 6149TIP3   OH239861   2.781   2.888   3.676  0.1162 -0.0781  0.0273
 6149TIP3    H139862   2.720   2.899   3.603 -0.4485  0.7049  0.6079
 6149TIP3    H239863   2.788   2.793   3.686 -0.1457 -0.1909 -0.7486
 6150TIP3   OH239864   2.472   1.290   2.520  0.2042 -0.2045  0.0714
 6150TIP3    H139865   2.534   1.220   2.497  1.4515  0.6344  0.7839
 6150TIP3    H239866   2.527   1.361   2.554 -1.2673 -0.0866  2.4194
 6151TIP3   OH239867   4.772   2.104  15.921  0.7327 -0.5081  0.1038
 6151TIP3    H139868   4.735   2.057  15.996 -0.6746 -0.2666 -0.4016
 6151TIP3    H239869   4.773   2.039  15.851  0.9682 -0.4243  0.0309
 6152TIP3   OH239870   6.060   2.156  15.011  0.5080 -0.1396  0.1189
 6152TIP3    H139871   5.991   2.142  14.946  0.4569  0.8288 -0.0566
 6152TIP3    H239872   6.048   2.086  15.075 -0.8014  0.1559  0.2258
 6153TIP3   OH239873   0.908   0.615  11.267 -0.2137  0.4395  0.0391
 6153TIP3    H139874   0.889   0.544  11.330  0.8621  0.3382  0.2682
 6153TIP3    H239875   0.899   0.695  11.318  0.8465  0.3490  0.3943
 6154TIP3   OH239876   4.562   2.431  14.789 -0.6790 -0.2077 -0.4142
 6154TIP3    H139877   4.531   2.462  14.704 -1.5481  1.1109  0.3524
 6154TIP3    H239878   4.521   2.344  14.799 -1.2124 -0.0286 -0.9983
 6155TIP3   OH239879   0.939   5.871  11.513 -1.0982  0.4786 -0.1505
 6155TIP3    H139880   0.908   5.872  11.423 -0.2546  1.3271 -0.4411
 6155TIP3    H239881   0.967   5.961  11.530  0.1499 -0.0016  0.4594
 6156TIP3   OH239882   1.825   2.250   5.404 -0.1843 -0.2473 -0.1949
 6156TIP3    H139883   1.775   2.169   5.407  0.0009 -0.3892 -0.8796
 6156TIP3    H239884   1.770   2.314   5.450 -0.9765 -0.4065 -0.8936
 6157TIP3   OH239885   3.977   6.113   6.249 -0.7865 -0.5422  0.5158
 6157TIP3    H139886   3.966   6.208   6.244 -2.0109 -0.7186 -0.5655
 6157TIP3    H239887   4.015   6.098   6.336  1.7651  1.1048 -0.2310
 6158TIP3   OH239888   0.687   5.367  11.249 -0.3758 -0.3010 -0.0873
 6158TIP3    H139889   0.730   5.450  11.230 -0.6460  0.0775  0.8933
 6158TIP3    H239890   0.640   5.345  11.169 -0.9431  0.8922 -0.0944
 6159TIP3   OH239891   6.200   2.216   5.210 -0.1808 -0.0155 -0.8729
 6159TIP3    H139892   6.209   2.194   5.117  1.4692  0.7677 -0.9498
 6159TIP3    H239893   6.274   2.172   5.252 -0.8410 -0.2507  0.0505
 6160TIP3   OH239894   2.393   2.258   0.837 -0.3802 -0.1289 -0.3702
 6160TIP3    H139895   2.480   2.296   0.850 -0.4700  0.5841 -1.6244
 6160TIP3    H239896   2.357   2.247   0.925  1.6400 -2.0611  0.2981
 6161TIP3   OH239897   0.353   6.258  13.332 -0.1353 -0.2418 -0.3553
 6161TIP3    H139898   0.309   6.341  13.350  0.4885 -0.0585  0.3948
 6161TIP3    H239899   0.403   6.240  13.412 -0.8741 -1.7389 -0.1960
 6162TIP3   OH239900   0.965   0.902   2.427 -0.5153  0.5087 -0.1844
 6162TIP3    H139901   0.924   0.985   2.453 -2.7827  0.0444 -1.9585
 6162TIP3    H239902   1.013   0.924   2.348 -0.6806  0.2520 -0.3573
 6163TIP3   OH239903   4.340   3.684   4.826 -0.5473  0.4666 -0.4222
 6163TIP3    H139904   4.387   3.764   4.803  0.1753 -0.0276 -0.7294
 6163TIP3    H239905   4.249   3.701   4.802 -0.2066  0.7972 -1.5641
 6164TIP3   OH239906   1.849   5.947   0.947  0.0005  0.0586 -0.1143
 6164TIP3    H139907   1.879   6.017   0.890  0.9563  0.3689  0.7470
 6164TIP3    H239908   1.803   5.886   0.889 -0.9895  1.4681 -0.8498
 6165TIP3   OH239909   4.107   5.563   5.793  0.2079  0.0100 -0.3220
 6165TIP3    H139910   4.115   5.473   5.824  1.0595 -0.2056 -1.1258
 6165TIP3    H239911   4.148   5.563   5.706 -1.9630  0.6426 -1.4059
 6166TIP3   OH239912   4.471   2.402   2.688 -0.5460  0.4635 -0.2285
 6166TIP3    H139913   4.387   2.440   2.662 -1.3055  0.3295  1.8661
 6166TIP3    H239914   4.475   2.318   2.642 -0.6718  1.2668 -1.7742
 6167TIP3   OH239915   1.878   1.458  10.925 -0.7734 -0.4889  0.2024
 6167TIP3    H139916   1.900   1.388  10.865  0.8304  0.9046 -0.9290
 6167TIP3    H239917   1.831   1.522  10.871 -1.5101 -0.3144  1.0266
 6168TIP3   OH239918   4.476   2.291  17.271  0.1026 -0.0423  0.2461
 6168TIP3    H139919   4.541   2.291  17.341  0.2436 -2.9099  0.2339
 6168TIP3    H239920   4.406   2.234  17.303  0.1257 -1.3623 -1.8599
 6169TIP3   OH239921   6.446   4.365  16.497 -0.0737 -0.5964  0.8509
 6169TIP3    H139922   6.532   4.357  16.538 -0.1578  1.2787  1.4711
 6169TIP3    H239923   6.450   4.447  16.448 -0.9958 -1.2852 -0.4421
 6170TIP3   OH239924   6.687   4.207  13.722 -0.4402 -0.5006 -0.2245
 6170TIP3    H139925   6.677   4.150  13.798 -0.2361 -1.1196 -0.6586
 6170TIP3    H239926   6.776   4.240  13.727 -0.6802  0.0973  0.2391
 6171TIP3   OH239927   2.991   1.163   5.802 -0.5478 -0.0334 -0.6120
 6171TIP3    H139928   3.024   1.162   5.892 -0.7028  3.2974 -0.3659
 6171TIP3    H239929   3.067   1.145   5.748  0.1095  0.4131  0.1460
 6172TIP3   OH239930   1.686   5.091  15.185  0.0827  0.1831 -0.3734
 6172TIP3    H139931   1.672   5.022  15.250 -0.7059  1.4794  0.8756
 6172TIP3    H239932   1.781   5.094  15.173  0.0652 -2.2280 -1.7464
 6173TIP3   OH239933   5.097   6.723  11.408 -0.0363 -0.2069  0.5314
 6173TIP3    H139934   5.116   6.664  11.335  0.9077  1.3992 -0.6068
 6173TIP3    H239935   5.004   6.711  11.426 -0.4235 -0.2832 -1.3250
 6174TIP3   OH239936   3.064   3.536  16.868 -0.0837 -0.4508 -0.5032
 6174TIP3    H139937   3.094   3.490  16.946  0.3726  1.3595  0.4638
 6174TIP3    H239938   3.120   3.504  16.798  0.7110 -0.8202  0.2792
 6175TIP3   OH239939   3.437   2.661   4.230 -0.4499 -0.2341  0.4417
 6175TIP3    H139940   3.509   2.699   4.281  0.9202 -2.6944  0.4939
 6175TIP3    H239941   3.476   2.639   4.145 -1.4757 -0.4328  0.0065
 6176TIP3   OH239942   2.706   3.485   2.121 -0.6319 -0.2377  0.0740
 6176TIP3    H139943   2.724   3.455   2.210 -1.3926  1.4550  0.8381
 6176TIP3    H239944   2.699   3.580   2.129 -3.2523 -0.2261 -1.3149
 6177TIP3   OH239945   2.108   1.061  14.564 -0.1065 -0.1009  0.1495
 6177TIP3    H139946   2.119   0.971  14.596  0.3223 -0.2458 -0.3982
 6177TIP3    H239947   2.097   1.052  14.469 -0.1164  0.4194  0.0977
 6178TIP3   OH239948   2.604   2.811   6.085 -0.1561 -0.0323  0.0061
 6178TIP3    H139949   2.545   2.806   6.010  0.6377  2.1078 -0.8299
 6178TIP3    H239950   2.547   2.801   6.161 -1.0525 -1.6865 -0.8186
 6179TIP3   OH239951   1.986   4.692   3.501 -0.2020 -0.3744 -0.0315
 6179TIP3    H139952   2.037   4.674   3.422  0.0254 -0.2291  0.0817
 6179TIP3    H239953   1.929   4.766   3.477 -1.1368 -1.2202 -0.4966
 6180TIP3   OH239954   5.697   4.596   4.414 -0.7488 -0.0110  0.2668
 6180TIP3    H139955   5.680   4.668   4.476 -1.4388 -1.0114  1.2795
 6180TIP3    H239956   5.785   4.565   4.437 -0.5737  0.2978  0.0280
 6181TIP3   OH239957   0.256   4.476   5.427  0.1772 -0.0255  0.4192
 6181TIP3    H139958   0.311   4.481   5.505  2.1555 -0.8368 -0.8184
 6181TIP3    H239959   0.277   4.555   5.378  2.7929 -1.7351 -1.5210
 6182TIP3   OH239960   5.760   4.213   2.286  0.8050 -0.0990 -0.3109
 6182TIP3    H139961   5.668   4.188   2.296  0.8622  0.2709  1.4941
 6182TIP3    H239962   5.793   4.155   2.218 -0.1843 -1.8851  0.6440
 6183TIP3   OH239963   0.400   3.422   4.296  0.3284 -0.0072  0.1413
 6183TIP3    H139964   0.331   3.367   4.332 -0.5604  1.5240  0.8677
 6183TIP3    H239965   0.411   3.492   4.360  1.4831  0.6375 -0.7122
 6184TIP3   OH239966   6.400   6.059   5.850  0.3833  0.0431  0.3104
 6184TIP3    H139967   6.343   6.052   5.927  0.9850 -0.4718  0.7192
 6184TIP3    H239968   6.463   6.127   5.873  0.2457  0.2571  0.0594
 6185TIP3   OH239969   5.946   5.318   4.720  0.6854  0.0154  0.9174
 6185TIP3    H139970   5.902   5.233   4.729 -1.0077  0.7780  0.2008
 6185TIP3    H239971   6.025   5.299   4.668 -0.0276 -1.0111  0.1672
 6186TIP3   OH239972   1.623   1.569   6.878 -0.2203  0.0808  0.2806
 6186TIP3    H139973   1.563   1.501   6.847 -0.5369  0.5393 -0.1197
 6186TIP3    H239974   1.567   1.646   6.892  0.3972  0.7883 -0.9799
 6187TIP3   OH239975   5.224   5.191   0.989  0.0775 -0.2917  0.5495
 6187TIP3    H139976   5.313   5.161   0.974  0.1632 -0.5511  1.5614
 6187TIP3    H239977   5.182   5.121   1.039 -0.6206 -0.0528  0.3209
 6188TIP3   OH239978   1.206   5.596  16.224 -0.1764  0.3250  0.3482
 6188TIP3    H139979   1.185   5.668  16.165  0.9968  0.4806  0.0954
 6188TIP3    H239980   1.137   5.532  16.210 -0.3244  0.6893 -0.6414
 6189TIP3   OH239981   0.459   1.847  15.280  0.4247 -0.6679  0.4065
 6189TIP3    H139982   0.496   1.933  15.300  0.4753 -0.4065 -0.7256
 6189TIP3    H239983   0.535   1.794  15.254  0.1518 -0.3695 -1.1144
 6190TIP3   OH239984   5.370   3.875   5.038 -0.0124  0.1107 -0.0324
 6190TIP3    H139985   5.363   3.783   5.016 -0.5020 -0.2918  1.6223
 6190TIP3    H239986   5.383   3.876   5.133 -1.0385  1.7602  0.1478
 6191TIP3   OH239987   3.693   2.494   1.453 -0.6400 -0.4631  0.2414
 6191TIP3    H139988   3.764   2.476   1.516 -0.0771 -0.0367 -0.2549
 6191TIP3    H239989   3.664   2.407   1.425  0.1709 -0.6483 -0.0681
 6192TIP3   OH239990   5.263   1.251   4.092  0.9443  0.7748 -0.2087
 6192TIP3    H139991   5.320   1.182   4.059  2.1278  1.2921  0.6874
 6192TIP3    H239992   5.297   1.332   4.052 -0.2099  0.9185 -0.9730
 6193TIP3   OH239993   6.585   2.538  13.721  0.3052 -0.2742 -0.1817
 6193TIP3    H139994   6.507   2.518  13.670 -1.1121 -0.7498  2.0184
 6193TIP3    H239995   6.562   2.616  13.772  1.0630 -0.6808  0.8320
 6194TIP3   OH239996   3.140   2.685  17.214  0.0680 -0.5008 -0.6331
 6194TIP3    H139997   3.067   2.683  17.152  0.5699 -0.1389 -1.2557
 6194TIP3    H239998   3.146   2.596  17.248 -0.7094 -0.5145 -0.5094
 6195TIP3   OH239999   0.935   3.553   4.174 -0.1438 -0.1806  0.4222
 6195TIP3    H140000   0.840   3.548   4.184 -0.3781  2.7028  0.5820
 6195TIP3    H240001   0.958   3.479   4.118 -2.5808 -0.5267 -0.2190
 6196TIP3   OH240002   0.932   4.655  12.114  0.2782 -0.0271 -0.3654
 6196TIP3    H140003   0.893   4.715  12.051  0.3567 -0.0144 -0.4011
 6196TIP3    H240004   1.017   4.632  12.077 -0.1981 -1.0116 -0.8829
 6197TIP3   OH240005   1.292   2.083   2.402 -0.0662  0.0610  0.1904
 6197TIP3    H140006   1.387   2.088   2.411 -0.0572 -1.2842  1.2893
 6197TIP3    H240007   1.259   2.132   2.478 -0.2486  0.2405 -0.0039
 6198TIP3   OH240008   5.361   0.984   0.288 -0.4881 -0.2621 -0.1158
 6198TIP3    H140009   5.429   0.965   0.224 -0.2120  0.5705 -0.0820
 6198TIP3    H240010   5.380   0.927   0.362  0.3574  0.1685  0.0102
 6199TIP3   OH240011   6.210   6.014   3.592 -0.1061  0.2758 -0.0073
 6199TIP3    H140012   6.116   6.012   3.573 -0.1156  1.1807 -0.1051
 6199TIP3    H240013   6.227   6.104   3.621  0.9946  0.5747 -1.4520
 6200TIP3   OH240014   2.038   3.383  11.287 -0.7314 -0.0016 -0.2146
 6200TIP3    H140015   2.019   3.388  11.381 -0.2438 -0.1301 -0.1064
 6200TIP3    H240016   2.126   3.345  11.283 -0.8363 -0.1920 -0.7297
 6201TIP3   OH240017   3.518   3.537   0.483 -0.2573  0.2441  0.0180
 6201TIP3    H140018   3.471   3.540   0.400  0.6540 -1.5793 -0.6158
 6201TIP3    H240019   3.557   3.450   0.486 -0.4872  0.1368  2.5023
 6202TIP3   OH240020   1.327   3.666   0.373 -0.3763  0.7516  0.0877
 6202TIP3    H140021   1.341   3.700   0.462  1.9128 -1.2480  0.5989
 6202TIP3    H240022   1.348   3.739   0.316  0.3010  1.4322  1.1699
 6203TIP3   OH240023   1.776   0.451  15.664  0.4427  0.2290  0.0881
 6203TIP3    H140024   1.700   0.392  15.657  2.3472 -2.5550  1.0941
 6203TIP3    H240025   1.807   0.439  15.754  1.5708  2.0053 -0.0237
 6204TIP3   OH240026   0.673   1.066  15.618  0.0670 -0.6115  0.3100
 6204TIP3    H140027   0.760   1.025  15.620 -0.5856 -2.0119  1.0071
 6204TIP3    H240028   0.629   1.033  15.695 -0.4305  1.6801  1.0804
 6205TIP3   OH240029   3.916   5.954  14.416  0.5889  0.0441  0.1557
 6205TIP3    H140030   3.914   6.007  14.496  0.4914  1.3073 -0.6763
 6205TIP3    H240031   3.976   5.882  14.437  1.2888  0.8673  1.0521
 6206TIP3   OH240032   5.076   4.665   3.708  0.0662  0.2860  0.7235
 6206TIP3    H140033   5.030   4.582   3.698 -0.1332  0.4397  0.3356
 6206TIP3    H240034   5.009   4.725   3.743  0.1879  0.3033  0.9280
 6207TIP3   OH240035   1.377   5.916  14.453 -0.0662  0.0025  0.2674
 6207TIP3    H140036   1.351   5.824  14.448  0.2084 -0.1577  1.5161
 6207TIP3    H240037   1.460   5.915  14.500 -0.2024  0.9166  0.5453
 6208TIP3   OH240038   6.165   6.643   4.825  0.3854  0.1081 -0.2557
 6208TIP3    H140039   6.146   6.597   4.744  1.2931 -0.2196 -0.2894
 6208TIP3    H240040   6.079   6.658   4.865 -0.0328 -0.0936 -1.0683
 6209TIP3   OH240041   5.746   3.751  16.955 -0.3171 -0.3182 -0.6448
 6209TIP3    H140042   5.767   3.712  16.870  1.3786  0.0310 -0.4306
 6209TIP3    H240043   5.668   3.804  16.939  0.2007  0.0464 -2.0777
 6210TIP3   OH240044   6.224   6.112  12.989 -0.0648  0.2765  0.3643
 6210TIP3    H140045   6.148   6.147  13.035 -0.8100 -1.0130  0.1479
 6210TIP3    H240046   6.294   6.175  13.007 -1.1068  1.3563  0.7692
 6211TIP3   OH240047   2.436   3.785   5.833 -0.2149 -0.0984  0.3066
 6211TIP3    H140048   2.420   3.863   5.780  1.3768  0.1965  0.1875
 6211TIP3    H240049   2.431   3.817   5.924  0.0353  0.0773  0.2626
 6212TIP3   OH240050   5.140   0.790  13.723  0.0063 -0.3727  0.2074
 6212TIP3    H140051   5.064   0.828  13.679  0.1613 -0.9469 -0.5693
 6212TIP3    H240052   5.114   0.701  13.744  0.7362 -0.8532 -0.8128
 6213TIP3   OH240053   4.685   3.877   0.887 -0.2922  0.3368 -0.2579
 6213TIP3    H140054   4.695   3.957   0.836 -0.6343 -0.2525 -1.2671
 6213TIP3    H240055   4.592   3.856   0.881  0.0132 -0.8633 -1.1293
 6214TIP3   OH240056   5.210   3.534   0.577  0.2764 -0.1106  0.1489
 6214TIP3    H140057   5.287   3.583   0.548  1.4503 -2.2965 -0.7166
 6214TIP3    H240058   5.145   3.550   0.509  1.2347 -1.0339 -1.0417
 6215TIP3   OH240059   0.906   2.800  15.030 -0.0358  0.3739  0.2238
 6215TIP3    H140060   0.952   2.875  15.068  1.1559  0.6230 -1.5728
 6215TIP3    H240061   0.936   2.797  14.939 -1.2930 -1.3246 -0.1919
 6216TIP3   OH240062   1.473   6.137   1.281 -1.2472  0.5274 -0.0234
 6216TIP3    H140063   1.538   6.166   1.346 -2.1251  1.9429  0.2744
 6216TIP3    H240064   1.396   6.190   1.300 -2.0861 -0.2524 -1.1625
 6217TIP3   OH240065   6.460   5.914   0.493 -0.2655 -0.5017 -0.2318
 6217TIP3    H140066   6.432   5.925   0.583  0.5834 -0.9975  0.1025
 6217TIP3    H240067   6.460   5.819   0.479 -2.4726 -0.3883 -1.4361
 6218TIP3   OH240068   4.589   3.814   1.916 -0.7395  0.0617  0.3245
 6218TIP3    H140069   4.591   3.725   1.951 -1.0793  0.3431  1.0811
 6218TIP3    H240070   4.512   3.854   1.957 -0.1730  0.9262  0.5700
 6219TIP3   OH240071   1.815   1.448  15.471  0.0789 -0.2071  0.2560
 6219TIP3    H140072   1.909   1.444  15.491 -0.2700 -3.4604  1.9775
 6219TIP3    H240073   1.808   1.419  15.380  0.8876  4.3139 -1.5237
 6220TIP3   OH240074   6.667   1.038   3.838  0.7024 -0.1338 -0.1993
 6220TIP3    H140075   6.608   0.986   3.785  0.9515 -0.2154 -0.4004
 6220TIP3    H240076   6.703   1.103   3.777 -0.8212  1.3304  0.3934
 6221TIP3   OH240077   6.375   3.723  13.044 -0.1014  0.2469  0.1571
 6221TIP3    H140078   6.336   3.802  13.007  0.3630  0.7079  0.6338
 6221TIP3    H240079   6.381   3.662  12.970  2.4648  1.7593 -1.0453
 6222TIP3   OH240080   4.778   2.646  10.803 -0.1046 -0.0831  0.3382
 6222TIP3    H140081   4.841   2.679  10.740  1.9464 -2.7266  0.8213
 6222TIP3    H240082   4.741   2.568  10.762 -0.9817 -0.1646  1.2162
 6223TIP3   OH240083   1.903   0.333  14.711  0.1417  0.1493 -0.1306
 6223TIP3    H140084   1.930   0.241  14.707  0.4726  0.2606 -0.5515
 6223TIP3    H240085   1.834   0.341  14.644 -0.3540  0.0616  0.3588
 6224TIP3   OH240086   0.526   1.916  17.207  0.0131 -0.4506 -0.5297
 6224TIP3    H140087   0.603   1.866  17.183 -1.0838 -2.4085 -0.1273
 6224TIP3    H240088   0.453   1.874  17.160 -1.0665  0.2692  0.4354
 6225TIP3   OH240089   5.311   2.657   0.260 -0.0154 -0.1564  0.7814
 6225TIP3    H140090   5.380   2.707   0.304 -0.2668  1.0236 -0.1230
 6225TIP3    H240091   5.297   2.581   0.317 -0.9968  1.7542  3.3465
 6226TIP3   OH240092   6.366   0.365  14.875  0.3004  0.0814  0.3648
 6226TIP3    H140093   6.385   0.418  14.797 -0.9843  0.7499  0.4786
 6226TIP3    H240094   6.298   0.304  14.846 -0.4102  0.5411  1.0243
 6227TIP3   OH240095   1.968   3.769  15.604  0.1267 -0.0875 -0.1773
 6227TIP3    H140096   1.918   3.829  15.549  0.8854  1.1960  0.4722
 6227TIP3    H240097   2.040   3.739  15.549 -0.4644 -0.7175 -0.6227
 6228TIP3   OH240098   1.002   1.722   3.733 -0.0687 -0.5866 -0.0215
 6228TIP3    H140099   1.041   1.675   3.659 -1.3005 -0.2685 -0.9037
 6228TIP3    H240100   1.036   1.811   3.724 -0.1165 -0.5793 -0.1401
 6229TIP3   OH240101   0.071   4.163   3.278  0.1224 -0.2379  0.1613
 6229TIP3    H140102   0.095   4.116   3.359  1.2128  0.3937  0.2203
 6229TIP3    H240103   0.152   4.169   3.229 -0.0977  1.1410 -0.0782
 6230TIP3   OH240104   3.335   0.775  17.212  0.4189 -0.0270  0.6529
 6230TIP3    H140105   3.281   0.729  17.276 -0.9001 -2.1904 -1.8211
 6230TIP3    H240106   3.298   0.750  17.127  2.9469  1.5327 -1.0469
 6231TIP3   OH240107   5.609   2.183  15.939 -0.0914  0.0361 -0.4096
 6231TIP3    H140108   5.608   2.168  15.845  1.9435  0.8844 -0.6069
 6231TIP3    H240109   5.611   2.278  15.949 -0.4528 -0.0345  0.5011
 6232TIP3   OH240110   2.537   5.594  13.913 -0.0880 -0.5395 -0.6130
 6232TIP3    H140111   2.477   5.602  13.839 -0.0463 -1.1869 -0.7230
 6232TIP3    H240112   2.523   5.505  13.946  0.8749 -0.7449 -0.7138
 6233TIP3   OH240113   0.031   6.323   1.293 -0.3889 -0.8913 -0.4235
 6233TIP3    H140114   0.049   6.291   1.204 -1.1897 -0.2522 -0.8248
 6233TIP3    H240115  -0.052   6.369   1.286  0.1513  0.2752  0.3855
 6234TIP3   OH240116   3.562   5.826   2.538  0.0667  0.4923  0.4815
 6234TIP3    H140117   3.616   5.821   2.459  1.2449  2.9959  1.0441
 6234TIP3    H240118   3.490   5.764   2.522  2.3832 -2.1036 -0.8142
 6235TIP3   OH240119   5.449   1.112  14.734  0.5650 -0.0144  0.2033
 6235TIP3    H140120   5.517   1.177  14.754  0.5317  0.3115 -0.7379
 6235TIP3    H240121   5.394   1.110  14.813 -0.3928  2.2893 -0.3309
 6236TIP3   OH240122   2.585   0.968   3.391  0.0181  0.9493  0.5553
 6236TIP3    H140123   2.522   0.897   3.385 -0.0255  0.7178  2.8601
 6236TIP3    H240124   2.583   1.010   3.305 -0.7506 -1.1412 -0.5038
 6237TIP3   OH240125   6.330   1.001  12.227 -0.0730 -0.3414 -0.5769
 6237TIP3    H140126   6.411   1.020  12.275 -0.6213  0.6295 -0.0214
 6237TIP3    H240127   6.303   0.915  12.259  0.2780 -0.2881 -0.1353
 6238TIP3   OH240128   5.664   4.703   2.321  0.4207 -0.4981  0.4234
 6238TIP3    H140129   5.636   4.793   2.341 -0.3962 -0.1403 -1.9980
 6238TIP3    H240130   5.582   4.655   2.310  0.7749 -0.7456 -1.3882
 6239TIP3   OH240131   1.526   5.292   0.228  0.1712 -0.2562 -0.3236
 6239TIP3    H140132   1.549   5.278   0.136  1.4382  0.5344 -0.1570
 6239TIP3    H240133   1.600   5.341   0.263 -0.7569  0.3229  0.8795
 6240TIP3   OH240134   5.726   1.562  14.566  0.3121 -0.5094 -0.0032
 6240TIP3    H140135   5.642   1.517  14.556 -0.2569  0.6304 -0.4898
 6240TIP3    H240136   5.704   1.647  14.605  1.1219  0.1862 -1.0125
 6241TIP3   OH240137   6.358   4.886  15.427 -0.3681 -0.3315 -0.7677
 6241TIP3    H140138   6.359   4.828  15.503 -1.2206 -1.8549 -1.8557
 6241TIP3    H240139   6.286   4.947  15.444  0.0947 -0.0033  0.0786
 6242TIP3   OH240140   5.676   6.305  14.987 -0.2808 -0.3116 -0.6455
 6242TIP3    H140141   5.654   6.398  14.979  0.7603 -0.0312 -0.4288
 6242TIP3    H240142   5.730   6.300  15.066 -1.6422 -1.3604  0.2498
 6243TIP3   OH240143   2.250   4.499  15.174 -0.8733 -0.3883  0.1986
 6243TIP3    H140144   2.232   4.465  15.262 -0.3516 -1.6789 -0.1801
 6243TIP3    H240145   2.181   4.462  15.119  0.1439 -1.5093 -0.3614
 6244TIP3   OH240146   1.392   5.717  15.328  0.1182 -0.5104  0.1993
 6244TIP3    H140147   1.395   5.804  15.368 -0.4592 -1.2409  1.9031
 6244TIP3    H240148   1.391   5.735  15.234 -0.2297  1.3383  0.5022
 6245TIP3   OH240149   5.079   0.753   6.157  0.4428 -0.1282  0.8540
 6245TIP3    H140150   5.131   0.685   6.200  1.6582 -0.1149 -0.5305
 6245TIP3    H240151   5.052   0.811   6.229  0.8977 -1.0808  1.8171
 6246TIP3   OH240152   2.890   3.307  10.637  0.6608  0.4977  0.0519
 6246TIP3    H140153   2.805   3.293  10.679  0.9384  0.9042  0.7535
 6246TIP3    H240154   2.911   3.399  10.655  0.9887  0.5640 -0.6145
 6247TIP3   OH240155   0.167   1.365   4.520  0.1193 -0.5717  0.2599
 6247TIP3    H140156   0.078   1.340   4.496 -1.3556  1.8672  2.5476
 6247TIP3    H240157   0.190   1.306   4.592 -0.7211  0.3277  1.3114
 6248TIP3   OH240158   4.010   0.763   6.077 -0.3148 -0.3772  0.3517
 6248TIP3    H140159   4.015   0.856   6.100 -0.9922 -0.5582  1.2869
 6248TIP3    H240160   3.988   0.762   5.984  0.7506  0.3843  0.0618
 6249TIP3   OH240161   3.172   0.332   2.014 -0.5655  0.1345  0.1747
 6249TIP3    H140162   3.089   0.326   1.965  1.0621  0.9374 -2.9195
 6249TIP3    H240163   3.230   0.271   1.968  1.3484  1.6540  0.4930
 6250TIP3   OH240164   3.107   4.826  14.464 -0.1561 -0.0582 -0.4250
 6250TIP3    H140165   3.164   4.831  14.541  2.0508  1.0547 -2.0213
 6250TIP3    H240166   3.086   4.733  14.456 -0.6354 -0.1708  1.6054
 6251TIP3   OH240167   1.318   3.964  13.153 -0.0530 -0.3576  0.1947
 6251TIP3    H140168   1.346   3.872  13.151  0.9491 -0.0497 -0.2411
 6251TIP3    H240169   1.222   3.959  13.144  0.1063 -1.3095 -1.5172
 6252TIP3   OH240170   1.660   4.608  11.265 -0.5489  0.0322  0.0812
 6252TIP3    H140171   1.619   4.635  11.183  0.2795 -0.5408 -0.5438
 6252TIP3    H240172   1.591   4.619  11.330 -0.8021  1.8347 -0.4300
 6253TIP3   OH240173   2.905   6.715   5.244 -0.7758 -0.0198 -0.1853
 6253TIP3    H140174   2.892   6.795   5.192  1.7108  0.0992 -0.7587
 6253TIP3    H240175   2.993   6.723   5.278 -0.4079 -2.5748 -0.3522
 6254TIP3   OH240176   3.938   0.061  13.591 -0.0771  0.4688 -0.4960
 6254TIP3    H140177   4.018   0.096  13.551  2.2928 -1.4158  2.1640
 6254TIP3    H240178   3.943   0.088  13.682 -0.4302 -2.7758  0.6235
 6255TIP3   OH240179   1.732   5.657   5.290  0.1912 -0.1839  0.0762
 6255TIP3    H140180   1.783   5.718   5.236  1.4555 -2.4832 -1.4691
 6255TIP3    H240181   1.660   5.629   5.233  0.0411 -0.7068  0.5165
 6256TIP3   OH240182   4.950   3.241  11.609  0.7296  0.2683  0.4471
 6256TIP3    H140183   4.905   3.157  11.621 -0.1013  0.9037  1.9843
 6256TIP3    H240184   4.906   3.280  11.533 -0.9113  0.5659  1.4859
 6257TIP3   OH240185   0.163   2.939   0.163  0.1277  0.1135  0.1263
 6257TIP3    H140186   0.171   2.892   0.246 -0.5461  1.4814  1.0006
 6257TIP3    H240187   0.069   2.947   0.149  0.0278  4.0025  1.7563
 6258TIP3   OH240188   5.396   4.276  13.108 -0.1764  0.2693  0.0028
 6258TIP3    H140189   5.370   4.337  13.038 -2.0738 -1.0870 -0.5580
 6258TIP3    H240190   5.480   4.310  13.139 -0.4815  2.3549 -1.2246
 6259TIP3   OH240191   3.451   5.435  11.345  0.2551  0.7223 -0.5224
 6259TIP3    H140192   3.468   5.351  11.304 -1.1243 -1.0007  2.1122
 6259TIP3    H240193   3.531   5.486  11.331  0.3349 -0.1223 -4.0238
 6260TIP3   OH240194   1.721   0.913   1.797  0.3687 -0.2876  0.3341
 6260TIP3    H140195   1.814   0.893   1.792  0.5048  0.6349 -1.4161
 6260TIP3    H240196   1.717   1.007   1.815 -0.2521 -0.4898  1.3713
 6261TIP3   OH240197   5.352   0.877   1.648 -0.4350 -0.2806 -0.0663
 6261TIP3    H140198   5.340   0.869   1.554  2.5651 -0.4259 -0.5383
 6261TIP3    H240199   5.385   0.791   1.675 -0.9872 -0.1478  1.0714
 6262TIP3   OH240200   1.316   1.181   4.197  0.1564  0.1768 -0.9518
 6262TIP3    H140201   1.280   1.120   4.133 -1.2116  1.1883 -1.2015
 6262TIP3    H240202   1.321   1.265   4.151  0.6253  0.5796 -0.1960
 6263TIP3   OH240203   1.718   3.427  11.406  1.0223 -0.1897  0.5426
 6263TIP3    H140204   1.720   3.521  11.387  1.7077  0.0121  1.5399
 6263TIP3    H240205   1.646   3.394  11.352 -0.9201  1.3403  2.0536
 6264TIP3   OH240206   1.974   4.267   1.137 -0.1288 -0.0700 -0.6892
 6264TIP3    H140207   2.036   4.294   1.068  1.4395  1.2941  1.1481
 6264TIP3    H240208   1.924   4.347   1.156 -2.0519 -0.9692 -1.6177
 6265TIP3   OH240209   1.004   3.686  14.850 -0.0524  0.4260  0.2218
 6265TIP3    H140210   1.023   3.780  14.851 -1.9213  0.8887 -1.3710
 6265TIP3    H240211   1.065   3.649  14.786 -0.2415  0.8035 -0.1790
 6266TIP3   OH240212   6.664   2.133   0.504 -0.0938 -0.0962  1.0098
 6266TIP3    H140213   6.683   2.089   0.586 -1.7105 -0.5397  1.1863
 6266TIP3    H240214   6.715   2.214   0.507  0.4744 -0.4775  2.0842
 6267TIP3   OH240215   3.666   6.414  14.329  0.1842 -0.0694 -0.6261
 6267TIP3    H140216   3.639   6.403  14.420  0.0065 -0.4642 -0.7252
 6267TIP3    H240217   3.742   6.357  14.319 -0.7443 -1.2617 -1.1427
 6268TIP3   OH240218   5.819   1.678  13.293  0.0438  0.3974  0.0369
 6268TIP3    H140219   5.913   1.673  13.308  0.2751  0.4402 -1.2643
 6268TIP3    H240220   5.793   1.761  13.334  0.7364  0.8186 -0.3439
 6269TIP3   OH240221   5.800   3.101  14.887  0.0800  0.0450 -0.2688
 6269TIP3    H140222   5.808   3.075  14.795  0.2883 -0.8261 -0.0140
 6269TIP3    H240223   5.828   3.024  14.936  0.7874  0.7827  0.5219
 6270TIP3   OH240224   1.858   6.058   6.521 -0.1193 -0.0942 -0.1207
 6270TIP3    H140225   1.918   6.124   6.556 -0.2804  0.6403 -1.1546
 6270TIP3    H240226   1.844   5.997   6.593  0.4545  0.7123  0.7007
 6271TIP3   OH240227   4.224   0.690   1.278 -0.0516  0.6018 -0.4097
 6271TIP3    H140228   4.193   0.724   1.362 -0.2894  2.0558 -1.0440
 6271TIP3    H240229   4.254   0.768   1.231  2.6371 -0.4642 -0.6483
 6272TIP3   OH240230   3.634   6.426  14.046 -0.3640  0.1030 -0.0074
 6272TIP3    H140231   3.622   6.387  14.133  1.2808  0.8351  0.5860
 6272TIP3    H240232   3.724   6.404  14.022 -0.2425  1.3508 -0.7662
 6273TIP3   OH240233   2.379   3.733  15.701  0.2915 -0.0107  0.1181
 6273TIP3    H140234   2.378   3.730  15.797  0.9917 -0.3959  0.1245
 6273TIP3    H240235   2.338   3.651  15.674 -0.2638  0.2793  0.0857
 6274TIP3   OH240236   0.507   0.195   1.349  0.3225  0.5129 -0.1716
 6274TIP3    H140237   0.542   0.177   1.261  1.2197  1.3564 -0.0077
 6274TIP3    H240238   0.514   0.111   1.395  0.5639  0.2527 -0.6749
 6275TIP3   OH240239   6.046   3.328  11.270  0.7547  0.3386  0.1557
 6275TIP3    H140240   6.022   3.404  11.217 -0.9978 -0.3322 -0.0874
 6275TIP3    H240241   6.027   3.253  11.213 -0.3302 -0.3672  1.4013
 6276TIP3   OH240242   2.178   4.165   6.635  0.1147 -0.2647  0.1360
 6276TIP3    H140243   2.253   4.165   6.575 -1.0751 -2.0335 -1.4847
 6276TIP3    H240244   2.193   4.240   6.692  2.7740 -0.1757 -0.5275
 6277TIP3   OH240245   1.249   0.305  14.741 -0.4866  0.4423 -0.5586
 6277TIP3    H140246   1.258   0.274  14.831 -0.8920  0.9442 -0.3423
 6277TIP3    H240247   1.169   0.263  14.709  0.7049 -1.3396 -1.3664
 6278TIP3   OH240248   5.044   3.643   4.664 -0.0778 -0.1570  0.3465
 6278TIP3    H140249   4.984   3.598   4.604 -1.4880  0.6661  1.0699
 6278TIP3    H240250   4.987   3.682   4.730  1.4882 -2.3735  3.2404
 6279TIP3   OH240251   2.161   5.763   4.089 -0.1407  0.1848 -0.1117
 6279TIP3    H140252   2.208   5.742   4.170 -0.9424  1.4070  0.7079
 6279TIP3    H240253   2.071   5.735   4.107 -0.1551 -0.2828 -0.8958
 6280TIP3   OH240254   0.913   2.513   2.928  0.3182 -0.2482 -0.0144
 6280TIP3    H140255   0.876   2.511   3.016 -1.3664 -1.3872 -0.7095
 6280TIP3    H240256   0.838   2.531   2.870  0.5563 -3.5933 -1.5774
 6281TIP3   OH240257   1.806   3.295   5.266  0.7419  0.3609  0.2656
 6281TIP3    H140258   1.812   3.210   5.223  0.7061  1.5585 -2.2517
 6281TIP3    H240259   1.716   3.298   5.300  0.0041  0.2250 -1.5712
 6282TIP3   OH240260   4.722   5.013   3.148 -0.0213 -0.1088  0.0404
 6282TIP3    H140261   4.683   4.960   3.218 -1.3227  1.9394  0.9896
 6282TIP3    H240262   4.789   5.065   3.192 -1.5721  1.9755  0.0695
 6283TIP3   OH240263   0.696   5.177  11.904  0.4342  0.3140 -0.7183
 6283TIP3    H140264   0.673   5.146  11.992 -0.8053 -1.4152 -1.5987
 6283TIP3    H240265   0.614   5.212  11.870  0.3027 -1.1414 -2.0008
 6284TIP3   OH240266   0.606   4.793   2.562  0.1892  0.8353  0.1267
 6284TIP3    H140267   0.668   4.834   2.622  0.3843  1.2118 -0.3235
 6284TIP3    H240268   0.528   4.848   2.569  0.3291  1.0781 -0.2156
 6285TIP3   OH240269   1.329   3.857   0.570  0.5494  0.1774 -0.4640
 6285TIP3    H140270   1.275   3.932   0.543 -0.4027 -0.3523 -0.0487
 6285TIP3    H240271   1.296   3.833   0.656  1.4106 -0.2028 -0.2285
 6286TIP3   OH240272   0.988   6.701  11.236 -0.3291 -0.4981 -0.3316
 6286TIP3    H140273   1.047   6.687  11.309  0.7216 -0.5878 -1.1829
 6286TIP3    H240274   0.900   6.694  11.274  0.2011 -0.7454  0.8658
 6287TIP3   OH240275   4.246   6.685   4.793 -0.7867 -0.1628  0.0212
 6287TIP3    H140276   4.203   6.610   4.752  0.1514 -0.7775  0.1187
 6287TIP3    H240277   4.249   6.752   4.725 -0.5696 -0.6438 -0.4466
 6288TIP3   OH240278   3.089   3.312   5.060  0.1529  0.6082  0.2640
 6288TIP3    H140279   3.090   3.378   5.130 -0.4497  0.8559  0.0482
 6288TIP3    H240280   2.999   3.279   5.060 -0.1307  1.3191 -1.0415
 6289TIP3   OH240281   0.973   3.025  15.833  0.6269  0.4712 -0.0002
 6289TIP3    H140282   0.952   2.966  15.760 -0.1664 -1.3807  1.6393
 6289TIP3    H240283   0.897   3.021  15.890  1.2689  1.8161  1.0141
 6290TIP3   OH240284   0.268   4.907  15.296 -0.6281 -0.0519 -0.0039
 6290TIP3    H140285   0.203   4.916  15.226 -1.8182  0.2154  1.1025
 6290TIP3    H240286   0.272   4.994  15.336 -0.3163 -0.3285  0.5782
 6291TIP3   OH240287   3.984   4.953  16.810  0.1800 -0.2180  0.0727
 6291TIP3    H140288   3.984   4.870  16.763 -1.4179  0.7919 -1.8777
 6291TIP3    H240289   4.010   5.018  16.745  1.2257  0.8641  1.5034
 6292TIP3   OH240290   5.741   4.955   1.673 -0.9015 -0.1658  0.1621
 6292TIP3    H140291   5.833   4.970   1.696 -0.6382 -2.5264  0.9252
 6292TIP3    H240292   5.742   4.941   1.579 -0.7836  1.5416 -0.1274
 6293TIP3   OH240293   1.730   2.246   4.584 -0.2671  0.7357 -0.4502
 6293TIP3    H140294   1.684   2.162   4.574 -1.0052  0.9841  0.6747
 6293TIP3    H240295   1.821   2.226   4.563 -0.7438  0.0667 -1.9902
 6294TIP3   OH240296   5.956   0.098  16.016 -0.4903  0.0127 -0.0524
 6294TIP3    H140297   6.044   0.083  16.050 -1.5155 -0.8797  2.3756
 6294TIP3    H240298   5.969   0.161  15.944  2.1717 -0.6566 -0.2585
 6295TIP3   OH240299   6.078   5.832  15.253 -0.1898  0.4408  0.1776
 6295TIP3    H140300   6.039   5.832  15.340 -1.1470 -1.0910 -0.2099
 6295TIP3    H240301   6.027   5.896  15.204  0.6863  1.6952  0.8534
 6296TIP3   OH240302   6.211   0.753  11.541  0.0454  0.4375  0.1389
 6296TIP3    H140303   6.188   0.784  11.453 -0.0933 -0.7859 -0.2681
 6296TIP3    H240304   6.140   0.694  11.565  0.6509 -0.1098  0.6060
 6297TIP3   OH240305   2.012   4.303  11.452 -0.0228  0.6935 -0.1330
 6297TIP3    H140306   1.928   4.281  11.492  1.0022  1.4659  2.7486
 6297TIP3    H240307   2.050   4.219  11.427 -1.0211  0.2179 -0.0991
 6298TIP3   OH240308   3.051   1.396  12.091  0.7174 -0.4324 -0.1648
 6298TIP3    H140309   3.071   1.476  12.141  0.6807 -0.2387 -0.4553
 6298TIP3    H240310   3.003   1.428  12.014  1.0022 -0.7029 -0.4543
 6299TIP3   OH240311   5.662   4.205   1.818  0.0339  0.2800  0.2672
 6299TIP3    H140312   5.677   4.134   1.755 -2.4491  0.4231 -0.5822
 6299TIP3    H240313   5.629   4.160   1.896 -1.0480  0.4330 -0.0912
 6300TIP3   OH240314   3.010   0.775  10.593  0.0759 -0.5161 -0.0288
 6300TIP3    H140315   2.995   0.680  10.591 -0.2730 -0.4667  0.0702
 6300TIP3    H240316   2.927   0.811  10.623  0.2467 -0.1857  0.0503
 6301TIP3   OH240317   1.655   1.472  16.351  0.6709 -0.1438 -0.0347
 6301TIP3    H140318   1.574   1.504  16.391 -1.3358 -3.8071 -0.7402
 6301TIP3    H240319   1.665   1.525  16.272 -0.7109  0.7628  0.3533
 6302TIP3   OH240320   4.638   3.199  13.095  0.0137 -0.0075 -0.1707
 6302TIP3    H140321   4.651   3.104  13.105 -2.8711 -0.5265 -0.5612
 6302TIP3    H240322   4.624   3.231  13.184 -0.7935 -0.2923 -0.1853
 6303TIP3   OH240323   5.930   3.640   0.081  0.4140 -0.7012  0.5346
 6303TIP3    H140324   5.953   3.559   0.127 -0.7356 -1.3793 -0.0229
 6303TIP3    H240325   5.968   3.630  -0.006 -2.1000 -2.0114 -0.5320
 6304TIP3   OH240326   2.919   5.144  13.531 -0.2019  0.5803  0.2888
 6304TIP3    H140327   2.859   5.203  13.486 -1.0046 -0.7113 -0.3759
 6304TIP3    H240328   2.996   5.198  13.549 -1.4162  2.1792  0.8873
 6305TIP3   OH240329   2.386   6.010   1.284 -0.1647  0.1234  0.4841
 6305TIP3    H140330   2.404   6.075   1.351  0.1626 -0.6464  1.1567
 6305TIP3    H240331   2.354   5.934   1.332 -0.6633 -0.1777 -0.3022
 6306TIP3   OH240332   3.132   2.156   1.393 -0.1853 -0.4410 -0.6798
 6306TIP3    H140333   3.043   2.162   1.359 -0.3658  1.2436 -0.0530
 6306TIP3    H240334   3.121   2.132   1.485  0.1106 -1.6203 -0.9333
 6307TIP3   OH240335   5.682   3.340  13.823 -0.9679  0.2395 -0.6339
 6307TIP3    H140336   5.688   3.420  13.772 -1.6941 -0.4984 -1.9145
 6307TIP3    H240337   5.589   3.316  13.820 -0.6852 -0.8934 -0.6631
 6308TIP3   OH240338   1.677   5.921   3.483  0.6544 -0.6315  0.2035
 6308TIP3    H140339   1.651   5.901   3.393  0.6400  1.5251 -0.3254
 6308TIP3    H240340   1.650   5.845   3.533 -1.1319 -1.0638 -1.3109
 6309TIP3   OH240341   4.274   2.748  16.516 -0.6137  0.0445 -0.3575
 6309TIP3    H140342   4.242   2.795  16.593 -0.1957 -3.4314  2.1534
 6309TIP3    H240343   4.369   2.746  16.527 -0.6175 -1.1780 -0.5210
 6310TIP3   OH240344   4.582   2.272   3.613 -0.7567  0.1230  0.3577
 6310TIP3    H140345   4.656   2.292   3.669  0.0840  3.6499 -1.6823
 6310TIP3    H240346   4.544   2.358   3.592 -1.3521 -0.9520 -3.8858
 6311TIP3   OH240347   4.514   4.254  16.880  0.3421  0.3790 -0.4391
 6311TIP3    H140348   4.557   4.174  16.912  2.4837  0.3304 -3.1241
 6311TIP3    H240349   4.428   4.224  16.850 -0.0119 -0.3341  1.1591
 6312TIP3   OH240350   4.480   2.418  10.527  0.1712  0.2127 -0.6554
 6312TIP3    H140351   4.428   2.363  10.585  3.2358  0.7118  3.0173
 6312TIP3    H240352   4.422   2.491  10.505 -1.0258  0.3905  2.5637
 6313TIP3   OH240353   3.256   0.487  15.665  0.2004  0.3794 -0.2962
 6313TIP3    H140354   3.173   0.518  15.629 -0.9927 -0.7657  1.2890
 6313TIP3    H240355   3.247   0.501  15.759  2.6990  2.1616 -0.2158
 6314TIP3   OH240356   1.253   2.817   1.513 -0.0971 -0.7383 -0.2755
 6314TIP3    H140357   1.312   2.892   1.518  1.2893 -1.7416 -0.7020
 6314TIP3    H240358   1.217   2.820   1.424  2.1745 -2.0842 -1.3456
 6315TIP3   OH240359   4.232   4.162  15.680  0.0507 -0.1194  0.2891
 6315TIP3    H140360   4.290   4.146  15.606  0.3673 -1.2536  0.7641
 6315TIP3    H240361   4.258   4.248  15.713  1.7214 -0.7555  0.7132
 6316TIP3   OH240362   4.147   0.383  10.968  0.1840  0.6183  0.6535
 6316TIP3    H140363   4.167   0.289  10.959  0.0682  0.7687 -1.9940
 6316TIP3    H240364   4.066   0.394  10.918 -0.1126  2.0546  1.4089
 6317TIP3   OH240365   4.259   4.784   5.578  0.6054 -0.0558 -0.0757
 6317TIP3    H140366   4.231   4.722   5.511 -0.3421  1.0633 -0.7354
 6317TIP3    H240367   4.179   4.827   5.606  1.3870  1.7447 -0.5122
 6318TIP3   OH240368   2.046   3.951  14.225  0.3772 -0.3659  0.2927
 6318TIP3    H140369   2.056   4.012  14.299 -0.8132 -0.5129  0.5911
 6318TIP3    H240370   1.955   3.922  14.230  0.2362 -0.2836 -1.3216
 6319TIP3   OH240371   4.007   4.743  16.644 -0.5477  0.1582 -0.0709
 6319TIP3    H140372   4.079   4.775  16.589 -1.3722 -2.3372 -2.8934
 6319TIP3    H240373   4.037   4.658  16.676 -1.7926 -0.4237 -0.3889
 6320TIP3   OH240374   4.830   6.497   1.572 -0.4858  0.5355 -0.3350
 6320TIP3    H140375   4.925   6.491   1.571 -0.4738  0.3833  0.4404
 6320TIP3    H240376   4.800   6.411   1.542 -0.3227 -1.2771  3.9677
 6321TIP3   OH240377   5.993   2.808   2.831  0.4842  0.1833 -0.3595
 6321TIP3    H140378   6.058   2.763   2.886  0.2963  0.0005 -0.2868
 6321TIP3    H240379   6.031   2.895   2.816  0.8687 -0.0151 -0.5385
 6322TIP3   OH240380   1.730   1.666  13.266  0.1269  0.0995  0.0438
 6322TIP3    H140381   1.670   1.740  13.276  1.2371  1.2431 -1.3340
 6322TIP3    H240382   1.817   1.705  13.273  0.7532 -1.4170  1.3407
 6323TIP3   OH240383   1.424   3.743   2.180 -0.1907 -0.4269  0.3329
 6323TIP3    H140384   1.464   3.708   2.260 -0.6133  0.2297  0.8435
 6323TIP3    H240385   1.382   3.824   2.208 -1.2088 -0.6943 -0.3381
 6324TIP3   OH240386   0.880   1.795   4.032 -0.2728 -0.3130  0.0838
 6324TIP3    H140387   0.913   1.765   3.948  0.8508 -1.1342  0.7872
 6324TIP3    H240388   0.802   1.847   4.011 -0.6581 -1.4286 -1.3648
 6325TIP3   OH240389   0.374   5.613  12.932 -0.1554  0.4912 -0.3376
 6325TIP3    H140390   0.396   5.533  12.979 -1.6889  0.9677  1.2780
 6325TIP3    H240391   0.346   5.583  12.845 -2.9878 -1.0310  0.9616
 6326TIP3   OH240392   2.213   4.850  16.336 -0.4050 -0.0543  0.3561
 6326TIP3    H140393   2.239   4.770  16.382  2.0801 -0.7776 -2.0559
 6326TIP3    H240394   2.151   4.821  16.270 -0.7252  0.2976  0.4977
 6327TIP3   OH240395   3.845   4.711   5.685 -0.0995 -0.7275 -0.3679
 6327TIP3    H140396   3.902   4.695   5.761 -0.3769 -1.4326 -0.3046
 6327TIP3    H240397   3.863   4.637   5.626 -0.7042 -0.7713 -0.4956
 6328TIP3   OH240398   3.506   5.553  16.426  0.1000 -0.5480  0.2265
 6328TIP3    H140399   3.527   5.546  16.519 -0.2085 -0.2586  0.3224
 6328TIP3    H240400   3.421   5.510  16.417 -0.4774  0.5276  0.3194
 6329TIP3   OH240401   5.762   5.701   0.485 -0.3087 -0.0051 -0.0464
 6329TIP3    H140402   5.667   5.704   0.479 -0.5886 -3.8293  0.0833
 6329TIP3    H240403   5.789   5.644   0.413  2.0802  1.8202 -0.7584
 6330TIP3   OH240404   0.390   5.595  13.901 -1.1888 -0.9557  0.5709
 6330TIP3    H140405   0.299   5.623  13.913 -0.9654 -0.0071  0.2086
 6330TIP3    H240406   0.439   5.647  13.966 -0.6455  0.2302 -0.7262
 6331TIP3   OH240407   6.497   5.689  13.722 -0.5567 -0.1533  0.4668
 6331TIP3    H140408   6.452   5.757  13.773 -1.0778  0.1060 -0.3249
 6331TIP3    H240409   6.436   5.616  13.721 -0.4902 -0.2064  0.3186
 6332TIP3   OH240410   4.776   2.500   2.300 -0.1347  0.4140 -0.1351
 6332TIP3    H140411   4.695   2.548   2.320 -0.3627  1.1386 -2.4942
 6332TIP3    H240412   4.844   2.567   2.298 -0.0383  0.3067 -1.1006
 6333TIP3   OH240413   5.990   0.274  13.055  0.1046 -0.0716 -0.3046
 6333TIP3    H140414   6.047   0.262  13.130  0.2792 -0.9866 -0.5649
 6333TIP3    H240415   5.924   0.205  13.063 -1.9866  1.9418  0.8744
 6334TIP3   OH240416   3.353   0.774  11.980  1.0270  0.1175  0.6104
 6334TIP3    H140417   3.426   0.830  11.953  0.1075  1.6142  1.1338
 6334TIP3    H240418   3.348   0.707  11.912  1.7757  1.0183 -0.3703
 6335TIP3   OH240419   4.534   6.379   5.541  0.7271  0.5330 -0.4025
 6335TIP3    H140420   4.563   6.459   5.585 -0.0846  0.8359 -0.3909
 6335TIP3    H240421   4.464   6.345   5.597 -0.2581  0.8758 -1.3797
 6336TIP3   OH240422   2.456   2.502  14.031 -0.4286 -0.1563 -0.3893
 6336TIP3    H140423   2.521   2.439  13.998  0.5379  0.2894  0.5872
 6336TIP3    H240424   2.480   2.515  14.123 -2.6326 -0.8492  0.3346
 6337TIP3   OH240425   4.822   4.296  16.928  0.4914  0.4438 -0.6675
 6337TIP3    H140426   4.849   4.343  16.848 -1.7466  0.4995 -1.4580
 6337TIP3    H240427   4.814   4.205  16.901 -2.5626  0.7674 -1.2721
 6338TIP3   OH240428   0.245   2.241  14.936 -0.3867  0.0367 -0.2979
 6338TIP3    H140429   0.306   2.315  14.945  0.8597 -1.0221  0.1514
 6338TIP3    H240430   0.245   2.199  15.022 -2.9445  0.8520  0.2106
 6339TIP3   OH240431   4.210   0.451   4.380 -0.0211 -0.2330 -0.6761
 6339TIP3    H140432   4.176   0.435   4.468 -0.6024 -0.6582 -0.9635
 6339TIP3    H240433   4.298   0.486   4.393 -0.9432  1.9407  0.1209
 6340TIP3   OH240434   4.275   5.159  13.324 -0.3585  0.4526  0.0473
 6340TIP3    H140435   4.319   5.195  13.247  0.0271 -0.5892 -0.2318
 6340TIP3    H240436   4.196   5.213  13.333 -0.0610  1.0304 -0.6591
 6341TIP3   OH240437   0.894   3.925  14.684  0.3236  0.2152 -0.2091
 6341TIP3    H140438   0.937   3.846  14.652  0.7785  0.4370 -0.1431
 6341TIP3    H240439   0.801   3.902  14.686  0.1674  0.4527 -2.4224
 6342TIP3   OH240440   0.655   4.100   0.816  0.4916  0.2545  0.3995
 6342TIP3    H140441   0.611   4.120   0.733  0.9817  1.1068  0.3382
 6342TIP3    H240442   0.674   4.185   0.854 -1.3797 -0.1084  2.2994
 6343TIP3   OH240443   4.719   6.019  13.801 -0.2816  0.5692  0.5575
 6343TIP3    H140444   4.664   6.097  13.802 -1.2464 -0.0855 -0.1251
 6343TIP3    H240445   4.731   5.997  13.894  1.4517  2.4816  0.8616
 6344TIP3   OH240446   4.582   0.563   1.156 -0.4143 -0.0678 -0.1116
 6344TIP3    H140447   4.544   0.549   1.243  1.4571  1.1843  0.9686
 6344TIP3    H240448   4.568   0.480   1.110 -2.5203 -0.3553  0.9112
 6345TIP3   OH240449   4.880   2.896   6.715  0.4077 -0.0501 -0.2589
 6345TIP3    H140450   4.953   2.834   6.713  1.3144  0.9799  0.1956
 6345TIP3    H240451   4.830   2.870   6.793 -0.6799 -1.7828 -1.4532
 6346TIP3   OH240452   6.310   0.723  12.258 -0.7450 -0.6040  0.4485
 6346TIP3    H140453   6.390   0.683  12.291  1.1733  1.0722 -1.8730
 6346TIP3    H240454   6.286   0.669  12.183 -0.9207 -0.2079  0.2185
 6347TIP3   OH240455   3.360   5.983  12.389  0.2783  0.1008 -0.6961
 6347TIP3    H140456   3.301   5.982  12.313  1.9086 -0.4940 -2.0180
 6347TIP3    H240457   3.416   5.907  12.377  0.3173 -0.2664  1.3820
 6348TIP3   OH240458   2.629   2.821  15.997 -0.5061  0.5905 -0.4498
 6348TIP3    H140459   2.719   2.853  15.984 -0.6230  1.5147  0.8448
 6348TIP3    H240460   2.638   2.726  16.005  0.3957  0.7031 -0.0509
 6349TIP3   OH240461   4.152   1.199   0.544 -0.1811 -0.0783  0.9561
 6349TIP3    H140462   4.144   1.291   0.571 -0.6707 -0.2682  1.4732
 6349TIP3    H240463   4.084   1.153   0.593  0.8203 -0.9218  1.6182
 6350TIP3   OH240464   4.876   2.133   0.562 -0.5889 -0.1384  0.1987
 6350TIP3    H140465   4.894   2.149   0.655 -2.5442  1.6125  0.3702
 6350TIP3    H240466   4.809   2.064   0.562 -0.1057 -0.6104  0.0468
 6351TIP3   OH240467   1.801   6.612  11.869  0.7801 -0.5646 -0.2061
 6351TIP3    H140468   1.770   6.603  11.959 -1.2219  0.9942 -0.6661
 6351TIP3    H240469   1.733   6.571  11.816  0.8254  0.5214 -1.1341
 6352TIP3   OH240470   0.413   2.603   0.200 -1.2759  0.3119  0.3628
 6352TIP3    H140471   0.454   2.683   0.232 -2.6636  0.9964  0.5314
 6352TIP3    H240472   0.350   2.634   0.134 -0.6641 -0.7994 -0.7850
 6353TIP3   OH240473   1.471   3.796   6.160 -0.2302 -0.1831 -0.1472
 6353TIP3    H140474   1.542   3.787   6.224 -0.8228  0.0039  0.5597
 6353TIP3    H240475   1.476   3.887   6.131 -0.5215 -0.0100  0.3282
 6354TIP3   OH240476   0.400   3.453  10.876  0.1378 -0.2552 -0.0226
 6354TIP3    H140477   0.471   3.403  10.916  1.1572  0.8081 -0.4204
 6354TIP3    H240478   0.437   3.485  10.793 -0.7271  0.5156 -0.1337
 6355TIP3   OH240479   3.416   4.798  14.912  0.5862  0.2921 -0.1222
 6355TIP3    H140480   3.462   4.730  14.961 -0.5015 -0.1631  0.3082
 6355TIP3    H240481   3.441   4.880  14.955  1.9649  0.2023 -0.6897
 6356TIP3   OH240482   4.802   4.163   5.568  0.1526  0.1500  0.2002
 6356TIP3    H140483   4.837   4.163   5.657 -1.1875  0.0879  0.7493
 6356TIP3    H240484   4.708   4.148   5.579  0.0831 -0.7000 -1.2758
 6357TIP3   OH240485   6.164   3.744   2.214 -0.3965  0.1146 -0.0520
 6357TIP3    H140486   6.248   3.767   2.256 -0.2817  0.4489 -0.4620
 6357TIP3    H240487   6.099   3.756   2.284 -0.4360  2.3261 -0.3758
 6358TIP3   OH240488   5.396   6.430  17.206 -0.1812 -0.5333  0.2658
 6358TIP3    H140489   5.400   6.429  17.302  2.1910  1.1716  0.2950
 6358TIP3    H240490   5.486   6.410  17.179 -0.2915  1.0875 -1.5072
 6359TIP3   OH240491   3.684   4.743  15.511  0.0935 -0.0444  0.8437
 6359TIP3    H140492   3.620   4.716  15.577 -1.1517 -0.3739 -0.4515
 6359TIP3    H240493   3.724   4.661  15.482 -2.3954 -0.5238 -1.7765
 6360TIP3   OH240494   1.493   2.117   2.122 -0.1354  0.1607  0.4604
 6360TIP3    H140495   1.521   2.037   2.166 -0.2004  0.3073  0.7709
 6360TIP3    H240496   1.421   2.089   2.065 -1.3977  0.2914  1.9171
 6361TIP3   OH240497   6.710   5.210  12.657  0.3587 -0.5509  0.3690
 6361TIP3    H140498   6.761   5.263  12.597  0.5668 -0.5854  0.5152
 6361TIP3    H240499   6.629   5.190  12.609 -1.0120  2.2263  1.2732
 6362TIP3   OH240500   5.325   6.677  14.174  0.1926 -0.1435  0.3992
 6362TIP3    H140501   5.304   6.742  14.241 -0.6039 -1.8294  1.8631
 6362TIP3    H240502   5.370   6.727  14.105 -0.8561  2.0196  1.2008
 6363TIP3   OH240503   0.167   3.702  11.181  0.3951  0.1874 -0.0265
 6363TIP3    H140504   0.221   3.721  11.104 -1.3534  0.0824 -1.3260
 6363TIP3    H240505   0.153   3.787  11.223  0.4226  0.4039 -0.4604
 6364TIP3   OH240506   3.876   3.283   4.372  0.1279  0.1617 -0.0512
 6364TIP3    H140507   3.822   3.213   4.334 -0.4677  0.4032  0.3303
 6364TIP3    H240508   3.966   3.258   4.351 -0.1326 -0.2446 -0.7105
 6365TIP3   OH240509   3.990   6.687   0.465 -0.2993  0.4206  0.1043
 6365TIP3    H140510   4.056   6.744   0.426 -0.4123  0.6447  0.2388
 6365TIP3    H240511   4.026   6.599   0.456 -0.1128  0.5140 -0.0821
 6366TIP3   OH240512   2.628   0.097   3.913  0.1663  0.3113 -0.1695
 6366TIP3    H140513   2.548   0.096   3.860  0.3633 -0.1860 -0.4642
 6366TIP3    H240514   2.608   0.043   3.988 -0.0982  0.9817  0.2531
 6367TIP3   OH240515   3.634   0.301  16.547  0.4402  0.2566 -0.2663
 6367TIP3    H140516   3.635   0.206  16.535  3.4575  0.0601  0.6341
 6367TIP3    H240517   3.593   0.314  16.632  0.2888 -0.2649 -0.2560
 6368TIP3   OH240518   2.378   6.349   5.080  0.0436  1.3221  0.0200
 6368TIP3    H140519   2.316   6.319   5.146  0.1676  0.2101 -0.3401
 6368TIP3    H240520   2.463   6.346   5.123  0.1244  0.5974 -0.1706
 6369TIP3   OH240521   5.820   4.425   1.442  0.3290  0.0045 -0.2181
 6369TIP3    H140522   5.896   4.372   1.467  0.5384  0.7229  0.7362
 6369TIP3    H240523   5.775   4.443   1.525 -1.0578 -0.6470 -0.7954
 6370TIP3   OH240524   4.118   3.344  14.612 -0.2840  0.0869 -0.3560
 6370TIP3    H140525   4.109   3.407  14.540  1.1534  1.2860  0.4519
 6370TIP3    H240526   4.049   3.368  14.674 -0.7891 -0.2071 -0.7972
 6371TIP3   OH240527   1.395   0.056   2.023 -0.9924 -0.4109 -0.0377
 6371TIP3    H140528   1.386   0.151   2.016 -0.8501 -0.4603 -1.0176
 6371TIP3    H240529   1.367   0.035   2.113  0.4425  0.7318  0.7230
 6372TIP3   OH240530   3.065   0.585   3.098 -0.0757 -0.0336  0.2609
 6372TIP3    H140531   3.017   0.640   3.160 -1.4836 -0.7266 -0.1565
 6372TIP3    H240532   3.040   0.618   3.012 -2.5971 -2.4940 -0.0880
 6373TIP3   OH240533   5.171   0.659   1.095 -0.1396  0.3339  0.1987
 6373TIP3    H140534   5.077   0.665   1.080  0.0402  4.1015 -0.3218
 6373TIP3    H240535   5.206   0.628   1.012 -0.8626 -1.3404  0.4707
 6374TIP3   OH240536   5.556   3.428  15.026  0.3094 -0.4323  0.2220
 6374TIP3    H140537   5.578   3.376  15.103  1.1981 -1.2224 -0.5262
 6374TIP3    H240538   5.591   3.515  15.044  0.5564 -0.6272  0.6872
 6375TIP3   OH240539   1.745   2.948  10.826  0.0032  0.1934 -0.0784
 6375TIP3    H140540   1.742   2.855  10.803  0.7578 -0.0140  0.6229
 6375TIP3    H240541   1.826   2.959  10.875  0.1437  1.3177 -0.5212
 6376TIP3   OH240542   6.385   0.470   5.353  0.1573  0.1360  0.0398
 6376TIP3    H140543   6.477   0.451   5.332  0.2415  0.5105  0.0610
 6376TIP3    H240544   6.373   0.562   5.330  0.0504  0.3556  0.9073
 6377TIP3   OH240545   5.095   4.850  14.755 -0.4456  0.4317  0.5838
 6377TIP3    H140546   5.009   4.859  14.796 -0.3656  0.3748  0.7686
 6377TIP3    H240547   5.097   4.916  14.687  0.2382  2.0562  2.0921
 6378TIP3   OH240548   5.292   2.105  13.347 -0.0292 -0.2404 -0.9531
 6378TIP3    H140549   5.199   2.122  13.363  0.0475 -0.0258 -0.7116
 6378TIP3    H240550   5.294   2.051  13.268 -0.4375 -1.4873 -0.1453
 6379TIP3   OH240551   1.828   3.747   1.823 -0.2909  0.0454 -0.0039
 6379TIP3    H140552   1.835   3.832   1.866  0.0434  0.0970 -0.1554
 6379TIP3    H240553   1.746   3.710   1.855 -0.0581  0.0937  0.6572
 6380TIP3   OH240554   5.163   4.070  15.192 -0.1100  0.4446 -0.1244
 6380TIP3    H140555   5.221   4.029  15.256 -1.5840 -0.5280  0.6637
 6380TIP3    H240556   5.136   3.997  15.135  2.7807  1.5847 -3.2865
 6381TIP3   OH240557   0.633   0.596   0.977 -0.1555  0.8652 -0.6191
 6381TIP3    H140558   0.626   0.600   0.882 -0.8519  2.0642 -0.5345
 6381TIP3    H240559   0.727   0.593   0.995  0.0521 -2.7927 -1.4151
 6382TIP3   OH240560   2.654   5.135  14.636 -0.2017  0.0909 -0.6858
 6382TIP3    H140561   2.733   5.150  14.584  1.0504 -1.4428  0.6547
 6382TIP3    H240562   2.610   5.063  14.591  0.2240 -0.3751 -0.3843
 6383TIP3   OH240563   0.578   5.499  13.693  0.4667  0.4487  0.2476
 6383TIP3    H140564   0.496   5.515  13.738  0.7747  1.1207  0.5748
 6383TIP3    H240565   0.626   5.440  13.752 -1.1607 -2.9544 -1.4950
 6384TIP3   OH240566   3.589   3.151   3.689 -0.2008 -0.3160  0.2180
 6384TIP3    H140567   3.540   3.112   3.617  1.2781  0.2166 -1.1304
 6384TIP3    H240568   3.644   3.081   3.722 -0.1499 -0.3000  0.1669
 6385TIP3   OH240569   3.458   2.895  11.057  0.1348 -0.5440  0.4921
 6385TIP3    H140570   3.454   2.941  10.973 -1.2128 -0.2466  0.6931
 6385TIP3    H240571   3.494   2.959  11.118 -0.3129 -0.2543  0.4544
 6386TIP3   OH240572   4.391   2.589  13.723 -0.7320 -0.3905 -0.3239
 6386TIP3    H140573   4.481   2.617  13.735 -0.1172 -1.4149 -2.1322
 6386TIP3    H240574   4.353   2.652  13.662 -1.6493  0.7185  1.3152
 6387TIP3   OH240575   5.806   6.740   1.033  0.3023 -0.8234 -0.0495
 6387TIP3    H140576   5.753   6.769   0.959  0.1868 -0.6298  0.1090
 6387TIP3    H240577   5.769   6.654   1.057  0.8677 -1.2646 -0.7380
 6388TIP3   OH240578   2.804   3.447   0.800 -0.0668  0.2691  0.1209
 6388TIP3    H140579   2.745   3.479   0.731 -1.3174 -1.0379  0.5122
 6388TIP3    H240580   2.745   3.414   0.868  1.1476  0.7391  1.4400
 6389TIP3   OH240581   2.953   0.147  16.498 -1.4479  0.0197  0.1928
 6389TIP3    H140582   3.036   0.154  16.451 -1.0356 -0.2207  0.8689
 6389TIP3    H240583   2.962   0.069  16.552 -1.8956  0.2951  0.6853
 6390TIP3   OH240584   2.945   2.562   2.254  0.0393 -0.0833  0.0148
 6390TIP3    H140585   2.940   2.656   2.236 -0.8294  0.0879  1.0523
 6390TIP3    H240586   2.944   2.521   2.167  0.6050  0.8672 -0.4526
 6391TIP3   OH240587   5.398   5.873   5.855  0.0495 -0.7719  0.1252
 6391TIP3    H140588   5.416   5.793   5.807 -0.2542 -0.7301 -0.0589
 6391TIP3    H240589   5.398   5.846   5.947  2.7485 -0.4657  0.2811
 6392TIP3   OH240590   4.839   4.498   5.583 -0.4307  0.3446 -0.5389
 6392TIP3    H140591   4.857   4.407   5.559  0.4499  0.7423 -1.4873
 6392TIP3    H240592   4.784   4.492   5.661 -1.7042 -1.0186 -1.4848
 6393TIP3   OH240593   2.946   5.920   5.339  0.4889  0.3385 -0.7951
 6393TIP3    H140594   3.040   5.930   5.349  0.3058  0.6258  0.9937
 6393TIP3    H240595   2.922   5.979   5.267  1.6350  0.3960 -1.1424
 6394TIP3   OH240596   2.639   0.912  11.644 -0.3448 -0.3216  0.1816
 6394TIP3    H140597   2.689   0.936  11.722 -1.0622  0.4095  0.4312
 6394TIP3    H240598   2.565   0.973  11.642 -0.5694 -0.5910 -0.8452
 6395TIP3   OH240599   2.273   1.217  15.376 -0.0775 -0.0431  0.4482
 6395TIP3    H140600   2.336   1.255  15.315  1.0311  0.2902  1.7560
 6395TIP3    H240601   2.307   1.129  15.394  0.8215  0.5993  2.1806
 6396TIP3   OH240602   2.287   2.619   6.361 -0.2866 -0.3483 -0.1531
 6396TIP3    H140603   2.346   2.547   6.382  0.5054  0.5913  1.0016
 6396TIP3    H240604   2.200   2.582   6.370  0.0667 -0.7796  2.1417
 6397TIP3   OH240605   2.331   4.947  17.132  0.1310  0.1294 -0.3532
 6397TIP3    H140606   2.253   4.927  17.081  0.1791  0.1632 -0.4408
 6397TIP3    H240607   2.317   4.904  17.217  1.2603 -2.2877 -1.2990
 6398TIP3   OH240608   1.721   3.553   6.692  0.2329  0.0881 -0.3652
 6398TIP3    H140609   1.662   3.625   6.713  0.8182  0.8300 -1.1783
 6398TIP3    H240610   1.808   3.593   6.692  0.5470 -0.5781 -1.0014
 6399TIP3   OH240611   4.044   1.841   2.824 -0.2415  0.1084  0.3992
 6399TIP3    H140612   4.073   1.925   2.790  0.6021 -0.1599  0.4265
 6399TIP3    H240613   4.080   1.837   2.913  0.8892 -0.8482 -0.0801
 6400TIP3   OH240614   6.253   2.009   1.573 -0.6666 -0.1484 -0.2656
 6400TIP3    H140615   6.329   2.002   1.516  0.1023 -1.8340  0.8757
 6400TIP3    H240616   6.204   1.928   1.558 -1.2736  0.1013  0.3164
 6401TIP3   OH240617   2.495   5.635   3.891  0.4966 -0.5953  0.1248
 6401TIP3    H140618   2.589   5.629   3.871  0.5224  1.7074 -0.7815
 6401TIP3    H240619   2.458   5.684   3.817 -1.3344 -0.9706  0.7467
 6402TIP3   OH240620   0.396   3.402  17.093 -0.8190 -0.0659 -0.1394
 6402TIP3    H140621   0.401   3.439  17.005 -2.0202 -0.2632 -0.3087
 6402TIP3    H240622   0.478   3.430  17.136 -0.6844  0.8810 -0.9784
 6403TIP3   OH240623   3.766   5.849  16.133 -0.1558 -0.9850 -0.0573
 6403TIP3    H140624   3.781   5.785  16.202 -0.3451 -0.8794  0.0809
 6403TIP3    H240625   3.674   5.838  16.109 -0.2447 -0.6249  0.1106
 6404TIP3   OH240626   6.302   2.487  13.565  0.2574 -0.3602  0.6117
 6404TIP3    H140627   6.314   2.435  13.485  0.9132  0.5777  0.0721
 6404TIP3    H240628   6.297   2.422  13.635  0.9787 -1.1592 -0.0431
 6405TIP3   OH240629   4.832   6.543   5.213  0.1895  0.1498 -0.0324
 6405TIP3    H140630   4.746   6.586   5.218 -0.1795 -0.2142 -2.2698
 6405TIP3    H240631   4.892   6.614   5.190  0.4518  0.3433  1.2068
 6406TIP3   OH240632   5.442   4.676  17.046  1.0730  0.3774  0.1057
 6406TIP3    H140633   5.486   4.686  17.131  0.2154 -0.0308  0.6137
 6406TIP3    H240634   5.373   4.612  17.063  2.5667 -1.8197 -1.5575
 6407TIP3   OH240635   6.092   0.654   2.839 -0.3422  0.1661  0.3411
 6407TIP3    H140636   6.100   0.711   2.763 -2.7321  1.0739  0.7054
 6407TIP3    H240637   6.135   0.702   2.910 -1.3818  1.0323  0.3962
 6408TIP3   OH240638   5.061   0.397  16.586  0.2927 -0.0198  0.2373
 6408TIP3    H140639   5.127   0.455  16.548  1.9278 -1.8330  0.1425
 6408TIP3    H240640   4.987   0.455  16.607  1.1121  1.7744 -1.4794
 6409TIP3   OH240641   1.584   5.583   1.692 -0.0894  0.1630  0.5048
 6409TIP3    H140642   1.635   5.540   1.760 -0.6467  0.2303  0.9743
 6409TIP3    H240643   1.610   5.539   1.611 -0.8053 -1.2191  0.9965
 6410TIP3   OH240644   0.212   6.629  15.191 -0.4009 -0.9186 -0.7533
 6410TIP3    H140645   0.276   6.559  15.205 -0.1055 -0.3977  0.6980
 6410TIP3    H240646   0.253   6.687  15.127 -0.3051 -1.6421 -1.3576
 6411TIP3   OH240647   1.678   5.184  14.843  0.2702  0.3627 -0.1540
 6411TIP3    H140648   1.663   5.123  14.772 -2.4867  1.1998 -0.3928
 6411TIP3    H240649   1.706   5.130  14.917  2.3730 -0.5968 -1.5635
 6412TIP3   OH240650   2.215   4.976   3.988  0.6995  0.4096 -0.5235
 6412TIP3    H140651   2.235   5.044   4.052 -0.3719 -0.2101  0.5027
 6412TIP3    H240652   2.296   4.967   3.937  0.8351  2.5103 -0.7783
 6413TIP3   OH240653   0.849   0.762  16.586 -0.0804  0.2546  0.2942
 6413TIP3    H140654   0.927   0.736  16.634  1.1574  2.4170 -0.4110
 6413TIP3    H240655   0.817   0.681  16.546  1.5207 -0.7629  0.9707
 6414TIP3   OH240656   5.495   4.953  15.757  0.3097  0.2804 -0.3067
 6414TIP3    H140657   5.588   4.976  15.759  0.4415 -0.1799  1.6671
 6414TIP3    H240658   5.450   5.031  15.790  0.1156  0.0973 -0.1362
 6415TIP3   OH240659   6.744   6.471   0.853  0.0972  0.0798  0.0952
 6415TIP3    H140660   6.686   6.546   0.866  1.3554  0.9875  0.7202
 6415TIP3    H240661   6.804   6.499   0.784 -0.1781 -0.8479 -0.5481
 6416TIP3   OH240662   2.402   3.911  10.775 -0.4607 -0.3514  0.1500
 6416TIP3    H140663   2.496   3.892  10.776 -0.2952  0.4200  1.6843
 6416TIP3    H240664   2.391   3.971  10.701  0.2394 -0.4577 -0.0488
 6417TIP3   OH240665   0.037   3.232   1.419  0.2391 -0.0857  0.6284
 6417TIP3    H140666   0.035   3.152   1.367  0.0814 -1.2424  2.3465
 6417TIP3    H240667   0.080   3.207   1.501  0.0656  1.5552  1.2645
 6418TIP3   OH240668   3.867   6.058  14.681  0.3526  0.0927 -0.7076
 6418TIP3    H140669   3.773   6.073  14.674  0.5752  0.9897 -2.0510
 6418TIP3    H240670   3.874   5.974  14.728 -1.0894  0.1810 -0.2844
 6419TIP3   OH240671   2.041   3.821   5.191  0.4582  0.0553  0.6234
 6419TIP3    H140672   1.993   3.740   5.179 -2.8857  1.6820  1.6721
 6419TIP3    H240673   2.043   3.861   5.104  0.5047 -0.3225  0.4477
 6420TIP3   OH240674   5.977   1.271   0.838  0.4771 -0.3814 -0.0522
 6420TIP3    H140675   5.994   1.217   0.760  2.5934 -0.5443  0.4518
 6420TIP3    H240676   6.006   1.217   0.911  0.0854  0.4211  0.7113
 6421TIP3   OH240677   0.766   2.407  16.463 -0.3598  0.1274 -0.6120
 6421TIP3    H140678   0.831   2.428  16.396  0.9773  1.4467  1.0209
 6421TIP3    H240679   0.817   2.367  16.533 -0.9590  2.6302  1.3855
 6422TIP3   OH240680   1.530   4.428  16.623 -0.3217  0.5331 -0.2638
 6422TIP3    H140681   1.500   4.365  16.558 -0.1775  2.3965 -2.2830
 6422TIP3    H240682   1.452   4.450  16.674 -0.5081 -0.7276  0.0071
 6423TIP3   OH240683   2.818   1.422  16.794 -0.0273  0.3498  0.1023
 6423TIP3    H140684   2.726   1.450  16.790 -0.1901 -0.2760 -1.1414
 6423TIP3    H240685   2.823   1.367  16.872 -0.7444  0.3146  0.1339
 6424TIP3   OH240686   3.399   1.256  15.611  0.4631 -0.3955 -0.3046
 6424TIP3    H140687   3.454   1.326  15.575  0.3516 -0.4243 -0.5346
 6424TIP3    H240688   3.363   1.293  15.691  0.4209 -0.1952 -0.4141
 6425TIP3   OH240689   6.156   6.452   4.006 -0.1525  0.3783 -0.2374
 6425TIP3    H140690   6.190   6.531   3.963  2.4566 -0.7285 -0.4033
 6425TIP3    H240691   6.229   6.422   4.060  0.1331 -3.6282 -2.5284
 6426TIP3   OH240692   2.056   6.535   4.840 -0.3040 -0.2971  0.0950
 6426TIP3    H140693   2.111   6.577   4.775 -0.4359  1.9061  1.3049
 6426TIP3    H240694   2.110   6.534   4.920  0.0280 -3.3198 -0.0275
 6427TIP3   OH240695   2.549   4.899   5.567  0.0370  0.2000  0.0112
 6427TIP3    H140696   2.509   4.890   5.654 -0.4633  0.1188 -0.2290
 6427TIP3    H240697   2.595   4.983   5.571 -1.4840  1.0781 -0.2406
 6428TIP3   OH240698   5.105   2.650   0.520 -0.4256  0.1044 -0.2717
 6428TIP3    H140699   5.137   2.737   0.543 -3.4257  1.2353  0.1506
 6428TIP3    H240700   5.181   2.605   0.484  2.0431  1.7785  2.3668
 6429TIP3   OH240701   6.690   3.340  16.006  0.2667  0.6506  0.2494
 6429TIP3    H140702   6.758   3.357  16.072  0.5006 -2.4077  0.9492
 6429TIP3    H240703   6.633   3.417  16.010  1.9806  1.9221  1.8379
 6430TIP3   OH240704   1.091   1.904   5.592  0.0144  0.2174  0.5927
 6430TIP3    H140705   1.113   1.894   5.685 -0.7813 -1.8477  0.6044
 6430TIP3    H240706   0.995   1.906   5.590  0.0291  0.7246 -0.1601
 6431TIP3   OH240707   1.466   3.571  11.599 -0.3000 -0.4645  0.3220
 6431TIP3    H140708   1.463   3.638  11.530  0.9670  0.3431  1.0129
 6431TIP3    H240709   1.553   3.580  11.637  0.1748 -2.9866  0.0003
 6432TIP3   OH240710   2.312   1.848  14.089 -0.4398  0.1015  0.1261
 6432TIP3    H140711   2.235   1.803  14.052  0.1962 -1.6960  0.8753
 6432TIP3    H240712   2.292   1.856  14.182  1.2796 -2.8339  0.8861
 6433TIP3   OH240713   4.058   6.697  16.109  0.7225  0.1521  0.1873
 6433TIP3    H140714   4.048   6.762  16.039 -0.0049  0.3802  0.4847
 6433TIP3    H240715   3.987   6.718  16.170 -0.5867 -1.9355 -0.5135
 6434TIP3   OH240716   1.006   1.717  14.765 -0.7105 -0.0299  0.0583
 6434TIP3    H140717   0.918   1.754  14.763 -2.0151 -2.7538  1.9143
 6434TIP3    H240718   1.046   1.756  14.843 -1.0376 -0.3803  0.4015
 6435TIP3   OH240719   6.550   0.980  17.198  0.2947  0.5798 -0.1423
 6435TIP3    H140720   6.601   0.900  17.208  0.0154  0.3099 -0.8188
 6435TIP3    H240721   6.462   0.950  17.176 -0.5472  0.9876  2.3733
 6436TIP3   OH240722   5.457   6.750  14.845 -0.3102 -0.1416  0.2189
 6436TIP3    H140723   5.432   6.755  14.937  0.3728  0.4269  0.3792
 6436TIP3    H240724   5.512   6.826  14.830 -1.6913  0.6737 -1.0760
 6437TIP3   OH240725   0.654   6.596  13.256 -0.3019 -0.2005 -0.0945
 6437TIP3    H140726   0.725   6.535  13.238  0.4772  0.2642  1.2603
 6437TIP3    H240727   0.687   6.681  13.227 -0.5822 -0.0911 -0.0978
 6438TIP3   OH240728   6.000   3.169  15.558  0.1440 -0.7611 -0.1360
 6438TIP3    H140729   6.046   3.096  15.598 -0.3155 -0.9376  0.0670
 6438TIP3    H240730   5.975   3.138  15.471  1.8543 -0.1088 -0.9146
 6439TIP3   OH240731   1.558   1.821   1.316  0.4441 -0.1630  0.0145
 6439TIP3    H140732   1.557   1.898   1.260  1.0447  0.8232  1.3005
 6439TIP3    H240733   1.560   1.747   1.255 -0.8855  0.7918 -1.2515
 6440TIP3   OH240734   0.857   2.773   2.496  0.4299  0.1230  0.7179
 6440TIP3    H140735   0.848   2.801   2.587  0.4667 -0.4517  0.9026
 6440TIP3    H240736   0.948   2.746   2.488  0.4025  0.0831  0.5369
 6441TIP3   OH240737   0.977   3.710  16.859 -0.0830 -0.2192  0.0289
 6441TIP3    H140738   0.985   3.663  16.942 -0.2417  1.9622  1.3411
 6441TIP3    H240739   1.060   3.757  16.849 -0.9350  1.3825  0.1724
 6442TIP3   OH240740   6.454   2.291   2.584  0.4419  0.3661 -0.0383
 6442TIP3    H140741   6.484   2.202   2.604 -1.5787 -1.6454 -4.5599
 6442TIP3    H240742   6.388   2.310   2.650  1.0380 -1.4025  1.1283
 6443TIP3   OH240743   2.587   3.272  16.978  0.1077 -0.1661 -0.4016
 6443TIP3    H140744   2.536   3.352  16.985 -0.1072 -0.3945  0.9814
 6443TIP3    H240745   2.612   3.267  16.886 -2.2845 -0.0046 -1.1396
 6444TIP3   OH240746   6.135   0.751  16.215 -0.0788 -0.0100 -0.2685
 6444TIP3    H140747   6.046   0.747  16.250 -0.9543  0.3639 -2.2945
 6444TIP3    H240748   6.178   0.674  16.251 -1.1402 -0.0733  0.9426
 6445TIP3   OH240749   6.133   1.123   3.015  0.0994  0.3998  0.1249
 6445TIP3    H140750   6.047   1.122   3.057 -0.2403 -1.1893 -0.5260
 6445TIP3    H240751   6.131   1.199   2.957 -1.9628 -1.0896 -1.9306
 6446TIP3   OH240752   6.174   1.786  13.876  0.1256 -0.1049  0.1156
 6446TIP3    H140753   6.097   1.744  13.838  0.3602  1.2553 -2.0432
 6446TIP3    H240754   6.144   1.874  13.900  0.7918  0.1354  0.0825
 6447TIP3   OH240755   3.329   2.604   5.424  0.6859  0.5796  0.3341
 6447TIP3    H140756   3.277   2.527   5.401  1.7996  0.4227 -1.8558
 6447TIP3    H240757   3.372   2.579   5.506 -0.7569 -0.1954  0.9067
 6448TIP3   OH240758   3.370   1.375  14.440  0.1581 -0.2676 -0.4212
 6448TIP3    H140759   3.289   1.412  14.474  0.5745  0.4656 -0.2189
 6448TIP3    H240760   3.422   1.451  14.413 -0.0346 -0.7939 -2.4327
 6449TIP3   OH240761   5.599   5.073  10.914 -0.7589  0.0326  0.2585
 6449TIP3    H140762   5.683   5.095  10.955  0.2631  0.0034 -1.6955
 6449TIP3    H240763   5.548   5.154  10.918  0.9901  1.3902 -2.2121
 6450TIP3   OH240764   2.122   0.581   3.228  0.2247 -0.3957  0.4445
 6450TIP3    H140765   2.103   0.674   3.240  1.2482 -0.2326  0.8924
 6450TIP3    H240766   2.155   0.574   3.139 -0.4427 -0.4296  0.1995
 6451TIP3   OH240767   3.192   4.108  15.354  0.3460 -0.1203  0.2217
 6451TIP3    H140768   3.146   4.065  15.281 -0.8024 -1.8292  1.8497
 6451TIP3    H240769   3.209   4.197  15.322 -2.3471 -0.0078 -1.2439
 6452TIP3   OH240770   4.601   5.884   5.609  0.8218 -0.2936  0.0928
 6452TIP3    H140771   4.690   5.910   5.632  0.7410 -0.8198  1.0508
 6452TIP3    H240772   4.549   5.903   5.687 -0.0992  0.8570 -0.7613
 6453TIP3   OH240773   2.776   2.596   4.922  0.4411  0.0184  0.3209
 6453TIP3    H140774   2.711   2.555   4.864  1.0521  1.6038 -1.6160
 6453TIP3    H240775   2.727   2.617   5.001 -0.3543 -2.5679  0.6259
 6454TIP3   OH240776   0.520   3.151   2.573  0.3277  0.0094  0.5166
 6454TIP3    H140777   0.564   3.086   2.518 -0.5127 -0.9686  0.9647
 6454TIP3    H240778   0.536   3.121   2.662 -1.5072 -0.5703  0.6869
 6455TIP3   OH240779   4.903   3.819  11.935  0.6569 -0.4321 -0.9390
 6455TIP3    H140780   4.991   3.853  11.918  0.3948  0.8739  0.1815
 6455TIP3    H240781   4.918   3.735  11.978  1.3307 -0.7115 -1.6854
 6456TIP3   OH240782   3.056   0.978   6.216  0.0652 -0.2705 -0.2886
 6456TIP3    H140783   3.112   0.925   6.159 -1.1449 -0.7590 -1.0690
 6456TIP3    H240784   3.019   0.915   6.278  0.5646  0.0864  0.3710
 6457TIP3   OH240785   4.497   3.676   2.461 -0.8092 -0.6192 -0.5033
 6457TIP3    H140786   4.415   3.642   2.426 -1.2951 -0.6421  0.6031
 6457TIP3    H240787   4.555   3.600   2.467 -1.3872 -1.0048  0.5558
 6458TIP3   OH240788   0.253   3.971   0.325 -0.2029  0.3888 -0.7517
 6458TIP3    H140789   0.274   3.887   0.285 -2.2287 -0.6531  0.2349
 6458TIP3    H240790   0.164   3.991   0.294 -0.3409  1.3949  0.2268
 6459TIP3   OH240791   2.308   6.365   0.555 -0.1748 -0.6348 -0.4341
 6459TIP3    H140792   2.382   6.391   0.499  0.3004 -1.0107  0.0086
 6459TIP3    H240793   2.232   6.409   0.517  0.2331 -0.4648 -1.0628
 6460TIP3   OH240794   5.927   1.002  14.928 -0.1114  0.1801 -0.5931
 6460TIP3    H140795   5.883   1.077  14.967 -0.6094 -0.0374 -0.7356
 6460TIP3    H240796   5.995   1.041  14.872  0.3476  0.4966  0.1739
 6461TIP3   OH240797   4.050   4.259   6.080  0.3200 -0.2611 -0.5938
 6461TIP3    H140798   4.056   4.282   5.988  0.6731 -1.2293 -0.8276
 6461TIP3    H240799   4.134   4.218   6.100  0.3190  0.1134  0.2054
 6462TIP3   OH240800   1.396   3.472   3.101  0.1451 -0.3600  0.1581
 6462TIP3    H140801   1.335   3.456   3.029  0.5657  0.1532 -0.3181
 6462TIP3    H240802   1.361   3.549   3.145 -1.5889 -2.1320  2.1398
 6463TIP3   OH240803   4.570   4.204   3.860 -0.2909 -0.1150 -0.0115
 6463TIP3    H140804   4.547   4.113   3.845 -1.7055 -0.0140  1.2352
 6463TIP3    H240805   4.491   4.253   3.838  0.1331  0.7111  0.2437
 6464TIP3   OH240806   5.701   5.928   0.283  1.0456  0.0406 -0.1137
 6464TIP3    H140807   5.687   6.016   0.318  2.8645  0.4301 -0.2685
 6464TIP3    H240808   5.763   5.887   0.344 -1.1541 -1.8501  1.0004
 6465TIP3   OH240809   2.085   1.534   4.223 -0.4656 -0.0430  0.2410
 6465TIP3    H140810   2.064   1.560   4.312  0.8755 -0.6290  0.7581
 6465TIP3    H240811   2.109   1.441   4.230 -1.4241 -0.4004 -0.9146
 6466TIP3   OH240812   1.734   4.200  16.251 -0.0617  1.3162 -0.1146
 6466TIP3    H140813   1.752   4.107  16.264  1.1515  1.3568 -1.2748
 6466TIP3    H240814   1.660   4.218  16.308 -1.9597 -0.9213 -1.6930
 6467TIP3   OH240815   4.113   3.174  13.427  0.2186  0.0979  0.0419
 6467TIP3    H140816   4.044   3.239  13.440  0.2611 -0.0050  0.8433
 6467TIP3    H240817   4.074   3.109  13.369 -0.0547  0.4977 -0.2250
 6468TIP3   OH240818   3.945   1.506   3.059  0.3492 -0.0872  0.7037
 6468TIP3    H140819   3.882   1.449   3.103 -1.3765 -0.0248 -1.4980
 6468TIP3    H240820   3.903   1.591   3.057  0.0808 -0.2040 -1.4384
 6469TIP3   OH240821   4.630   1.965   4.066  0.0216  0.3435  0.0131
 6469TIP3    H140822   4.721   1.956   4.039  0.7318  0.6031  2.0806
 6469TIP3    H240823   4.614   2.059   4.067 -1.1095  0.2563 -2.6986
 6470TIP3   OH240824   4.985   1.778   2.790  1.0666 -0.0281 -0.0727
 6470TIP3    H140825   4.921   1.777   2.861  0.4527  0.5018 -0.6124
 6470TIP3    H240826   4.968   1.859   2.743  2.1987  0.1712 -0.1763
 6471TIP3   OH240827   1.663   5.607   1.083 -0.3437  0.1065 -0.2288
 6471TIP3    H140828   1.576   5.614   1.122 -0.3296  0.1369 -0.2032
 6471TIP3    H240829   1.712   5.682   1.119 -0.9216  1.3124 -1.8060
 6472TIP3   OH240830   1.405   5.056   0.261  0.7055 -0.5040 -0.3054
 6472TIP3    H140831   1.364   5.052   0.174 -1.1300  1.4405  0.3725
 6472TIP3    H240832   1.444   5.143   0.265  1.2207 -0.7693  0.6385
 6473TIP3   OH240833   4.485   0.011  12.986 -1.1746  0.0225  0.1212
 6473TIP3    H140834   4.529   0.004  12.901 -2.0048 -0.3904 -0.2812
 6473TIP3    H240835   4.423  -0.062  12.987 -3.2957  1.7407 -0.1654
 6474TIP3   OH240836   5.968   6.392  11.988  0.0351 -0.2933 -0.3783
 6474TIP3    H140837   6.056   6.384  12.026 -0.2678  0.5280  0.5186
 6474TIP3    H240838   5.982   6.440  11.906  0.4608 -0.4798 -0.4215
 6475TIP3   OH240839   1.150   2.594  11.553  0.6130  0.3074  0.5505
 6475TIP3    H140840   1.188   2.558  11.473  1.5724  0.7426  0.8016
 6475TIP3    H240841   1.064   2.626  11.526 -0.3059 -2.1768  0.3171
 6476TIP3   OH240842   3.490   1.120  16.454  0.7743  0.4761  0.4018
 6476TIP3    H140843   3.522   1.127  16.364 -1.5425  1.1191 -0.4473
 6476TIP3    H240844   3.456   1.031  16.462  3.2381 -0.4522  1.5308
 6477TIP3   OH240845   1.767   1.191  15.611 -0.5511  0.1265 -0.0703
 6477TIP3    H140846   1.792   1.282  15.595 -1.2560  0.4029  0.3269
 6477TIP3    H240847   1.822   1.140  15.552 -0.4505  0.8430 -0.6172
 6478TIP3   OH240848   5.846   3.908  15.528  0.0082 -0.1951 -0.1657
 6478TIP3    H140849   5.855   3.991  15.575 -0.1485 -0.7300  0.8129
 6478TIP3    H240850   5.900   3.920  15.449  1.6251  0.1151  0.9483
 6479TIP3   OH240851   1.912   0.373  15.421  0.2278  0.8699  0.0021
 6479TIP3    H140852   1.873   0.293  15.387  0.9176 -0.6286  2.4463
 6479TIP3    H240853   1.848   0.405  15.485  1.5128  0.1336  1.7449
 6480TIP3   OH240854   2.552   2.480  16.541 -0.1766 -0.3943 -0.2872
 6480TIP3    H140855   2.464   2.450  16.565  0.0968 -1.3714 -0.4641
 6480TIP3    H240856   2.549   2.491  16.446  0.0375 -0.9393 -0.3593
 6481TIP3   OH240857   0.859   2.605  13.307  0.0790  0.0322  0.3585
 6481TIP3    H140858   0.899   2.684  13.270  3.4694 -1.3255  0.7250
 6481TIP3    H240859   0.878   2.537  13.243 -1.4352 -0.8108  0.7626
 6482TIP3   OH240860   3.355   0.947  12.840  0.2044  0.4831  0.4802
 6482TIP3    H140861   3.390   0.858  12.832 -1.6636 -0.1360 -2.8914
 6482TIP3    H240862   3.264   0.934  12.865 -1.2675  0.9523 -3.8171
 6483TIP3   OH240863   2.856   2.576  15.311  0.6349 -0.0040  0.4574
 6483TIP3    H140864   2.860   2.513  15.383  1.8299 -0.1279  0.3038
 6483TIP3    H240865   2.899   2.531  15.238 -0.6535  0.0763 -0.3780
 6484TIP3   OH240866   3.846   4.946   0.057  0.2635 -0.2596 -0.2552
 6484TIP3    H140867   3.863   5.039   0.065  0.6324 -0.4099  0.9230
 6484TIP3    H240868   3.932   4.907   0.042  0.6971 -0.7198  2.7461
 6485TIP3   OH240869   2.717   2.243   0.306  0.3023 -0.3898  0.0386
 6485TIP3    H140870   2.728   2.176   0.239  0.6004  1.6561 -2.0863
 6485TIP3    H240871   2.624   2.264   0.304  0.3207 -0.2885  0.2104
 6486TIP3   OH240872   5.093   4.623   2.681 -0.3775  0.4620  0.2109
 6486TIP3    H140873   5.060   4.576   2.757 -0.1258  0.9764  0.6469
 6486TIP3    H240874   5.105   4.555   2.614 -2.5011  0.2790 -0.0600
 6487TIP3   OH240875   0.279   1.790  14.854  0.5815 -0.2661  0.8328
 6487TIP3    H140876   0.198   1.804  14.902  0.3616  1.2543  0.1102
 6487TIP3    H240877   0.298   1.876  14.815  0.5925 -1.4364 -1.9614
 6488TIP3   OH240878   3.739   5.793  10.938 -0.3629  0.2857  0.6335
 6488TIP3    H140879   3.649   5.798  10.971 -0.4230 -1.1946  0.7435
 6488TIP3    H240880   3.729   5.774  10.845 -0.1515  0.9843  0.4599
 6489TIP3   OH240881   3.245   3.153  15.428 -0.1318 -0.5549 -0.4453
 6489TIP3    H140882   3.261   3.244  15.401  0.6457 -1.0857 -1.8307
 6489TIP3    H240883   3.210   3.161  15.517  1.8714  1.0047  0.2789
 6490TIP3   OH240884   2.145   5.879   6.313  0.5338  0.2609 -0.0209
 6490TIP3    H140885   2.125   5.786   6.322  1.8510 -0.0601 -0.2674
 6490TIP3    H240886   2.146   5.913   6.402  2.4523 -0.5066  0.2952
 6491TIP3   OH240887   6.197   2.443  14.974 -0.2129 -0.7335  0.4987
 6491TIP3    H140888   6.144   2.374  14.934  0.9467 -1.0253 -0.6009
 6491TIP3    H240889   6.240   2.486  14.900  1.2841 -0.6759  1.3644
 6492TIP3   OH240890   6.357   2.952  15.245  0.0476  0.0162 -0.2272
 6492TIP3    H140891   6.319   2.865  15.260 -2.6976  1.4873  2.3268
 6492TIP3    H240892   6.316   2.983  15.165  0.2237 -0.6264 -0.5675
 6493TIP3   OH240893   5.934   4.721   3.733 -0.2415 -0.1595  0.1892
 6493TIP3    H140894   5.926   4.814   3.754 -0.2781 -0.1209  0.0051
 6493TIP3    H240895   6.027   4.708   3.715 -0.3478 -0.0119 -0.4711
 6494TIP3   OH240896   5.119   5.608   4.608  0.1484 -0.3551  0.4462
 6494TIP3    H140897   5.094   5.699   4.625 -1.7055 -0.8431  0.5613
 6494TIP3    H240898   5.125   5.568   4.695  0.6942 -0.4153  0.3835
 6495TIP3   OH240899   1.356   4.374  12.941  0.0152 -0.2635 -0.4778
 6495TIP3    H140900   1.362   4.279  12.952  1.4678 -0.2313 -0.8123
 6495TIP3    H240901   1.444   4.401  12.914  0.1546  1.4226  1.4044
 6496TIP3   OH240902   5.424   1.701   1.297 -0.2382  0.5390 -0.1986
 6496TIP3    H140903   5.359   1.663   1.356  0.2644 -1.2841 -0.7547
 6496TIP3    H240904   5.417   1.795   1.312 -3.7096  0.5619 -0.9415
 6497TIP3   OH240905   1.906   6.193   2.080  0.5832 -0.2338 -0.3642
 6497TIP3    H140906   1.967   6.267   2.078 -0.3214  0.5202 -2.3498
 6497TIP3    H240907   1.885   6.176   1.988 -0.0466 -2.3123  0.0910
 6498TIP3   OH240908   0.027   6.567  12.214  0.1037 -0.3109 -0.1244
 6498TIP3    H140909  -0.049   6.528  12.258 -0.8873  0.7090 -0.8642
 6498TIP3    H240910   0.093   6.575  12.283 -0.7458 -0.4709  0.7340
 6499TIP3   OH240911   0.933   0.678  11.851  0.2882  0.0756  0.3494
 6499TIP3    H140912   0.929   0.588  11.883 -0.5738 -0.0669 -0.1184
 6499TIP3    H240913   0.960   0.730  11.926  2.3263 -0.7480  0.2591
 6500TIP3   OH240914   4.353   3.855  13.450 -0.7617 -0.1308  0.2708
 6500TIP3    H140915   4.346   3.856  13.354  0.4365 -2.6359  0.0685
 6500TIP3    H240916   4.427   3.912  13.470 -0.2067 -0.5897 -0.4274
 6501TIP3   OH240917   4.307   1.465   1.671  0.1129  0.1483  0.3636
 6501TIP3    H140918   4.396   1.494   1.686 -0.3884  2.3270 -0.4675
 6501TIP3    H240919   4.296   1.469   1.576 -0.8341 -0.2163  0.4438
 6502TIP3   OH240920   3.423   2.344   3.737  0.4680  0.1949  0.4946
 6502TIP3    H140921   3.339   2.317   3.775  0.7111 -1.4246 -0.0595
 6502TIP3    H240922   3.484   2.275   3.763  1.3800  0.7839 -0.0490
 6503TIP3   OH240923   1.557   3.491  13.565 -0.6704 -0.0440  0.6500
 6503TIP3    H140924   1.490   3.527  13.623 -2.6107 -1.1496 -0.7953
 6503TIP3    H240925   1.546   3.540  13.483 -0.8281 -1.3282 -0.1219
 6504TIP3   OH240926   4.878   4.333   1.363 -0.2873  0.5394 -0.3058
 6504TIP3    H140927   4.848   4.423   1.377  0.0355  0.9543 -2.0313
 6504TIP3    H240928   4.947   4.340   1.297 -0.0077 -0.9403 -0.2182
 6505TIP3   OH240929   5.453   5.909   2.861  0.1298  0.2078 -0.1959
 6505TIP3    H140930   5.480   5.986   2.911  2.0043 -0.4597 -0.0891
 6505TIP3    H240931   5.391   5.864   2.918 -0.4304  1.2282  0.0417
 6506TIP3   OH240932   0.088   4.035  12.481 -0.0547  0.4576 -0.4510
 6506TIP3    H140933   0.151   4.053  12.412 -0.3482  1.1805 -0.5366
 6506TIP3    H240934   0.126   4.075  12.560  0.7841 -1.2482  0.0695
 6507TIP3   OH240935   6.060   0.013  11.606  0.1659 -0.3117 -0.3971
 6507TIP3    H140936   6.136   0.038  11.658  0.2773 -1.0116 -0.2112
 6507TIP3    H240937   6.058  -0.083  11.611 -1.7250 -0.2655  1.0778
 6508TIP3   OH240938   1.459   1.273  14.148  0.5018 -0.0616  0.0358
 6508TIP3    H140939   1.536   1.267  14.205  0.4120  2.2075  0.4797
 6508TIP3    H240940   1.418   1.355  14.172 -0.9553 -0.2648 -1.6005
 6509TIP3   OH240941   2.394   6.164   2.841  0.2924 -0.1463  0.2097
 6509TIP3    H140942   2.339   6.131   2.912  1.2943  1.1315  1.6628
 6509TIP3    H240943   2.446   6.089   2.813  0.7155 -0.4347  1.6799
 6510TIP3   OH240944   0.545   1.616  11.799  0.3572 -0.2948 -0.8835
 6510TIP3    H140945   0.482   1.574  11.741 -0.8320  1.6422 -1.0878
 6510TIP3    H240946   0.629   1.609  11.752 -0.5948  1.3905 -3.0317
 6511TIP3   OH240947   0.448   5.517   3.481  0.5070  0.3297 -0.3345
 6511TIP3    H140948   0.510   5.541   3.413 -0.7629 -1.6934 -2.3512
 6511TIP3    H240949   0.381   5.585   3.478  0.7113  0.5131 -0.7541
 6512TIP3   OH240950   1.668   6.116  15.723 -0.5336  0.0103 -0.1091
 6512TIP3    H140951   1.635   6.185  15.780 -1.1400  0.8079 -1.3718
 6512TIP3    H240952   1.593   6.059  15.707 -0.7877  0.6389 -1.2892
 6513TIP3   OH240953   1.581   6.151  13.314  0.2017  0.4349  0.7660
 6513TIP3    H140954   1.526   6.127  13.239  1.2143 -1.5057  0.5955
 6513TIP3    H240955   1.628   6.229  13.285 -0.7681  0.7918  0.0879
 6514TIP3   OH240956   3.112   5.198   5.907  0.0915  0.1984  0.1611
 6514TIP3    H140957   3.070   5.206   5.993 -0.7764  0.8862 -0.3122
 6514TIP3    H240958   3.190   5.253   5.913 -0.9322  1.7403 -0.0526
 6515TIP3   OH240959   6.374   0.383  11.708 -0.3088  0.0789 -0.2600
 6515TIP3    H140960   6.308   0.407  11.773  0.5620  0.9124  0.3615
 6515TIP3    H240961   6.376   0.457  11.647  0.6587  0.4996  0.2470
 6516TIP3   OH240962   3.295   6.290  12.022 -0.7599 -0.8281  0.4134
 6516TIP3    H140963   3.278   6.258  11.934 -2.5658 -0.6058  0.6361
 6516TIP3    H240964   3.379   6.335  12.016 -0.1784 -2.0532 -0.8419
 6517TIP3   OH240965   4.460   6.383   2.427 -0.7603 -1.0676 -0.8472
 6517TIP3    H140966   4.530   6.443   2.402 -1.5431  0.9994  1.5304
 6517TIP3    H240967   4.396   6.390   2.356 -0.8419  1.0072 -0.6333
 6518TIP3   OH240968   2.837   2.020   1.777  0.4237 -0.2429 -0.2341
 6518TIP3    H140969   2.805   1.930   1.775  2.2486 -0.9300 -0.3509
 6518TIP3    H240970   2.820   2.054   1.689 -0.6310 -0.3259 -0.0711
 6519TIP3   OH240971   3.195   0.286  16.064  0.8493  0.0754 -0.2582
 6519TIP3    H140972   3.101   0.295  16.050  0.7765 -0.9354 -0.4835
 6519TIP3    H240973   3.207   0.303  16.157  0.0812 -2.2811  0.3412
 6520TIP3   OH240974   6.398   5.383  16.533  0.1191 -0.1552 -0.0331
 6520TIP3    H140975   6.317   5.405  16.487  0.5130  0.1533 -0.5730
 6520TIP3    H240976   6.448   5.464  16.535  0.9761 -0.6524 -0.8218
 6521TIP3   OH240977   6.764   4.634  15.052 -0.4527 -0.5327  0.2138
 6521TIP3    H140978   6.749   4.549  15.010 -0.3472  0.3119 -1.5838
 6521TIP3    H240979   6.685   4.649  15.105 -0.7597 -1.4300  0.0242
 6522TIP3   OH240980   4.145   2.062  11.766 -0.3146  0.8658  0.2085
 6522TIP3    H140981   4.125   2.029  11.854  1.8559 -1.8123 -0.1710
 6522TIP3    H240982   4.198   2.140  11.782  1.1498 -0.2934  1.3993
 6523TIP3   OH240983   5.399   5.013  16.865  0.6922  0.1540 -0.2588
 6523TIP3    H140984   5.440   4.946  16.919  0.0845  0.5454  0.7105
 6523TIP3    H240985   5.472   5.052  16.816  1.3241  0.1028  0.6185
 6524TIP3   OH240986   2.683   3.011   0.993  0.8307 -0.2875 -0.5680
 6524TIP3    H140987   2.706   2.919   0.980  0.1886 -0.5262 -0.1025
 6524TIP3    H240988   2.602   3.008   1.045  0.7312  0.5368 -0.6627
 6525TIP3   OH240989   0.155   4.190   6.016  0.2982 -0.5534 -0.0046
 6525TIP3    H140990   0.248   4.211   6.004  0.6935 -0.4930  2.6626
 6525TIP3    H240991   0.151   4.094   6.015  0.3301 -0.5524 -0.4054
 6526TIP3   OH240992   1.461   2.013   6.014 -0.2295 -0.1912 -0.7050
 6526TIP3    H140993   1.489   2.027   6.105  1.4105  2.0299 -1.4382
 6526TIP3    H240994   1.383   1.959   6.020  1.4908 -2.6746  1.8514
 6527TIP3   OH240995   4.746   0.989  15.707  0.3492  0.4692  0.4239
 6527TIP3    H140996   4.794   0.971  15.626 -2.4395 -2.9247 -0.7480
 6527TIP3    H240997   4.708   1.075  15.694 -0.8333 -0.3590 -2.4388
 6528TIP3   OH240998   1.124   3.746  10.790 -0.1274 -0.3153 -0.3538
 6528TIP3    H140999   1.211   3.786  10.792 -0.0952 -0.3959  0.3604
 6528TIP3    H241000   1.137   3.658  10.825 -0.8483  0.4711  2.1733
 6529TIP3   OH241001   6.696   0.265   4.543 -0.3871 -0.3872 -0.0719
 6529TIP3    H141002   6.676   0.198   4.609 -0.7487 -0.6214 -0.4108
 6529TIP3    H241003   6.612   0.282   4.500 -0.1388 -0.3041 -0.5311
 6530TIP3   OH241004   5.635   4.095   5.149 -0.1416  0.1801 -0.0195
 6530TIP3    H141005   5.616   4.121   5.059 -1.2522  0.6169  0.3209
 6530TIP3    H241006   5.635   4.177   5.198 -0.1265 -0.1072  0.4663
 6531TIP3   OH241007   4.554   2.473   4.609 -0.5862  0.2983  0.7796
 6531TIP3    H141008   4.461   2.454   4.597 -0.8541  2.0636 -0.4166
 6531TIP3    H241009   4.598   2.416   4.546 -0.8662 -0.3589  1.1694
 6532TIP3   OH241010   6.073   1.410   5.596  0.0924 -0.4371  0.1051
 6532TIP3    H141011   6.143   1.457   5.642  0.0603  0.4957 -0.7578
 6532TIP3    H241012   5.995   1.428   5.647  0.4227 -1.2431  0.9129
 6533TIP3   OH241013   1.915   3.080  12.210  0.7517 -0.5941  0.5062
 6533TIP3    H141014   1.954   3.030  12.138 -1.0809 -0.7123 -0.4604
 6533TIP3    H241015   1.843   3.026  12.240  0.0490  0.5164  0.8692
 6534TIP3   OH241016   1.607   3.888  12.962  0.3344 -0.4467 -0.1190
 6534TIP3    H141017   1.553   3.966  12.972 -0.8065 -1.2603  0.3846
 6534TIP3    H241018   1.574   3.846  12.883  0.0422 -1.0627  0.3140
 6535TIP3   OH241019   0.759   1.618   3.688 -0.3756 -0.3426  0.2378
 6535TIP3    H141020   0.738   1.670   3.610 -0.8011  0.4887  0.8919
 6535TIP3    H241021   0.849   1.640   3.708 -0.5379  0.1062  0.4810
 6536TIP3   OH241022   0.014   3.954   2.333  0.5232 -0.0383  0.2523
 6536TIP3    H141023   0.017   3.911   2.419 -1.2132  0.7443  0.7716
 6536TIP3    H241024  -0.056   3.909   2.286 -1.8208  2.4588  1.0640
 6537TIP3   OH241025   3.566   1.277  13.432  0.2269 -0.5472 -0.2543
 6537TIP3    H141026   3.546   1.275  13.338  1.0177 -0.8884 -0.4232
 6537TIP3    H241027   3.611   1.193  13.448 -0.6251 -0.8578  0.5916
 6538TIP3   OH241028   2.812   4.623  12.671  0.2264 -0.1327  0.6116
 6538TIP3    H141029   2.789   4.581  12.754  1.2877 -0.9624  0.5058
 6538TIP3    H241030   2.759   4.578  12.605 -1.1795  1.0325  0.9032
 6539TIP3   OH241031   4.942   3.531  13.407 -0.1709  0.0897 -0.3974
 6539TIP3    H141032   5.026   3.575  13.402  0.3341 -0.9815 -2.5753
 6539TIP3    H241033   4.953   3.465  13.476  1.4209 -1.2098 -1.8031
 6540TIP3   OH241034   0.289   6.589  12.392  0.1916 -0.0550 -0.1092
 6540TIP3    H141035   0.261   6.632  12.474 -2.2462 -2.1297  0.2509
 6540TIP3    H241036   0.385   6.590  12.397  0.1661  1.8615  1.6694
 6541TIP3   OH241037   5.394   5.970  11.697  0.2524 -0.8661  0.0763
 6541TIP3    H141038   5.331   5.898  11.699 -1.4886  0.5956  0.5713
 6541TIP3    H241039   5.420   5.981  11.788  1.7356 -1.8258 -0.1916
 6542TIP3   OH241040   3.292   2.280  12.848 -0.3591 -0.0307  0.0051
 6542TIP3    H141041   3.320   2.239  12.930 -2.7894  1.1998  1.5800
 6542TIP3    H241042   3.235   2.215  12.808 -1.1260  0.2850  0.5589
 6543TIP3   OH241043   2.702   2.728   1.918 -0.4134  0.7074  0.1551
 6543TIP3    H141044   2.701   2.816   1.881 -0.9789 -0.1191 -1.9917
 6543TIP3    H241045   2.771   2.730   1.985  0.7495  2.3431 -1.0085
 6544TIP3   OH241046   0.071   4.211  14.411 -0.1411 -0.4962  0.0285
 6544TIP3    H141047  -0.010   4.233  14.457 -0.2647 -0.2441 -0.3073
 6544TIP3    H241048   0.091   4.122  14.439 -1.0031 -0.8727 -0.5545
 6545TIP3   OH241049   4.404   0.104  13.680 -0.5578 -0.8720  0.4677
 6545TIP3    H141050   4.459   0.174  13.645  0.1524 -2.3585 -1.5716
 6545TIP3    H241051   4.460   0.058  13.742 -0.3233 -0.8778  0.2533
 6546TIP3   OH241052   2.980   0.136   2.950 -0.0290  0.0180  0.1837
 6546TIP3    H141053   3.014   0.225   2.936 -0.0791 -0.0773 -0.6237
 6546TIP3    H241054   3.000   0.116   3.041 -0.2212  0.9519  0.4433
 6547TIP3   OH241055   0.559   4.510   0.477  0.1025 -0.4824 -0.6454
 6547TIP3    H141056   0.500   4.494   0.551  0.3959 -0.6904 -0.4572
 6547TIP3    H241057   0.647   4.503   0.514  0.2918  2.5709 -0.3372
 6548TIP3   OH241058   1.817   6.072  12.473 -0.1325 -0.4531 -0.1383
 6548TIP3    H141059   1.735   6.025  12.490  0.0452 -0.8319 -0.3461
 6548TIP3    H241060   1.883   6.023  12.521  0.1314 -0.6857 -0.7362
 6549TIP3   OH241061   3.317   2.059   6.520  0.6006 -0.3132 -0.6780
 6549TIP3    H141062   3.370   2.106   6.456 -0.8702 -0.4739 -2.0829
 6549TIP3    H241063   3.300   1.974   6.480 -0.6366 -0.2958 -0.2599
 6550TIP3   OH241064   5.470   1.838  14.988 -0.2826 -0.0493 -0.2028
 6550TIP3    H141065   5.481   1.761  15.044  0.4103  0.5420  0.4982
 6550TIP3    H241066   5.375   1.851  14.983 -0.3808 -0.6263  0.1117
 6551TIP3   OH241067   4.983   5.834  12.953  0.3145 -0.5281 -0.0523
 6551TIP3    H141068   4.926   5.910  12.943  0.1735 -0.6865 -0.4557
 6551TIP3    H241069   5.070   5.866  12.928  0.3485 -0.3714  0.2572
 6552TIP3   OH241070   0.726   4.199  15.619 -0.4656  0.6627 -0.1700
 6552TIP3    H141071   0.650   4.257  15.612 -1.4755 -0.8065 -2.7425
 6552TIP3    H241072   0.785   4.227  15.549  0.8126  0.9487  0.9782
 6553TIP3   OH241073   6.517   5.614  12.800 -0.0227  0.6286  0.0046
 6553TIP3    H141074   6.605   5.591  12.830 -0.3775  0.6017  1.0680
 6553TIP3    H241075   6.466   5.534  12.812 -0.2434  0.6978 -0.4391
 6554TIP3   OH241076   1.734   4.441  16.436 -0.3803 -0.0715 -0.1359
 6554TIP3    H141077   1.655   4.457  16.487 -0.9297  0.4190 -1.1014
 6554TIP3    H241078   1.772   4.363  16.474 -0.5729  0.4789  1.2487
 6555TIP3   OH241079   0.522   1.002  11.548 -0.0361 -0.0736 -0.2963
 6555TIP3    H141080   0.515   0.937  11.478 -0.1072 -0.8682  0.4268
 6555TIP3    H241081   0.503   0.953  11.628 -0.3460  0.9032  0.2446
 6556TIP3   OH241082   6.390   1.599  16.774 -0.2050  0.2490 -0.3310
 6556TIP3    H141083   6.328   1.572  16.707 -0.4394  0.4323 -0.1910
 6556TIP3    H241084   6.380   1.694  16.779  0.0425  0.2735 -0.2642
 6557TIP3   OH241085   3.796   1.648  12.581  0.6016  0.3093 -0.0098
 6557TIP3    H141086   3.839   1.694  12.653  3.3629 -2.3741  0.2577
 6557TIP3    H241087   3.842   1.679  12.503 -0.2052  0.8434 -0.2816
 6558TIP3   OH241088   1.950   3.809   1.385 -0.6007 -0.3925 -0.4074
 6558TIP3    H141089   1.870   3.757   1.381  0.1827 -1.6812 -0.1249
 6558TIP3    H241090   2.020   3.744   1.377  0.4098  0.7675 -1.2842
 6559TIP3   OH241091   3.310   4.671   5.878  0.1563 -0.3447 -0.1755
 6559TIP3    H141092   3.346   4.680   5.967  0.6347 -0.1089 -0.3925
 6559TIP3    H241093   3.224   4.630   5.892  0.7856 -1.5453  0.2991
 6560TIP3   OH241094   1.565   3.754  14.462 -0.1919 -0.0309 -0.1985
 6560TIP3    H141095   1.477   3.717  14.462 -0.0451 -0.4063  0.7121
 6560TIP3    H241096   1.620   3.684  14.496  0.9564 -0.8432 -3.3925
 6561TIP3   OH241097   2.520   3.105   1.568 -0.3327  0.2454 -0.7025
 6561TIP3    H141098   2.545   3.189   1.607  1.6368 -0.3840 -0.4903
 6561TIP3    H241099   2.528   3.119   1.474  1.9712 -0.2120 -0.6228
 6562TIP3   OH241100   6.109   4.837  13.215 -0.5497 -0.9364  0.5470
 6562TIP3    H141101   6.203   4.827  13.201 -0.3706  0.0344  0.9108
 6562TIP3    H241102   6.068   4.800  13.137  0.3010  2.5778 -1.8459
 6563TIP3   OH241103   2.260   6.518   1.675 -0.6650  0.1380 -0.0607
 6563TIP3    H141104   2.315   6.564   1.612 -0.2108 -0.1336  0.1273
 6563TIP3    H241105   2.171   6.548   1.657 -0.3947  1.0060 -0.0050
 6564TIP3   OH241106   3.839   0.080   5.909  0.4497 -0.2206 -0.0085
 6564TIP3    H141107   3.842   0.100   6.002  1.3127 -0.0398 -0.0691
 6564TIP3    H241108   3.835  -0.016   5.905  1.6688 -0.2988  0.2100
 6565TIP3   OH241109   3.938   0.495  10.774 -0.1376 -0.1766  0.1406
 6565TIP3    H141110   3.863   0.552  10.794  1.3581  1.5666  1.0658
 6565TIP3    H241111   4.014   0.554  10.777  1.3754 -2.0554  0.0801
 6566TIP3   OH241112   5.595   2.077  12.112 -0.4940 -0.2086  0.5557
 6566TIP3    H141113   5.615   1.997  12.160  0.7113  0.6771  1.5818
 6566TIP3    H241114   5.572   2.047  12.024 -0.4633 -1.6943  1.0269
 6567TIP3   OH241115   6.758   1.371   1.838  0.0092 -0.1331 -0.4845
 6567TIP3    H141116   6.707   1.439   1.793 -0.0036  0.1738 -0.0056
 6567TIP3    H241117   6.780   1.309   1.768  0.1149  0.4141 -0.9538
 6568TIP3   OH241118   1.118   6.680  16.787 -0.2561 -0.0482  0.1523
 6568TIP3    H141119   1.061   6.724  16.724  0.1522 -0.1332 -0.2815
 6568TIP3    H241120   1.144   6.599  16.744  2.8651  1.4528 -1.1091
 6569TIP3   OH241121   3.973   1.000   3.792 -0.6343  0.2979 -0.2166
 6569TIP3    H141122   3.910   0.935   3.760 -0.4276 -0.3375  0.6489
 6569TIP3    H241123   4.002   1.046   3.712  1.2059 -2.4234 -1.2608
 6570TIP3   OH241124   4.436   1.974  14.981 -0.5160  1.1342 -0.0954
 6570TIP3    H141125   4.366   1.985  15.046  0.7477  0.8945  1.3485
 6570TIP3    H241126   4.484   2.057  14.983  0.4434  0.5804  0.4018
 6571TIP3   OH241127   4.903   5.552   3.734  0.1183 -0.7455  0.1349
 6571TIP3    H141128   4.961   5.581   3.663 -0.2788 -1.0864 -0.3304
 6571TIP3    H241129   4.927   5.608   3.809  0.0151  0.1371 -0.4779
 6572TIP3   OH241130   2.948   3.851  16.802 -0.4096 -0.3869 -0.0814
 6572TIP3    H141131   2.977   3.761  16.817 -1.0837 -0.6516 -0.3140
 6572TIP3    H241132   2.855   3.849  16.825 -1.6151 -0.8490 -4.2785
 6573TIP3   OH241133   5.260   1.387   2.947 -0.3592 -0.3302  0.6056
 6573TIP3    H141134   5.355   1.377   2.952 -0.4117 -1.5908 -0.4647
 6573TIP3    H241135   5.227   1.299   2.927 -1.6102  0.4275 -0.8295
 6574TIP3   OH241136   1.914   2.878   1.584  0.2009  0.0426  0.1669
 6574TIP3    H141137   2.006   2.902   1.600 -0.1014  1.7728 -0.5181
 6574TIP3    H241138   1.865   2.959   1.599 -1.3722 -1.1073  1.5935
 6575TIP3   OH241139   5.926   1.213   3.200  0.0293 -0.4003  0.6569
 6575TIP3    H141140   5.898   1.242   3.286  2.1618 -1.5294  1.8135
 6575TIP3    H241141   5.860   1.249   3.140 -1.2963  0.7470  2.6744
 6576TIP3   OH241142   5.981   3.845   5.047 -0.0559  0.0667  0.2094
 6576TIP3    H141143   5.961   3.783   5.117 -1.0020 -0.9649 -0.9318
 6576TIP3    H241144   5.964   3.931   5.085  1.9209 -0.2677  2.0390
 6577TIP3   OH241145   3.730   4.751   2.636  0.3138  0.7899 -0.2059
 6577TIP3    H141146   3.644   4.717   2.657 -0.2504  1.9147 -0.6150
 6577TIP3    H241147   3.740   4.829   2.690  1.3001  0.3742  0.2321
 6578TIP3   OH241148   2.590   3.171  12.463  0.0288 -0.0429 -0.2276
 6578TIP3    H141149   2.574   3.125  12.545  0.5366 -0.5571 -0.4061
 6578TIP3    H241150   2.555   3.113  12.396  1.0651 -0.3997 -0.4883
 6579TIP3   OH241151   0.007   2.745  10.676  0.3166 -0.1809  0.6493
 6579TIP3    H141152   0.052   2.807  10.733 -1.6091  0.6721  1.3087
 6579TIP3    H241153  -0.086   2.767  10.685 -0.3429 -2.5487  0.1444
 6580TIP3   OH241154   3.060   1.226  16.142 -0.3165  0.1791 -0.2824
 6580TIP3    H141155   3.120   1.169  16.094 -2.3398 -1.8204 -0.6205
 6580TIP3    H241156   3.033   1.175  16.219 -0.7858  1.4314  0.4324
 6581TIP3   OH241157   6.241   1.515   5.374 -0.1667  0.4354 -0.2065
 6581TIP3    H141158   6.297   1.531   5.451 -0.4216 -0.0216  0.0770
 6581TIP3    H241159   6.167   1.466   5.409 -0.2680  0.1945 -0.7560
 6582TIP3   OH241160   4.027   3.212   3.281 -0.3483  0.2076  0.2206
 6582TIP3    H141161   3.973   3.227   3.203  0.0481  0.5422  0.0057
 6582TIP3    H241162   4.103   3.164   3.249 -0.3142  0.1051  0.4507
 6583TIP3   OH241163   6.032   2.657  14.234  0.1158 -0.1002  0.5160
 6583TIP3    H141164   6.067   2.745  14.218  0.2551 -0.4447 -1.1907
 6583TIP3    H241165   5.992   2.631  14.151  0.2582 -1.7388  0.9300
 6584TIP3   OH241166   4.458   1.004   1.516 -0.1317 -0.5968 -0.0751
 6584TIP3    H141167   4.394   1.024   1.585  0.4270  1.6572 -0.1418
 6584TIP3    H241168   4.532   0.967   1.564 -0.2219 -0.1712  0.4151
 6585TIP3   OH241169   4.247   1.102   1.709 -0.3864  0.1156 -0.5333
 6585TIP3    H141170   4.310   1.081   1.778  0.6444 -0.2099 -1.5394
 6585TIP3    H241171   4.173   1.140   1.755  1.3323  2.4068  0.5278
 6586TIP3   OH241172   1.596   0.048  13.247 -0.2360 -0.1719 -0.0582
 6586TIP3    H141173   1.572  -0.037  13.283  4.1842 -0.4116  3.2050
 6586TIP3    H241174   1.553   0.112  13.303 -0.6932 -0.3335 -0.2242
 6587TIP3   OH241175   4.595   2.403  16.586 -0.7952 -0.0032 -0.0207
 6587TIP3    H141176   4.632   2.402  16.498  0.0060 -2.0224  0.2883
 6587TIP3    H241177   4.597   2.495  16.611 -0.7801  0.5812 -1.9788
 6588TIP3   OH241178   2.406   4.065   0.221  0.2527  0.8566 -0.2379
 6588TIP3    H141179   2.340   4.130   0.244 -0.7269  0.0245 -0.6624
 6588TIP3    H241180   2.388   4.043   0.130  1.3871  0.9255 -0.4908
 6589TIP3   OH241181   3.719   0.849   3.318  0.0636  0.5362 -0.1384
 6589TIP3    H141182   3.704   0.942   3.302  0.8463  0.2489 -2.9273
 6589TIP3    H241183   3.782   0.848   3.391  0.0125  2.1759 -0.0330
 6590TIP3   OH241184   6.661   4.922  12.361  0.1913 -0.3954 -0.0173
 6590TIP3    H141185   6.695   4.920  12.272 -1.0245  0.1870 -0.5164
 6590TIP3    H241186   6.638   5.014  12.376 -0.3501 -0.6241  0.6019
 6591TIP3   OH241187   4.368   4.622   0.750  0.1170 -0.0411 -0.1507
 6591TIP3    H141188   4.452   4.622   0.703 -0.4061 -1.6331 -1.1578
 6591TIP3    H241189   4.310   4.673   0.693  0.2407  0.5717  0.2636
 6592TIP3   OH241190   3.587   4.461  12.203  0.1459 -0.4793 -0.2253
 6592TIP3    H141191   3.539   4.392  12.157  1.1313 -0.3968 -1.4252
 6592TIP3    H241192   3.630   4.511  12.134  1.6407 -0.3160  0.7652
 6593TIP3   OH241193   2.547   2.520   1.358 -0.1970 -0.3494 -0.5452
 6593TIP3    H141194   2.588   2.470   1.427 -0.4977  0.2337  0.0665
 6593TIP3    H241195   2.461   2.544   1.393 -0.2781  0.1124 -1.0379
 6594TIP3   OH241196   3.877   5.125   6.030  0.6913 -0.1450 -0.1355
 6594TIP3    H141197   3.916   5.046   6.068 -1.1549 -0.1687  1.8475
 6594TIP3    H241198   3.902   5.196   6.089  1.6410  0.6849 -1.4570
 6595TIP3   OH241199   2.417   5.610   5.377 -0.0108 -0.4427 -0.1521
 6595TIP3    H141200   2.443   5.530   5.331 -1.3447 -0.6854 -0.5038
 6595TIP3    H241201   2.325   5.621   5.356 -0.1247  0.5786  0.8130
 6596TIP3   OH241202   3.652   1.696   0.335 -0.8422 -0.6401 -0.0033
 6596TIP3    H141203   3.726   1.747   0.368 -0.0005 -1.2950 -0.8079
 6596TIP3    H241204   3.677   1.605   0.351 -0.8128 -0.9344 -1.5280
 6597TIP3   OH241205   5.958   3.238   0.129  0.1048 -0.2015 -0.2124
 6597TIP3    H141206   5.959   3.142   0.133 -0.6880 -0.1823  0.5598
 6597TIP3    H241207   6.017   3.265   0.199  1.1921 -0.1169 -1.1216
 6598TIP3   OH241208   5.627   3.116   0.189 -0.0063  0.2470  0.6785
 6598TIP3    H141209   5.644   3.160   0.272  0.5047  0.1715  0.6168
 6598TIP3    H241210   5.685   3.158   0.126 -0.4657  0.3754  0.3306
 6599TIP3   OH241211   3.363   5.325   1.021 -0.2533  0.3458  0.3760
 6599TIP3    H141212   3.308   5.274   0.961  0.0256  0.3026  0.1482
 6599TIP3    H241213   3.369   5.412   0.980 -0.9103  0.6300  0.8789
 6600TIP3   OH241214   6.215   4.157  11.453 -0.6765  0.5425  0.2064
 6600TIP3    H141215   6.212   4.113  11.538  2.4902  0.4514  0.3620
 6600TIP3    H241216   6.268   4.235  11.467  1.4302 -0.3774 -1.9729
 6601TIP3   OH241217   3.224   4.833   5.208 -0.4828 -0.2674 -0.4325
 6601TIP3    H141218   3.197   4.860   5.296  1.0179 -0.1636  0.0277
 6601TIP3    H241219   3.299   4.774   5.222  1.7561  2.0630 -1.6507
 6602TIP3   OH241220   2.148   6.271   4.130  0.1000  0.0556  0.6132
 6602TIP3    H141221   2.096   6.320   4.194  1.9310  1.9394  0.7820
 6602TIP3    H241222   2.116   6.303   4.045 -0.3587 -0.2895  0.6506
 6603TIP3   OH241223   6.484   2.531   0.822  0.4155  0.2655  0.2469
 6603TIP3    H141224   6.392   2.556   0.817  0.3572  0.0034 -0.0384
 6603TIP3    H241225   6.486   2.455   0.881  0.5145  0.5713  0.6416
 6604TIP3   OH241226   3.420   2.946  10.782 -0.0883 -0.2507 -0.3147
 6604TIP3    H141227   3.338   2.918  10.742 -0.1525  0.0814 -0.4265
 6604TIP3    H241228   3.466   2.992  10.711  0.4104 -0.8529 -0.3918
 6605TIP3   OH241229   5.422   4.152   0.727 -0.4190  0.0737  0.3851
 6605TIP3    H141230   5.455   4.062   0.729 -2.1095 -0.5908  0.4837
 6605TIP3    H241231   5.451   4.190   0.810  0.2591 -0.4045  0.3752
 6606TIP3   OH241232   5.370   4.009   4.689  0.2250  0.0801 -0.2358
 6606TIP3    H141233   5.387   3.915   4.684  0.8261  0.1887 -0.3339
 6606TIP3    H241234   5.431   4.047   4.626 -0.9071  0.4329 -1.1525
 6607TIP3   OH241235   0.925   4.416  13.705 -0.3432 -0.1926 -0.1664
 6607TIP3    H141236   0.929   4.422  13.610  1.2607  3.4158 -0.0290
 6607TIP3    H241237   0.832   4.425  13.726 -0.5505  0.7248 -1.3725
 6608TIP3   OH241238   5.070   1.658  10.992 -0.5226 -0.5599  0.6047
 6608TIP3    H141239   5.126   1.715  10.939 -0.3937 -0.1868  1.1407
 6608TIP3    H241240   5.120   1.576  11.000 -0.5674 -0.6427  0.1109
 6609TIP3   OH241241   2.117   3.829   0.804 -0.3438 -0.2621 -0.7530
 6609TIP3    H141242   2.177   3.904   0.813  0.3992 -1.0105  0.8727
 6609TIP3    H241243   2.056   3.837   0.877 -0.5829 -0.9495 -0.8675
 6610TIP3   OH241244   3.911   6.656   2.897  0.2831  0.2486  0.2127
 6610TIP3    H141245   3.985   6.676   2.840 -0.1301 -0.0241 -0.4384
 6610TIP3    H241246   3.935   6.691   2.983  0.0726  2.4899 -0.5813
 6611TIP3   OH241247   5.221   5.066   5.270  0.3367 -0.5678 -0.7180
 6611TIP3    H141248   5.213   5.105   5.182  0.4092  0.3655 -0.3222
 6611TIP3    H241249   5.250   4.977   5.254  1.2145 -0.1399 -1.6154
 6612TIP3   OH241250   0.908   3.369   1.407  0.3458 -0.8228 -0.3631
 6612TIP3    H141251   0.919   3.449   1.459 -0.5015 -0.3563 -0.8843
 6612TIP3    H241252   0.825   3.333   1.436  0.4919 -1.2625 -0.4799
 6613TIP3   OH241253   6.420   2.226   1.902  0.3861  0.0166  0.2815
 6613TIP3    H141254   6.463   2.250   1.984 -0.4086  0.4465  0.5886
 6613TIP3    H241255   6.332   2.200   1.929  0.1986 -0.0787 -0.4150
 6614TIP3   OH241256   4.740   0.671  17.324 -0.0339 -0.1228 -0.1161
 6614TIP3    H141257   4.749   0.763  17.299 -3.8911  1.4013  2.9426
 6614TIP3    H241258   4.779   0.665  17.410  0.1317 -1.3710 -0.2565
 6615TIP3   OH241259   4.125   5.090  17.072 -0.8333 -0.2773  0.1640
 6615TIP3    H141260   4.198   5.059  17.127 -3.1873 -3.2412  1.9377
 6615TIP3    H241261   4.137   5.045  16.989 -1.0403 -1.4845  0.7580
 6616TIP3   OH241262   6.529   5.308   3.725  0.3484 -0.5216  0.5197
 6616TIP3    H141263   6.593   5.238   3.721  0.3019 -0.6646  1.8652
 6616TIP3    H241264   6.533   5.340   3.815 -1.6654 -0.7275  0.7259
 6617TIP3   OH241265   1.646   3.288  17.296  0.1961 -0.4732 -0.4074
 6617TIP3    H141266   1.660   3.206  17.249  1.6721  0.4638 -1.7160
 6617TIP3    H241267   1.680   3.355  17.237  0.4042  0.9498  1.2512
 6618TIP3   OH241268   2.502   3.473   2.951 -0.2704 -0.0198 -0.1375
 6618TIP3    H141269   2.571   3.416   2.987  0.4139 -1.3430 -3.2369
 6618TIP3    H241270   2.426   3.415   2.941 -1.0561  0.7969  0.8364
 6619TIP3   OH241271   0.903   2.426  11.310  0.0768  0.1870 -0.4158
 6619TIP3    H141272   0.856   2.372  11.248 -0.3436  0.7190 -0.5637
 6619TIP3    H241273   0.977   2.371  11.338 -1.2674 -1.1229  0.7291
 6620TIP3   OH241274   0.362   1.507  12.818  0.0869 -0.5062  0.2982
 6620TIP3    H141275   0.368   1.592  12.776 -2.4346 -0.8099 -0.8452
 6620TIP3    H241276   0.380   1.444  12.749 -1.8820 -0.9500  0.1240
 6621TIP3   OH241277   6.643   1.998   5.057 -0.3719  0.0370  0.4854
 6621TIP3    H141278   6.567   1.946   5.030 -1.0936 -0.3255  2.9102
 6621TIP3    H241279   6.668   2.048   4.979 -2.7541 -0.2480 -0.5437
 6622TIP3   OH241280   2.267   3.458   3.634  0.4934  0.2941  0.4537
 6622TIP3    H141281   2.244   3.477   3.726  0.6241 -1.2631  0.8303
 6622TIP3    H241282   2.362   3.450   3.635  0.3633 -1.8265  0.6510
 6623TIP3   OH241283   2.304   0.003   4.173  0.4565  0.3407  0.2127
 6623TIP3    H141284   2.256   0.050   4.105 -2.4659  1.0750  2.5842
 6623TIP3    H241285   2.299  -0.089   4.146 -2.9099  0.3202  0.5796
 6624TIP3   OH241286   5.530   2.346  13.781  0.1442  1.2123 -0.2447
 6624TIP3    H141287   5.473   2.310  13.712  0.6696  0.2606 -0.2046
 6624TIP3    H241288   5.563   2.269  13.827 -0.6193  1.8465  1.4459
 6625TIP3   OH241289   0.397   3.989   1.709 -0.6776  0.6393 -0.2573
 6625TIP3    H141290   0.358   4.036   1.635 -1.2872  1.1187  0.3499
 6625TIP3    H241291   0.489   3.976   1.684 -0.6048  1.7663 -0.6318
 6626TIP3   OH241292   5.494   5.723  13.866  0.4772  0.2899 -0.4865
 6626TIP3    H141293   5.532   5.804  13.902 -0.7288  0.4629  0.4860
 6626TIP3    H241294   5.530   5.654  13.921 -1.9079  0.6145  1.7104
 6627TIP3   OH241295   3.460   6.090   2.627 -0.3255  0.2107  0.4785
 6627TIP3    H141296   3.521   6.052   2.564 -1.2884 -1.3769  0.4596
 6627TIP3    H241297   3.499   6.071   2.713 -1.2356 -1.7149  0.5129
 6628TIP3   OH241298   5.025   5.454  13.966 -0.1167 -0.4128 -0.1844
 6628TIP3    H141299   5.074   5.414  13.894 -1.0809  0.4652 -1.3663
 6628TIP3    H241300   4.935   5.423  13.954 -0.4612  0.4346  0.1324
 6629TIP3   OH241301   5.343   3.516   3.953 -0.1107  0.2401 -0.4201
 6629TIP3    H141302   5.259   3.478   3.926  0.1383 -1.0098  0.4652
 6629TIP3    H241303   5.405   3.486   3.888 -0.0522 -0.2740 -0.1350
 6630TIP3   OH241304   0.121   2.866  15.677  0.2950 -0.5427 -0.9899
 6630TIP3    H141305   0.050   2.890  15.617 -0.4674  0.0213  0.1113
 6630TIP3    H241306   0.089   2.789  15.723  0.7920 -0.8494 -1.1525
 6631TIP3   OH241307   0.014   0.692  16.469  0.1360  0.2182 -0.1307
 6631TIP3    H141308  -0.063   0.647  16.434  1.0842 -1.3614 -0.2795
 6631TIP3    H241309   0.083   0.625  16.471  1.1821  1.2630  1.1433
 6632TIP3   OH241310   4.312   0.398  14.811 -0.1169  0.2741 -0.0956
 6632TIP3    H141311   4.222   0.382  14.783  0.2265 -1.5531 -0.3046
 6632TIP3    H241312   4.304   0.458  14.885 -1.4722  0.4595 -0.3651
 6633TIP3   OH241313   6.591   5.684   4.598  0.2349 -0.5001  0.2377
 6633TIP3    H141314   6.671   5.652   4.555  0.0518  0.3474 -0.7380
 6633TIP3    H241315   6.601   5.779   4.600 -2.3124  0.0095 -3.1443
 6634TIP3   OH241316   3.526   6.527   0.760  0.3262 -0.0433  0.4919
 6634TIP3    H141317   3.530   6.618   0.730 -1.7462 -0.2239 -0.4727
 6634TIP3    H241318   3.595   6.483   0.710 -0.9784  0.3212 -1.7936
 6635TIP3   OH241319   3.366   5.737   2.073  0.7547 -0.0345  0.2874
 6635TIP3    H141320   3.328   5.649   2.073  0.7514 -0.0332  0.4646
 6635TIP3    H241321   3.410   5.744   2.158  1.2552 -0.0791  0.0326
 6636TIP3   OH241322   0.292   5.370  17.216 -0.3589 -0.0913 -0.2601
 6636TIP3    H141323   0.203   5.342  17.241 -0.6227 -0.1346 -1.1850
 6636TIP3    H241324   0.346   5.292  17.229 -0.3170  0.1219  0.9370
 6637TIP3   OH241325   6.207   1.044   5.397 -0.0769  0.2929  0.5728
 6637TIP3    H141326   6.265   1.038   5.473  1.4066 -1.6565 -0.6199
 6637TIP3    H241327   6.177   0.955   5.383  0.5384  0.3813 -1.7143
 6638TIP3   OH241328   4.614   5.835  12.310 -0.0638 -0.4740  0.3369
 6638TIP3    H141329   4.541   5.897  12.300  0.9245  0.6477 -0.1240
 6638TIP3    H241330   4.582   5.770  12.372 -2.2147 -1.1716 -1.3620
 6639TIP3   OH241331   0.041   1.101  16.925  0.0085 -0.5641  0.2298
 6639TIP3    H141332   0.059   1.089  17.018 -2.9130  0.9811  1.1093
 6639TIP3    H241333  -0.048   1.068  16.912 -0.7529  1.8115 -1.3255
 6640TIP3   OH241334   0.150   3.015   4.819 -0.1305  0.2852  0.2890
 6640TIP3    H141335   0.068   3.009   4.867  0.4160  0.5842  1.2731
 6640TIP3    H241336   0.219   3.008   4.885  0.6455  0.0651 -0.5118
 6641TIP3   OH241337   4.500   5.333   4.562 -0.4724 -0.5106 -0.5448
 6641TIP3    H141338   4.547   5.410   4.595 -0.3102 -0.4837 -0.8349
 6641TIP3    H241339   4.436   5.313   4.630 -0.1066 -0.4861 -0.1898
 6642TIP3   OH241340   2.309   0.413  16.204 -0.0570 -0.2053 -0.4564
 6642TIP3    H141341   2.285   0.321  16.217 -1.4198  0.3429  1.3057
 6642TIP3    H241342   2.286   0.456  16.286  0.0134  1.8294 -1.4272
 6643TIP3   OH241343   4.276   3.036   3.252 -0.2570  0.0177  0.6749
 6643TIP3    H141344   4.243   2.951   3.282  0.1588 -0.4338 -0.1240
 6643TIP3    H241345   4.357   3.015   3.206 -1.3279  0.5363 -1.5980
 6644TIP3   OH241346   5.987   6.010  15.688  0.4788  0.4312  0.5435
 6644TIP3    H141347   6.051   6.069  15.729 -0.0191  0.7951  0.8125
 6644TIP3    H241348   5.908   6.063  15.681 -0.2733 -0.4961  1.6703
 6645TIP3   OH241349   5.482   2.066  15.530 -0.1650  0.3256 -0.2346
 6645TIP3    H141350   5.453   2.036  15.616  1.5784 -2.4864 -0.5132
 6645TIP3    H241351   5.575   2.087  15.542  0.8280 -2.5794 -1.8569
 6646TIP3   OH241352   5.520   4.251  14.311  0.1955  0.0024 -0.3464
 6646TIP3    H141353   5.540   4.316  14.378 -1.2859 -0.0610  0.1827
 6646TIP3    H241354   5.500   4.301  14.233 -0.2569  0.1689 -0.1281
 6647TIP3   OH241355   5.402   2.580  14.948 -0.1745  0.1784 -0.3167
 6647TIP3    H141356   5.415   2.663  14.902 -0.1636  0.7155  0.6246
 6647TIP3    H241357   5.425   2.600  15.039 -0.8736 -0.6733  0.0570
 6648TIP3   OH241358   1.282   6.205   4.087 -0.4502 -0.5646  0.5352
 6648TIP3    H141359   1.367   6.240   4.113 -1.1361  0.4102  1.5847
 6648TIP3    H241360   1.302   6.127   4.036  1.0539 -0.5671  1.0891
 6649TIP3   OH241361   3.713   5.432  13.836 -0.1400  0.2431 -0.2459
 6649TIP3    H141362   3.687   5.342  13.852 -1.1192  0.5061 -0.2925
 6649TIP3    H241363   3.739   5.435  13.744 -1.8487  0.3815 -0.7626
 6650TIP3   OH241364   2.136   4.424   3.458 -0.3444  0.0052  0.3292
 6650TIP3    H141365   2.150   4.338   3.418 -0.6337  0.1389 -0.0699
 6650TIP3    H241366   2.185   4.485   3.403 -2.7556  0.5531 -1.4120
 6651TIP3   OH241367   4.103   1.313   1.781  0.2820 -0.1782  0.1945
 6651TIP3    H141368   4.084   1.329   1.874 -0.4241 -1.6524  0.3343
 6651TIP3    H241369   4.181   1.365   1.764 -1.3739  2.6953  0.7452
 6652TIP3   OH241370   2.858   2.455  13.900 -0.1166  0.0860 -0.5259
 6652TIP3    H141371   2.945   2.436  13.867 -0.0167 -0.7222  0.1586
 6652TIP3    H241372   2.799   2.408  13.841 -0.0194 -0.2147 -0.3885
 6653TIP3   OH241373   3.499   5.548  16.979  0.0903  0.1087  0.3615
 6653TIP3    H141374   3.588   5.576  16.957  0.3993 -0.9389  0.2030
 6653TIP3    H241375   3.478   5.593  17.061  0.4919  0.9003  0.0368
 6654TIP3   OH241376   0.688   6.456   2.386 -0.3554 -0.8456  0.5021
 6654TIP3    H141377   0.693   6.387   2.452 -1.5102 -1.4087  0.0292
 6654TIP3    H241378   0.715   6.414   2.305  0.3938 -0.3335  0.4712
 6655TIP3   OH241379   5.912   0.829  13.997  0.1110  0.5506 -0.6325
 6655TIP3    H141380   5.848   0.774  13.953 -1.2591  0.7235  1.0559
 6655TIP3    H241381   5.866   0.911  14.014  0.5231  0.4256  1.2379
 6656TIP3   OH241382   5.483   4.684  11.661  0.1143 -0.0206 -0.3916
 6656TIP3    H141383   5.445   4.719  11.581  0.4426  0.2192 -0.4467
 6656TIP3    H241384   5.521   4.760  11.705  1.4014 -0.3781 -0.8306
 6657TIP3   OH241385   6.508   4.241   3.425  0.0672  0.0657 -0.1208
 6657TIP3    H141386   6.490   4.200   3.509  1.7117 -0.0380  0.2209
 6657TIP3    H241387   6.486   4.173   3.360  1.8330 -1.0901  0.4004
 6658TIP3   OH241388   6.370   3.714  15.233 -0.0462 -0.0810  0.2384
 6658TIP3    H141389   6.321   3.691  15.154  0.9126 -1.0846 -0.1102
 6658TIP3    H241390   6.458   3.680  15.216  0.2597 -0.0355  1.6182
 6659TIP3   OH241391   4.298   0.875   2.623  0.4084 -0.4236 -0.7062
 6659TIP3    H141392   4.346   0.910   2.548  1.0634 -1.8718 -1.0042
 6659TIP3    H241393   4.250   0.800   2.587  0.4564 -0.9302  0.2473
 6660TIP3   OH241394   3.804   6.541   2.622 -0.2800 -0.1854  0.0041
 6660TIP3    H141395   3.878   6.562   2.564  0.0542 -0.8935  0.1702
 6660TIP3    H241396   3.792   6.621   2.674 -0.0092  0.1441 -0.4306
 6661TIP3   OH241397   4.717   5.525  10.969  0.5344  0.2058 -0.2163
 6661TIP3    H141398   4.623   5.544  10.970  0.5581  0.3132  0.0439
 6661TIP3    H241399   4.739   5.520  10.877  0.3834  0.7334 -0.2829
 6662TIP3   OH241400   0.227   1.605   3.359 -0.1297  0.1123  0.1052
 6662TIP3    H141401   0.276   1.525   3.381 -0.2870  0.3174  1.2839
 6662TIP3    H241402   0.287   1.676   3.382 -0.0383  0.3464 -0.8271
 6663TIP3   OH241403   3.730   0.000  14.871 -0.2257 -0.0600 -0.0355
 6663TIP3    H141404   3.704  -0.082  14.829 -0.3098 -0.6163  1.0417
 6663TIP3    H241405   3.720  -0.018  14.965  1.1292  0.7143  0.2878
 6664TIP3   OH241406   1.369   5.843   3.185  0.2370 -0.1239 -0.2062
 6664TIP3    H141407   1.301   5.895   3.228 -0.2066 -0.2400 -0.7539
 6664TIP3    H241408   1.368   5.873   3.094 -1.0509 -2.0937 -0.9034
 6665TIP3   OH241409   5.994   3.819   0.986 -0.2161  0.1068 -0.2269
 6665TIP3    H141410   5.927   3.882   1.015 -0.2707 -1.4361  3.5325
 6665TIP3    H241411   6.061   3.872   0.944 -1.1117  2.4860  1.1648
 6666TIP3   OH241412   3.882   6.757   4.541 -0.1458 -0.8978 -0.5756
 6666TIP3    H141413   3.945   6.760   4.468 -0.8265  2.5468 -1.2048
 6666TIP3    H241414   3.926   6.803   4.613 -1.6906  1.3531 -0.9447
 6667TIP3   OH241415   0.522   2.806  14.419  0.0223  0.7253  0.6211
 6667TIP3    H141416   0.459   2.872  14.391 -0.5738 -0.1293 -0.1232
 6667TIP3    H241417   0.470   2.742  14.467  0.2781 -0.0903 -0.1634
 6668TIP3   OH241418   5.533   3.968   0.401 -0.0957 -0.1273  0.1689
 6668TIP3    H141419   5.517   3.963   0.495 -1.0080  1.2524  0.1199
 6668TIP3    H241420   5.506   3.883   0.367  0.8227 -0.8622  1.2213
 6669TIP3   OH241421   3.334   4.258  14.961 -0.2901 -0.8610  0.4146
 6669TIP3    H141422   3.242   4.244  14.987 -0.4244  0.4116  0.6817
 6669TIP3    H241423   3.328   4.300  14.875 -0.0491  1.1365  1.3239
 6670TIP3   OH241424   5.719   5.511  17.206 -0.0444  0.3736 -0.1739
 6670TIP3    H141425   5.798   5.563  17.190 -0.7514  1.9680  1.1991
 6670TIP3    H241426   5.652   5.576  17.226 -1.3948 -1.0207 -0.0190
 6671TIP3   OH241427   0.406   2.567  16.706  0.2258  0.2495  0.8665
 6671TIP3    H141428   0.325   2.577  16.756  0.4642 -2.3705  1.9072
 6671TIP3    H241429   0.450   2.652  16.714 -2.1429  1.5648  0.6854
 6672TIP3   OH241430   1.243   5.337   3.600  0.0161  0.5911 -0.2766
 6672TIP3    H141431   1.268   5.381   3.682  1.5851  0.0819 -0.4568
 6672TIP3    H241432   1.195   5.404   3.551  0.7851  1.5327  0.2153
 6673TIP3   OH241433   2.749   6.422  17.110  0.0532  0.0492  0.1700
 6673TIP3    H141434   2.680   6.413  17.176 -0.5388  1.7041 -0.1759
 6673TIP3    H241435   2.752   6.516  17.091  2.3299  0.0104  0.0744
 6674TIP3   OH241436   4.864   3.996  15.191  0.5339 -0.4061 -0.2001
 6674TIP3    H141437   4.847   3.905  15.164 -0.5243  0.1431 -1.5349
 6674TIP3    H241438   4.784   4.043  15.167  1.3619  1.0204 -0.2627
 6675TIP3   OH241439   0.198   0.917  15.204  0.2696 -0.7524 -0.9284
 6675TIP3    H141440   0.243   0.971  15.270 -0.9750  0.6936 -1.2243
 6675TIP3    H241441   0.201   0.970  15.124 -1.3647 -0.9046 -1.1167
 6676TIP3   OH241442   5.065   4.139   2.612 -0.5878  0.6033 -0.3427
 6676TIP3    H141443   4.973   4.152   2.591 -0.4731  2.9363  0.3949
 6676TIP3    H241444   5.110   4.143   2.527 -0.9707  1.4831 -0.5107
 6677TIP3   OH241445   1.296   1.533  15.015  0.0892 -0.1171 -0.1473
 6677TIP3    H141446   1.345   1.501  15.091 -1.0898 -0.4460  0.4945
 6677TIP3    H241447   1.327   1.622  15.003  0.4024 -0.1098  0.6332
 6678TIP3   OH241448   0.514   0.325  11.120  0.4043  0.1378  0.3102
 6678TIP3    H141449   0.567   0.274  11.182  1.6173 -0.9371 -1.5183
 6678TIP3    H241450   0.569   0.400  11.099  0.2420  0.1930  0.0852
 6679TIP3   OH241451   3.109   6.288   4.043  0.1484 -0.2033  0.1293
 6679TIP3    H141452   3.086   6.284   3.950  0.5966  1.2020 -0.0607
 6679TIP3    H241453   3.100   6.380   4.066  1.3709 -0.3066  1.1285
 6680TIP3   OH241454   6.058   1.364   5.905  0.2770  0.3184 -0.3783
 6680TIP3    H141455   5.999   1.289   5.893  0.5638  0.2302 -1.3464
 6680TIP3    H241456   6.099   1.348   5.990 -0.8518  0.2261  0.1711
 6681TIP3   OH241457   3.471   3.895  11.946  0.3059  0.2645  0.4394
 6681TIP3    H141458   3.528   3.881  12.022  0.2702 -0.0973  0.4025
 6681TIP3    H241459   3.494   3.982  11.915 -0.2720  0.7707  1.3761
 6682TIP3   OH241460   5.933   2.830  17.150 -0.2916 -0.1429  0.1225
 6682TIP3    H141461   5.981   2.753  17.180 -0.5039 -1.6365 -2.9311
 6682TIP3    H241462   6.001   2.897  17.137 -0.0404  0.0944  2.3307
 6683TIP3   OH241463   5.913   4.903  11.639  0.1420 -0.2490  0.3418
 6683TIP3    H141464   5.826   4.864  11.651  0.3477 -1.3832 -1.3965
 6683TIP3    H241465   5.897   4.997  11.631 -1.1230 -0.5552 -1.2434
 6684TIP3   OH241466   5.382   4.739  16.230  0.3387 -0.3017 -0.3263
 6684TIP3    H141467   5.452   4.697  16.179 -0.1134 -0.7694 -0.5746
 6684TIP3    H241468   5.307   4.740  16.171  0.0908  0.0548 -0.0072
 6685TIP3   OH241469   6.475   1.357  11.179  0.0675 -0.0047  0.4644
 6685TIP3    H141470   6.433   1.419  11.239 -2.1007  0.8211 -1.7747
 6685TIP3    H241471   6.447   1.271  11.210 -1.3639  0.4305  0.4378
 6686TIP3   OH241472   2.811   4.466   1.736  0.0472 -0.0215 -0.5091
 6686TIP3    H141473   2.842   4.554   1.713 -1.4628  0.2690 -1.6277
 6686TIP3    H241474   2.772   4.433   1.655 -2.3473 -0.4123  0.7107
 6687TIP3   OH241475   4.512   4.725   1.849  0.0733  0.6795  0.3834
 6687TIP3    H141476   4.536   4.790   1.914 -0.1120  0.9059  0.2260
 6687TIP3    H241477   4.421   4.746   1.827 -0.5192 -0.5687  1.4759
 6688TIP3   OH241478   5.866   6.508   5.166  0.0608 -0.2145  0.2976
 6688TIP3    H141479   5.890   6.415   5.167  0.8586 -0.0183  1.4813
 6688TIP3    H241480   5.857   6.532   5.259 -1.4828  0.5696 -0.0220
 6689TIP3   OH241481   6.770   3.348   6.221 -0.3054 -0.2744  0.0644
 6689TIP3    H141482   6.730   3.278   6.169  0.2746  0.5034 -1.4806
 6689TIP3    H241483   6.703   3.416   6.225  0.5687  0.7873 -2.0298
 6690TIP3   OH241484   3.285   4.191   4.291 -0.1234 -0.1888 -0.2662
 6690TIP3    H141485   3.374   4.188   4.327 -1.1133 -0.4011  2.3149
 6690TIP3    H241486   3.251   4.276   4.318 -0.1319  0.7150 -2.8718
 6691TIP3   OH241487   3.334   3.670   1.704 -0.0638 -0.0510 -0.2737
 6691TIP3    H141488   3.394   3.623   1.647 -0.6406  1.2425 -2.0697
 6691TIP3    H241489   3.258   3.612   1.711 -0.1549 -0.0672 -1.2064
 6692TIP3   OH241490   3.038   1.501   1.230 -0.2817  0.4280 -0.3742
 6692TIP3    H141491   3.061   1.581   1.184 -0.0883  0.3196 -0.4662
 6692TIP3    H241492   3.062   1.518   1.321 -0.8609  0.7205 -0.2726
 6693TIP3   OH241493   1.043   4.771   1.702  0.1083  0.6312 -0.3012
 6693TIP3    H141494   0.999   4.721   1.633  0.5681  2.2421 -1.8569
 6693TIP3    H241495   0.972   4.796   1.762 -0.7401  1.1636 -1.4732
 6694TIP3   OH241496   6.279   2.996  14.991 -0.2323 -0.2578 -0.3552
 6694TIP3    H141497   6.292   2.904  14.967 -0.0336 -0.6492  1.1746
 6694TIP3    H241498   6.367   3.034  14.982 -0.3642 -0.1314 -1.2475
 6695TIP3   OH241499   5.249   4.506   2.042  0.2545 -0.1591  0.1307
 6695TIP3    H141500   5.154   4.499   2.042  0.3376 -1.6924  0.0908
 6695TIP3    H241501   5.276   4.477   1.955  0.7161  1.1441 -0.1699
 6696TIP3   OH241502   0.990   6.472   3.584 -0.1196 -0.0821 -0.7015
 6696TIP3    H141503   0.955   6.384   3.572 -2.5446  0.7887 -0.5386
 6696TIP3    H241504   0.933   6.528   3.531  0.9299  1.4890 -0.2425
 6697TIP3   OH241505   2.455   0.860  12.114 -0.3193  0.2385  0.5604
 6697TIP3    H141506   2.378   0.894  12.069 -1.1883 -0.6587  1.3126
 6697TIP3    H241507   2.512   0.936  12.126  1.4064  0.1285 -4.6302
 6698TIP3   OH241508   6.329   3.606   5.483  0.1904 -0.6335  0.2772
 6698TIP3    H141509   6.392   3.642   5.546  1.0243 -3.4534  1.1724
 6698TIP3    H241510   6.336   3.511   5.493 -2.6705 -1.0982 -1.1739
 6699TIP3   OH241511   0.900   4.381  16.641 -0.0017  0.7583 -0.0187
 6699TIP3    H141512   0.824   4.417  16.596 -0.1276  1.8085  0.9679
 6699TIP3    H241513   0.946   4.458  16.675 -0.6320  0.0412  2.7585
 6700TIP3   OH241514   3.763   0.775  12.092  0.1260  0.4860  0.4884
 6700TIP3    H141515   3.682   0.740  12.127  0.7469 -0.4924  0.9796
 6700TIP3    H241516   3.736   0.849  12.037 -1.1641 -0.3903 -0.0979
 6701TIP3   OH241517   6.309   3.824   5.319 -0.2970 -0.6454  0.2075
 6701TIP3    H141518   6.271   3.790   5.238 -0.8760 -2.1481  1.0702
 6701TIP3    H241519   6.318   3.747   5.375  0.1580  0.3583  1.5527
 6702TIP3   OH241520   2.378   0.378   6.030 -0.6425 -0.6772 -0.3208
 6702TIP3    H141521   2.453   0.320   6.036 -0.8639 -1.0441 -1.0129
 6702TIP3    H241522   2.386   0.436   6.107  1.6398  0.8703 -1.5907
 6703TIP3   OH241523   5.132   1.967  12.639  0.8479 -0.3812  0.0729
 6703TIP3    H141524   5.089   2.027  12.578 -0.4114  0.6007  1.8345
 6703TIP3    H241525   5.140   1.885  12.590 -0.2774  0.2987 -1.3309
 6704TIP3   OH241526   3.361   3.671  15.100  0.1635  0.4563  0.3403
 6704TIP3    H141527   3.287   3.623  15.063  0.3261 -1.6173  2.4244
 6704TIP3    H241528   3.436   3.614  15.084  0.9583  1.5799  0.0352
 6705TIP3   OH241529   5.178   1.535   4.135  0.2262  0.0558  0.0188
 6705TIP3    H141530   5.089   1.558   4.162 -0.1886  0.0323 -1.2623
 6705TIP3    H241531   5.171   1.519   4.041  1.1834 -1.9355  0.2388
 6706TIP3   OH241532   3.558   4.250   4.363  0.1742 -0.4724 -0.2595
 6706TIP3    H141533   3.610   4.274   4.286  0.1225 -1.2744 -0.5587
 6706TIP3    H241534   3.552   4.330   4.414 -0.6667  0.3709 -1.6078
 6707TIP3   OH241535   1.593   0.326  15.342 -0.7077 -0.0276  0.2392
 6707TIP3    H141536   1.565   0.270  15.414  1.2574  1.5494  2.4220
 6707TIP3    H241537   1.524   0.392  15.334 -0.7308  0.0725  1.0969
 6708TIP3   OH241538   0.144   6.617  15.964 -0.1696  0.3554 -0.2896
 6708TIP3    H141539   0.214   6.636  16.027  0.1345 -1.8922  0.1292
 6708TIP3    H241540   0.147   6.691  15.903  1.7103  0.9788  0.4682
 6709TIP3   OH241541   4.636   5.027   3.712  0.2488 -0.6890 -0.0737
 6709TIP3    H141542   4.550   5.065   3.732  0.8802  0.1195  1.2949
 6709TIP3    H241543   4.639   5.022   3.617 -1.1747 -0.4189 -0.1593
 6710TIP3   OH241544   4.474   1.122  11.049 -0.3241  0.5900 -0.2548
 6710TIP3    H141545   4.466   1.129  10.954 -1.0965 -0.6859 -0.3031
 6710TIP3    H241546   4.383   1.122  11.081 -0.0686  1.5855  0.5467
 6711TIP3   OH241547   4.162   5.289   3.635 -0.5709  1.1943  0.1746
 6711TIP3    H141548   4.079   5.327   3.662 -0.8558 -0.8829  2.6658
 6711TIP3    H241549   4.161   5.200   3.672  1.7252  0.2108 -1.8201
 6712TIP3   OH241550   4.180   0.611  16.538  0.2987  0.2055  0.0233
 6712TIP3    H141551   4.153   0.699  16.564 -1.6220 -0.7680  1.6203
 6712TIP3    H241552   4.226   0.577  16.615  1.3655 -0.1027 -0.7201
 6713TIP3   OH241553   1.824   1.214   1.335 -0.0245  0.0719 -0.0263
 6713TIP3    H141554   1.874   1.173   1.265 -2.1341  0.5107 -1.9169
 6713TIP3    H241555   1.845   1.163   1.413  0.0451 -2.4766 -1.6116
 6714TIP3   OH241556   6.716   4.448   0.892  0.0034 -0.0746  0.3400
 6714TIP3    H141557   6.685   4.418   0.977  0.9418  2.6525  1.7735
 6714TIP3    H241558   6.636   4.474   0.845 -0.4400 -0.4977  0.8613
 6715TIP3   OH241559   4.293   3.925   3.928 -0.1137  0.2358 -0.2161
 6715TIP3    H141560   4.362   3.915   3.862 -0.1759  0.3711 -0.3024
 6715TIP3    H241561   4.211   3.920   3.878 -0.1776 -0.2926 -0.0674
 6716TIP3   OH241562   3.257   5.414  16.928  0.1349  0.2792 -0.0746
 6716TIP3    H141563   3.342   5.455  16.941  0.4472 -0.3268 -0.1829
 6716TIP3    H241564   3.248   5.407  16.833  0.2744 -0.2937 -0.0490
 6717TIP3   OH241565   3.738   5.306  16.454 -0.1111  0.6368 -0.2428
 6717TIP3    H141566   3.648   5.296  16.425 -0.8155 -3.4617  2.5070
 6717TIP3    H241567   3.789   5.252  16.393  0.1125  0.8029 -0.2061
 6718TIP3   OH241568   1.920   0.367   1.679  0.0726 -0.0310  0.4105
 6718TIP3    H141569   1.907   0.276   1.653 -0.9948  0.4337 -0.8540
 6718TIP3    H241570   1.881   0.418   1.607  1.2887  1.4326  0.7291
 6719TIP3   OH241571   6.204   0.134  10.382 -0.6187 -0.8057  0.1066
 6719TIP3    H141572   6.231   0.210  10.435 -1.4998  0.3281 -1.0092
 6719TIP3    H241573   6.286   0.088  10.364  0.4107  1.4576 -1.5401
 6720TIP3   OH241574   4.226   3.503   6.562  0.2893  0.3033 -0.6814
 6720TIP3    H141575   4.241   3.412   6.537  2.4248 -0.5432  2.9188
 6720TIP3    H241576   4.133   3.506   6.587  0.1716 -0.8761 -0.9258
 6721TIP3   OH241577   3.082   4.361  16.308 -0.6125 -0.2245  0.0706
 6721TIP3    H141578   3.099   4.298  16.237 -0.5639  0.2852 -0.3769
 6721TIP3    H241579   3.046   4.308  16.379 -1.6529 -0.5937 -0.7083
 6722TIP3   OH241580   6.714   3.717  14.647  0.5399 -0.1442  0.5097
 6722TIP3    H141581   6.665   3.708  14.729  2.5874 -0.8750  1.7183
 6722TIP3    H241582   6.802   3.743  14.675  1.6981 -1.8514 -1.3414
 6723TIP3   OH241583   5.962   0.571   5.591  0.3931  0.0787 -0.6532
 6723TIP3    H141584   5.990   0.652   5.632  1.9321 -0.2139 -1.0629
 6723TIP3    H241585   5.989   0.502   5.653  1.5131 -0.2744 -1.5036
 6724TIP3   OH241586   6.695   5.242   2.665  0.4006 -0.2698  0.1447
 6724TIP3    H141587   6.668   5.268   2.753  1.7755 -0.1958  0.5740
 6724TIP3    H241588   6.658   5.309   2.608 -1.3072 -0.8291  0.5271
 6725TIP3   OH241589   1.866   1.098  12.411  0.0140 -0.0904 -0.9290
 6725TIP3    H141590   1.809   1.111  12.487 -0.9309  0.0451 -1.6336
 6725TIP3    H241591   1.874   1.003  12.404 -2.6276 -0.3015 -2.5478
 6726TIP3   OH241592   1.419   1.861   3.866  0.3116 -0.1370 -0.1006
 6726TIP3    H141593   1.508   1.872   3.831  0.4986  0.0028  0.4068
 6726TIP3    H241594   1.362   1.894   3.796  0.7369  1.4524  0.2525
 6727TIP3   OH241595   4.667   5.333   1.809 -0.3271  0.1205 -0.2086
 6727TIP3    H141596   4.731   5.400   1.832  1.4585 -1.3758 -0.5114
 6727TIP3    H241597   4.633   5.302   1.893 -0.6169  0.8823 -0.0405
 6728TIP3   OH241598   1.959   6.573   6.525  0.2243  0.7910 -0.5587
 6728TIP3    H141599   2.018   6.620   6.585 -0.3772  2.6548 -1.3664
 6728TIP3    H241600   2.017   6.512   6.479  0.7194 -0.6614  1.8029
 6729TIP3   OH241601   6.223   6.620  12.192  0.6458 -0.1560 -0.2512
 6729TIP3    H141602   6.162   6.637  12.264  1.0104  0.7726 -0.1477
 6729TIP3    H241603   6.204   6.530  12.165 -0.6753  0.0640 -0.1362
 6730TIP3   OH241604   3.912   6.604   2.377 -0.0037  0.6867  0.2109
 6730TIP3    H141605   3.878   6.592   2.288 -2.9748  1.5994  1.0818
 6730TIP3    H241606   3.955   6.689   2.375  0.1982  0.5705 -0.4259
 6731TIP3   OH241607   4.330   1.028  12.882  0.3998 -0.1462  0.3505
 6731TIP3    H141608   4.407   1.002  12.933 -0.8332 -1.3491  1.6840
 6731TIP3    H241609   4.315   0.953  12.823  0.2594  0.0987  0.0756
 6732TIP3   OH241610   2.092   4.061  11.644 -0.1170  0.0590  0.1521
 6732TIP3    H141611   2.012   4.100  11.680  0.5927  0.5104  1.2663
 6732TIP3    H241612   2.065   3.974  11.616 -0.5000 -0.7198  2.7319
 6733TIP3   OH241613   5.737   4.225  13.575 -0.0751  0.1543 -0.1177
 6733TIP3    H141614   5.714   4.247  13.665 -0.0316  1.5702 -0.4380
 6733TIP3    H241615   5.655   4.196  13.535 -0.1731 -0.0925  0.2637
 6734TIP3   OH241616   2.004   4.350  13.496 -0.5368  0.0862  0.4070
 6734TIP3    H141617   2.019   4.444  13.506 -3.3743  0.5631  0.8709
 6734TIP3    H241618   2.054   4.310  13.567  1.2660  1.1128 -0.1976
 6735TIP3   OH241619   4.418   1.973  15.892 -0.0375  0.6720  0.5914
 6735TIP3    H141620   4.494   1.944  15.942 -0.2605  0.2364  0.6856
 6735TIP3    H241621   4.448   2.051  15.845  0.7608 -0.0558 -0.1479
 6736TIP3   OH241622   0.101   3.110  11.308 -0.0210  0.0363  0.4838
 6736TIP3    H141623   0.065   3.098  11.395 -0.9235  0.1571  0.1416
 6736TIP3    H241624   0.051   3.049  11.253 -0.9130  1.4202 -0.3076
 6737TIP3   OH241625   6.738   3.431  13.789  0.2567  0.1232 -0.4513
 6737TIP3    H141626   6.812   3.372  13.804  1.6072  2.1196  1.4369
 6737TIP3    H241627   6.686   3.389  13.721  1.0950 -3.2277  0.7971
 6738TIP3   OH241628   3.047   0.414   1.012 -0.1188 -0.5161 -0.1294
 6738TIP3    H141629   3.008   0.330   1.039 -0.7157  0.2585  1.5347
 6738TIP3    H241630   3.130   0.419   1.059  1.3903 -1.4562 -2.4990
 6739TIP3   OH241631   6.052   5.427   0.830  0.1355 -0.3199  0.4866
 6739TIP3    H141632   5.971   5.471   0.853  0.4999  0.8354 -0.3890
 6739TIP3    H241633   6.051   5.421   0.735  1.6530  0.9069  0.3413
 6740TIP3   OH241634   5.982   1.477  15.644 -0.2408 -0.0585  0.0878
 6740TIP3    H141635   5.975   1.490  15.739  2.7945  1.6474  0.2111
 6740TIP3    H241636   6.051   1.411  15.634 -0.0850  0.2382 -0.9149
 6741TIP3   OH241637   3.873   1.284  16.972  0.0695  0.3341 -1.1240
 6741TIP3    H141638   3.876   1.247  16.884  0.8577  0.7106 -1.2611
 6741TIP3    H241639   3.964   1.308  16.991  0.4033 -1.9772  0.7419
 6742TIP3   OH241640   3.189   5.123   4.110 -0.4672  0.3343 -0.8539
 6742TIP3    H141641   3.198   5.156   4.199  0.3181 -0.0934 -0.7714
 6742TIP3    H241642   3.094   5.116   4.096 -0.6025 -1.5766  0.6700
 6743TIP3   OH241643   0.004   1.882   3.035 -0.7909  0.3205 -0.0590
 6743TIP3    H141644   0.084   1.830   3.046 -0.4880  0.7372 -0.2645
 6743TIP3    H241645   0.031   1.971   3.056 -1.5042  0.2837  1.1281
 6744TIP3   OH241646   5.819   5.392  13.253 -0.2980 -0.1351  0.1689
 6744TIP3    H141647   5.775   5.475  13.268  2.2686  1.3340  0.1272
 6744TIP3    H241648   5.831   5.387  13.158  3.5212  1.8312  0.3482
 6745TIP3   OH241649   2.473   0.557   3.132 -0.5416  0.2264 -0.1703
 6745TIP3    H141650   2.563   0.527   3.133 -1.0705 -1.4882  1.0573
 6745TIP3    H241651   2.459   0.594   3.219 -0.8662  1.0364 -0.5560
 6746TIP3   OH241652   5.119   6.582   4.507  0.4228  0.4504 -0.5433
 6746TIP3    H141653   5.074   6.660   4.539 -1.6475 -1.0571  0.4879
 6746TIP3    H241654   5.211   6.597   4.527  0.1079  2.6340 -0.4828
 6747TIP3   OH241655   1.495   2.520  14.950  0.4164  0.5608 -0.4662
 6747TIP3    H141656   1.460   2.519  15.039 -2.6721 -0.1751 -1.5820
 6747TIP3    H241657   1.507   2.613  14.930  1.8076  0.7188  0.8863
 6748TIP3   OH241658   4.884   4.928  12.461 -0.0432 -0.6731 -0.5876
 6748TIP3    H141659   4.963   4.874  12.449  0.0628 -0.4638 -0.8319
 6748TIP3    H241660   4.913   5.017  12.440 -0.0048 -0.3876  0.6156
 6749TIP3   OH241661   3.001   1.344   4.884 -0.0902 -0.1694 -0.5339
 6749TIP3    H141662   2.960   1.430   4.874 -0.9289 -0.5532 -0.4426
 6749TIP3    H241663   3.087   1.364   4.921 -0.4021  0.6160 -0.1879
 6750TIP3   OH241664   4.496   2.531   3.541 -0.3573 -0.2345 -0.3784
 6750TIP3    H141665   4.403   2.534   3.520 -0.2421  1.3740 -0.7558
 6750TIP3    H241666   4.509   2.605   3.600  1.0688  0.8964 -2.0312
 6751TIP3   OH241667   0.335   1.251   1.956 -0.0020 -0.1882 -0.3684
 6751TIP3    H141668   0.396   1.204   1.899 -1.3754 -0.7559 -1.4165
 6751TIP3    H241669   0.261   1.192   1.966  0.0761  0.0357  1.8165
 6752TIP3   OH241670   3.113   1.493   0.773  0.0479  0.1440 -0.1979
 6752TIP3    H141671   3.110   1.401   0.747 -0.1181  0.2255 -0.4705
 6752TIP3    H241672   3.205   1.518   0.764  0.6487 -0.7471  2.5109
 6753TIP3   OH241673   0.193   5.169  16.540  0.5983 -0.4740  0.3908
 6753TIP3    H141674   0.247   5.237  16.580  1.6934 -1.0889  0.0127
 6753TIP3    H241675   0.239   5.088  16.560  0.6336 -0.8870 -1.2109
 6754TIP3   OH241676   2.518   0.635   4.118 -0.6067 -0.7741  0.3758
 6754TIP3    H141677   2.558   0.650   4.204 -0.1861 -0.2443  0.0921
 6754TIP3    H241678   2.548   0.547   4.092  1.7166  0.2061 -0.5361
 6755TIP3   OH241679   2.567   6.361  13.223 -0.0174  0.1156 -0.0412
 6755TIP3    H141680   2.472   6.362  13.209 -0.2248 -1.3809  1.0917
 6755TIP3    H241681   2.600   6.430  13.165 -2.0308  2.4354  1.4130
 6756TIP3   OH241682   1.926   1.637  13.908  1.1921  0.3437 -0.1164
 6756TIP3    H141683   1.950   1.698  13.839  2.1485  1.0803  0.8392
 6756TIP3    H241684   1.868   1.687  13.966 -0.3679 -0.5459 -0.8336
 6757TIP3   OH241685   6.379   3.718   1.315 -0.1272 -0.2590 -0.0313
 6757TIP3    H141686   6.343   3.783   1.375  1.1094  0.0915  0.3717
 6757TIP3    H241687   6.382   3.764   1.230 -1.5892 -0.6549 -0.3264
 6758TIP3   OH241688   6.292   2.880  13.564 -0.3938 -0.0094  0.8051
 6758TIP3    H141689   6.365   2.933  13.596 -0.7766 -0.8218  3.2145
 6758TIP3    H241690   6.216   2.939  13.567 -0.1866  0.3126  0.0159
 6759TIP3   OH241691   1.264   3.019  11.400 -0.5876 -0.1297 -0.2163
 6759TIP3    H141692   1.248   2.942  11.346 -0.4930 -0.0315 -0.3850
 6759TIP3    H241693   1.207   3.008  11.476 -2.0063  0.5627 -1.1275
 6760TIP3   OH241694   4.228   0.047   2.035 -0.3779  0.0502 -0.1703
 6760TIP3    H141695   4.248   0.126   1.984  1.1596  0.1859  0.6049
 6760TIP3    H241696   4.310   0.023   2.076 -1.2644 -0.8481  1.1599
 6761TIP3   OH241697   5.716   3.715  14.480  0.7892  0.0587  0.5119
 6761TIP3    H141698   5.751   3.804  14.480 -2.6736  1.6096  1.5332
 6761TIP3    H241699   5.686   3.701  14.570  0.5761 -1.8478  0.1861
 6762TIP3   OH241700   3.551   1.234  15.912 -0.2411  0.0081 -0.2306
 6762TIP3    H141701   3.478   1.287  15.944 -0.0818  0.8614 -1.2159
 6762TIP3    H241702   3.510   1.157  15.874 -0.6206  0.3080 -0.4443
 6763TIP3   OH241703   6.576   2.205  13.152 -0.2180 -0.7970  0.2782
 6763TIP3    H141704   6.544   2.262  13.222  0.2137 -1.3224  0.9142
 6763TIP3    H241705   6.552   2.117  13.179  0.1963 -1.0307 -0.1010
 6764TIP3   OH241706   3.409   5.156   3.725  0.6830 -0.6372  0.2131
 6764TIP3    H141707   3.339   5.220   3.713 -0.5956 -1.8366  0.9052
 6764TIP3    H241708   3.466   5.169   3.650 -0.0483  0.6656 -0.1580
 6765TIP3   OH241709   1.868   2.155  16.161 -0.3248  0.1164  0.7111
 6765TIP3    H141710   1.826   2.173  16.246 -0.9241 -1.1318  0.6940
 6765TIP3    H241711   1.943   2.101  16.182 -1.4514 -1.6748  0.3243
 6766TIP3   OH241712   2.446   2.724   2.026 -0.0295 -0.0544 -0.1470
 6766TIP3    H141713   2.417   2.693   1.940  1.1850  0.9532 -0.9660
 6766TIP3    H241714   2.541   2.733   2.016  0.4199 -1.7260  1.9054
 6767TIP3   OH241715   1.973   4.254  17.168  0.0651 -0.4056 -1.0847
 6767TIP3    H141716   1.911   4.315  17.207  0.9803 -1.0295  1.5243
 6767TIP3    H241717   1.994   4.193  17.239  3.3201 -0.4939 -1.9921
 6768TIP3   OH241718   0.965   4.926  14.516  0.1683 -0.1522  0.1223
 6768TIP3    H141719   0.882   4.950  14.557  0.8122  0.7885  0.9469
 6768TIP3    H241720   0.985   4.839  14.551  0.4071  0.3852  1.3960
 6769TIP3   OH241721   6.440   6.339   4.097  0.2818 -0.0801 -0.2636
 6769TIP3    H141722   6.486   6.261   4.127 -0.5029 -0.0030  1.1975
 6769TIP3    H241723   6.504   6.385   4.042  0.9664 -1.4057 -0.6131
 6770TIP3   OH241724   2.058   4.798   2.901  0.2868 -0.1769 -0.2699
 6770TIP3    H141725   2.086   4.866   2.841 -0.4706  1.8346  1.5371
 6770TIP3    H241726   1.963   4.806   2.905  0.0512 -2.1227 -0.8482
 6771TIP3   OH241727   3.455   3.512   5.388 -0.3481  0.0827 -0.0077
 6771TIP3    H141728   3.503   3.590   5.362 -0.3760  0.0701 -0.0957
 6771TIP3    H241729   3.396   3.494   5.315 -2.5466  1.7558  1.2305
 6772TIP3   OH241730   3.912   0.476  12.636  0.0772  0.0318  0.4551
 6772TIP3    H141731   3.856   0.536  12.587  2.0628 -0.9454 -3.4571
 6772TIP3    H241732   3.972   0.533  12.684 -1.1906  1.0787  0.8591
 6773TIP3   OH241733   2.151   3.036  14.536  0.2091 -0.4172  0.0416
 6773TIP3    H141734   2.174   3.113  14.484  0.6247  0.1154  0.9773
 6773TIP3    H241735   2.170   3.062  14.626  3.3379 -2.6198  0.1706
 6774TIP3   OH241736   6.173   4.802  12.455  0.3949 -0.6897  0.0831
 6774TIP3    H141737   6.143   4.871  12.396  0.4643 -1.2055 -0.5694
 6774TIP3    H241738   6.262   4.782  12.426  1.0691  0.2031  1.4348
 6775TIP3   OH241739   2.015   0.495  11.228 -0.1656 -0.2988 -0.1566
 6775TIP3    H141740   2.107   0.472  11.241  0.4633  1.8075 -0.5013
 6775TIP3    H241741   2.018   0.584  11.193 -2.2012 -1.2804 -3.2701
 6776TIP3   OH241742   1.799   0.318   5.256 -0.3019  0.1190  0.2881
 6776TIP3    H141743   1.824   0.299   5.165 -0.5056  2.4382 -0.3387
 6776TIP3    H241744   1.709   0.286   5.263 -0.5371  0.5448 -0.5756
 6777TIP3   OH241745   6.626   5.739   5.387  0.5250 -0.8874 -0.1792
 6777TIP3    H141746   6.600   5.805   5.452 -0.2837 -2.0444  0.7006
 6777TIP3    H241747   6.544   5.709   5.349  0.7776 -2.2867  0.3402
 6778TIP3   OH241748   4.768   5.859   4.561  0.3475 -0.0593 -0.3128
 6778TIP3    H141749   4.756   5.890   4.471  0.2941 -0.5788 -0.4888
 6778TIP3    H241750   4.705   5.787   4.570  0.1786  0.1479  0.2232
 6779TIP3   OH241751   1.066   1.617  14.025  0.2342 -0.0218 -0.3735
 6779TIP3    H141752   1.097   1.672  14.096 -0.9998  0.8135 -0.4511
 6779TIP3    H241753   0.975   1.597  14.048 -0.1031  0.0486 -1.5708
 6780TIP3   OH241754   3.174   3.264  10.700  0.3181  0.1095 -0.7813
 6780TIP3    H141755   3.247   3.222  10.745 -0.5306 -1.7652 -1.0300
 6780TIP3    H241756   3.154   3.341  10.753  0.7625 -0.8198  0.8073
 6781TIP3   OH241757   4.924   1.324   0.998  0.8838 -0.4239  0.2617
 6781TIP3    H141758   4.828   1.322   0.992  0.7817 -0.4145  1.5696
 6781TIP3    H241759   4.949   1.401   0.947  0.3492 -1.4156 -1.5666
 6782TIP3   OH241760   2.810   1.608  10.515  0.7184 -0.2888 -0.0281
 6782TIP3    H141761   2.793   1.620  10.421 -0.7279 -1.4619  0.0421
 6782TIP3    H241762   2.760   1.678  10.557 -0.7042 -1.2642 -0.0355
 6783TIP3   OH241763   3.060   5.660   5.497  0.7704 -0.0898  0.3395
 6783TIP3    H141764   2.972   5.694   5.510  1.8060  1.8511  3.0751
 6783TIP3    H241765   3.114   5.737   5.480  2.1631 -1.0865  0.0483
 6784TIP3   OH241766   4.850   0.414  12.683 -0.1063 -0.0564  0.5968
 6784TIP3    H141767   4.804   0.491  12.716  1.1539  0.5473  0.9984
 6784TIP3    H241768   4.884   0.371  12.761 -0.1247 -0.5859  0.3151
 6785TIP3   OH241769   3.491   4.142  11.214  0.0571 -0.0955  0.1446
 6785TIP3    H141770   3.503   4.077  11.144  0.3779  1.1324 -0.9774
 6785TIP3    H241771   3.462   4.090  11.289 -1.3475 -1.3502 -1.1806
 6786TIP3   OH241772   3.522   0.659   1.029 -0.5162 -0.1997  0.0423
 6786TIP3    H141773   3.548   0.717   1.100  0.3435 -0.7709  0.2046
 6786TIP3    H241774   3.504   0.718   0.956  0.4119  0.2800  0.1830
 6787TIP3   OH241775   1.538   2.141  10.756  0.4511  0.4834  0.4396
 6787TIP3    H141776   1.622   2.179  10.729  0.4630  0.3766  0.3248
 6787TIP3    H241777   1.480   2.217  10.765  0.0579  0.4254 -1.2670
 6788TIP3   OH241778   1.236   4.719  13.509 -0.0195 -0.5845 -0.2619
 6788TIP3    H141779   1.196   4.668  13.579  0.5395  1.0663  1.3424
 6788TIP3    H241780   1.322   4.680  13.495  0.8511  0.4709  1.7168
 6789TIP3   OH241781   3.191   1.376  14.008 -0.1449  0.1680 -0.1563
 6789TIP3    H141782   3.226   1.464  14.022 -0.3234  0.4132 -1.1877
 6789TIP3    H241783   3.117   1.388  13.948 -0.7421 -0.5838  0.4000
 6790TIP3   OH241784   3.301   4.784   3.995  0.8093 -0.0044 -0.0884
 6790TIP3    H141785   3.372   4.819   4.050  0.3509  1.6653 -0.5058
 6790TIP3    H241786   3.224   4.783   4.052  0.2313  2.1357 -0.7425
 6791TIP3   OH241787   5.235   3.247  15.613  0.7034 -0.4945  0.2105
 6791TIP3    H141788   5.316   3.222  15.657  1.2639  0.1362 -0.4424
 6791TIP3    H241789   5.239   3.201  15.529  0.1820 -0.7910  0.3448
 6792TIP3   OH241790   2.110   1.568  11.041 -0.0300  0.4339  0.8019
 6792TIP3    H141791   2.034   1.599  10.991  0.1115  0.1642  0.4092
 6792TIP3    H241792   2.113   1.474  11.024 -0.2781  0.2517  1.7381
 6793TIP3   OH241793   2.931   3.730   0.171 -0.2699  0.0839  0.7049
 6793TIP3    H141794   2.879   3.811   0.171  0.7572  0.7961 -1.2476
 6793TIP3    H241795   3.014   3.755   0.213  0.6058  0.4916 -1.1656
 6794TIP3   OH241796   1.874   0.090  11.963  0.4095 -0.1352  0.2839
 6794TIP3    H141797   1.803   0.140  11.922  0.3409  0.4692  1.0997
 6794TIP3    H241798   1.873   0.005  11.919  0.0061  0.3094 -0.5889
 6795TIP3   OH241799   6.707   6.623   4.476 -0.2983 -0.1755 -0.6725
 6795TIP3    H141800   6.765   6.699   4.477  0.9019 -1.0785  0.1258
 6795TIP3    H241801   6.714   6.589   4.387  0.4050 -0.2831 -0.5769
 6796TIP3   OH241802   1.879   3.180  13.547 -0.1123 -0.2898 -0.2655
 6796TIP3    H141803   1.955   3.198  13.491  1.0388 -0.9751  1.0361
 6796TIP3    H241804   1.861   3.263  13.591  0.4404 -0.3553  0.0841
 6797TIP3   OH241805   3.607   0.289   1.182  0.7193 -0.2795 -0.2928
 6797TIP3    H141806   3.544   0.284   1.254 -0.1510  0.6409 -0.9616
 6797TIP3    H241807   3.619   0.198   1.155  0.0360 -0.5129  0.1622
 6798TIP3   OH241808   1.098   3.423   4.352 -0.3369  0.3864 -0.4650
 6798TIP3    H141809   1.031   3.481   4.316  0.6314  1.6562 -0.2646
 6798TIP3    H241810   1.083   3.339   4.309 -2.5829  0.3897  0.1895
 6799TIP3   OH241811   5.192   2.736   5.754 -0.4099  0.5379  0.6018
 6799TIP3    H141812   5.122   2.748   5.818 -1.0722 -2.0414  0.4418
 6799TIP3    H241813   5.183   2.646   5.724  0.7302  1.2256 -2.1464
 6800TIP3   OH241814   6.066   0.611   5.908  0.4379 -1.1625 -0.0519
 6800TIP3    H141815   6.107   0.573   5.985 -0.1175 -1.3573  0.1512
 6800TIP3    H241816   6.042   0.536   5.854 -0.2310 -1.0773  0.1279
 6801TIP3   OH241817   0.847   1.271  13.184  0.4602  0.3938  0.1417
 6801TIP3    H141818   0.879   1.196  13.234 -0.3722  0.0458  0.1792
 6801TIP3    H241819   0.844   1.239  13.093 -0.4928  0.1548  0.2432
 6802TIP3   OH241820   6.664   5.425  15.600  0.3010 -1.0467  0.2359
 6802TIP3    H141821   6.625   5.347  15.561  0.1457 -0.8863  0.0701
 6802TIP3    H241822   6.590   5.474  15.635  0.3372 -0.6702 -0.2107
 6803TIP3   OH241823   2.058   0.639   2.959  0.3782  0.1359 -0.5782
 6803TIP3    H141824   2.107   0.605   2.884  1.3007  1.1959 -0.4852
 6803TIP3    H241825   1.997   0.570   2.982  1.5707 -1.0789 -0.9571
 6804TIP3   OH241826   5.616   3.341   6.130 -1.1091 -0.1096 -0.3208
 6804TIP3    H141827   5.649   3.266   6.181 -1.7205  0.6892  1.3251
 6804TIP3    H241828   5.692   3.372   6.082  0.5524  1.2732  2.8739
 6805TIP3   OH241829   6.627   2.281  17.021  0.1121 -0.3276  0.3259
 6805TIP3    H141830   6.604   2.213  16.957 -2.5239  1.8339 -1.2575
 6805TIP3    H241831   6.576   2.258  17.099 -0.3453 -0.4956 -0.0141
 6806TIP3   OH241832   6.415   4.517   4.715  0.3291  0.1246 -0.4510
 6806TIP3    H141833   6.508   4.537   4.719  0.4046 -0.2800 -0.0891
 6806TIP3    H241834   6.408   4.428   4.750 -0.4130  0.8581  1.4260
 6807TIP3   OH241835   4.385   6.241   2.663  0.0251  0.2027 -0.0854
 6807TIP3    H141836   4.397   6.304   2.592 -1.1213  0.7971  0.2180
 6807TIP3    H241837   4.341   6.167   2.622 -0.0511  0.2709 -0.1256
 6808TIP3   OH241838   3.307   6.459   4.621  0.2183 -0.4079  0.3754
 6808TIP3    H141839   3.371   6.493   4.559 -1.1388  0.4970 -0.5770
 6808TIP3    H241840   3.326   6.365   4.626  0.9394 -0.3306 -0.6805
 6809TIP3   OH241841   5.311   4.755   2.747  0.1793 -0.8698 -0.0697
 6809TIP3    H141842   5.377   4.704   2.701  0.7966 -0.4796  0.3709
 6809TIP3    H241843   5.230   4.738   2.700  1.1100  1.2036 -2.6402
 6810TIP3   OH241844   1.541   4.454   0.973 -0.8606  0.1113  0.2314
 6810TIP3    H141845   1.557   4.360   0.977 -1.8673 -0.1302 -1.0639
 6810TIP3    H241846   1.628   4.493   0.971 -0.3857 -0.9268 -1.7566
 6811TIP3   OH241847   3.976   5.436   5.049  0.4420 -0.1967  0.3535
 6811TIP3    H141848   4.016   5.390   5.123  0.0487  0.3923  0.9321
 6811TIP3    H241849   3.987   5.375   4.975  0.2417 -1.0749  1.0277
 6812TIP3   OH241850   2.953   0.549   1.530 -0.0209  0.1771 -0.1035
 6812TIP3    H141851   2.885   0.581   1.471  0.9825  0.6530 -1.0500
 6812TIP3    H241852   2.986   0.469   1.489  0.0927  0.0206  0.2796
 6813TIP3   OH241853   3.534   0.681   2.203  0.0954  0.0903 -0.1509
 6813TIP3    H141854   3.446   0.655   2.176 -0.3003  2.2996 -1.1344
 6813TIP3    H241855   3.520   0.746   2.272  0.9366  0.7305 -0.5615
 6814TIP3   OH241856   0.069   5.691   1.329  0.4321 -0.3298  0.1011
 6814TIP3    H141857   0.128   5.757   1.368 -0.8755  1.0000 -0.0991
 6814TIP3    H241858  -0.017   5.732   1.331 -0.4596 -2.1328  0.1237
 6815TIP3   OH241859   4.076   1.703  14.561 -0.2382  0.1856  0.1378
 6815TIP3    H141860   4.111   1.658  14.638 -0.3750  0.3657  0.3066
 6815TIP3    H241861   4.112   1.655  14.486 -0.2596 -0.1086  0.3142
 6816TIP3   OH241862   3.924   4.750   0.454 -0.4814 -0.4415 -0.5656
 6816TIP3    H141863   3.930   4.806   0.377 -0.3946  1.7815  0.9713
 6816TIP3    H241864   3.851   4.691   0.435 -0.8603  0.4691 -2.0824
 6817TIP3   OH241865   3.647   3.760   0.547 -0.5357  0.2433  0.5793
 6817TIP3    H141866   3.602   3.679   0.523  1.9665 -1.5380  1.4824
 6817TIP3    H241867   3.716   3.770   0.482 -0.5604  1.4578  0.7155
 6818TIP3   OH241868   6.268   2.037   0.142 -0.5895  0.5469 -0.5087
 6818TIP3    H141869   6.330   2.052   0.213  0.0217 -0.3736 -0.8279
 6818TIP3    H241870   6.320   1.994   0.073 -1.5066  0.0365 -0.9063
 6819TIP3   OH241871   2.984   0.715   4.886 -0.1603  0.2485 -0.7264
 6819TIP3    H141872   2.924   0.669   4.945 -1.9373  1.6420 -1.3765
 6819TIP3    H241873   2.963   0.681   4.799  1.4315 -0.7026 -0.7923
 6820TIP3   OH241874   2.920   3.318  16.520 -0.5311 -0.5043 -0.0235
 6820TIP3    H141875   3.009   3.329  16.554  0.4586 -0.5547 -2.4133
 6820TIP3    H241876   2.921   3.233  16.477 -1.6751 -0.3966 -0.2914
 6821TIP3   OH241877   0.517   6.284  14.321  0.3366  0.1959  0.2957
 6821TIP3    H141878   0.545   6.193  14.333  0.1462 -0.1372 -1.5569
 6821TIP3    H241879   0.449   6.280  14.254  1.1583  1.8127 -0.7100
 6822TIP3   OH241880   1.026   3.021   1.734  0.0776 -0.0195 -0.7063
 6822TIP3    H141881   0.936   3.036   1.705  0.2805  1.5136 -0.6097
 6822TIP3    H241882   1.017   2.993   1.825 -0.4102 -2.2441 -1.3889
 6823TIP3   OH241883   0.120   2.738  17.176  0.6444  0.3797  0.2665
 6823TIP3    H141884   0.106   2.830  17.152  0.8835  0.3088 -0.1667
 6823TIP3    H241885   0.035   2.707  17.206  0.3407  0.4935 -0.4521
 6824TIP3   OH241886   0.019   5.848   5.821 -0.7930  0.1461 -0.1123
 6824TIP3    H141887  -0.021   5.762   5.814 -2.0877  0.3703  2.9487
 6824TIP3    H241888   0.059   5.849   5.908  1.6213  1.7332 -1.1134
 6825TIP3   OH241889   6.491   2.119  16.792 -0.3295  0.2843  0.6366
 6825TIP3    H141890   6.444   2.091  16.714  0.5441  0.7523 -0.0678
 6825TIP3    H241891   6.502   2.038  16.843  1.1792 -0.5069 -0.8501
 6826TIP3   OH241892   2.630   4.549  11.486  0.3265 -0.2406 -0.5675
 6826TIP3    H141893   2.702   4.503  11.443 -1.5246 -1.7098 -2.2091
 6826TIP3    H241894   2.563   4.483  11.500 -1.5188  1.4756 -0.8711
 6827TIP3   OH241895   4.685   2.351   3.188 -1.1053  0.0903 -0.7404
 6827TIP3    H141896   4.739   2.389   3.257 -0.1183 -0.4774 -1.1856
 6827TIP3    H241897   4.599   2.392   3.200 -0.7856  0.4552  0.4341
 6828TIP3   OH241898   4.923   1.804  14.369  0.5412  0.1698  0.6360
 6828TIP3    H141899   4.925   1.863  14.445  1.4420  1.0677 -0.0609
 6828TIP3    H241900   5.005   1.754  14.375  0.1483 -0.4723  0.7880
 6829TIP3   OH241901   3.494   0.913  11.785 -0.4614  0.0139 -0.1995
 6829TIP3    H141902   3.443   0.986  11.750 -0.0999  0.4134  0.0984
 6829TIP3    H241903   3.560   0.954  11.841 -0.3303 -0.5486  0.0683
 6830TIP3   OH241904   2.963   3.514   0.008 -0.5747 -0.5430  0.1030
 6830TIP3    H141905   3.056   3.539   0.009 -0.3184 -1.3496 -1.1995
 6830TIP3    H241906   2.920   3.580   0.063  0.6925  0.1633  0.2844
 6831TIP3   OH241907   4.412   6.344  12.585  0.6719 -0.1235  0.1259
 6831TIP3    H141908   4.379   6.429  12.553  2.5737  0.3881 -0.6118
 6831TIP3    H241909   4.351   6.320  12.655 -2.4363 -0.2197 -2.3664
 6832TIP3   OH241910   0.405   0.970   6.639  0.1838  0.3512  0.5911
 6832TIP3    H141911   0.378   0.917   6.715 -0.8839 -1.3084 -0.8590
 6832TIP3    H241912   0.450   0.908   6.582 -1.3370  0.8693 -1.2960
 6833TIP3   OH241913   6.497   4.542   0.761 -0.4521 -0.1240  0.2509
 6833TIP3    H141914   6.466   4.526   0.851  0.3247  0.7650  0.6893
 6833TIP3    H241915   6.422   4.581   0.716  0.1874  2.7632  1.5163
 6834TIP3   OH241916   2.364   3.072  15.253 -0.1935  0.1650 -0.0978
 6834TIP3    H141917   2.338   3.122  15.330  0.2927 -0.3531  0.4144
 6834TIP3    H241918   2.416   2.999  15.288  0.3413  0.1259 -0.9408
 6835TIP3   OH241919   1.919   4.696  17.117 -0.3007  0.0893  0.3357
 6835TIP3    H141920   2.010   4.723  17.130 -0.7905  2.4696 -0.5242
 6835TIP3    H241921   1.922   4.631  17.047  0.9332 -1.9931  2.1953
 6836TIP3   OH241922   2.196   4.038  16.861  0.4798 -0.0647 -0.1580
 6836TIP3    H141923   2.111   4.069  16.831 -0.0395 -1.1094  0.2011
 6836TIP3    H241924   2.241   4.010  16.781 -0.4255 -1.6940 -0.1328
 6837TIP3   OH241925   1.667   1.703   4.415  0.6760 -0.2970  0.5845
 6837TIP3    H141926   1.683   1.612   4.436  0.1038 -0.2130  1.4270
 6837TIP3    H241927   1.573   1.708   4.398  0.8833 -0.0799 -0.6176
 6838TIP3   OH241928   6.094   1.435   4.200  0.1105 -0.1108  0.3133
 6838TIP3    H141929   6.098   1.495   4.126 -2.2751 -0.0392  0.1747
 6838TIP3    H241930   6.168   1.375   4.186  0.7601  0.9778 -1.1327
 6839TIP3   OH241931   2.315   5.258   5.667 -0.5151  0.0026  0.0726
 6839TIP3    H141932   2.390   5.212   5.704 -0.3361  0.2590  0.0371
 6839TIP3    H241933   2.257   5.189   5.634 -1.2010 -0.2836  1.7943
 6840TIP3   OH241934   4.782   0.274  17.016  0.4687 -0.0300  0.0411
 6840TIP3    H141935   4.823   0.340  17.073 -0.0418 -0.1164  0.5202
 6840TIP3    H241936   4.776   0.196  17.071  1.7899 -0.7383 -0.7713
 6841TIP3   OH241937   5.150   5.885  17.232  0.1847 -0.2693  0.4874
 6841TIP3    H141938   5.113   5.937  17.160 -1.2374 -0.4902  1.0325
 6841TIP3    H241939   5.178   5.950  17.296 -2.5858 -0.0837  1.6594
 6842TIP3   OH241940   6.296   2.033   3.870 -0.1334  1.0331 -0.0232
 6842TIP3    H141941   6.215   2.068   3.908 -0.3703  0.0249  0.4418
 6842TIP3    H241942   6.265   1.973   3.801  0.0568 -1.4728  1.9294
 6843TIP3   OH241943   0.039   3.925  11.604  0.0453  0.1059 -0.4665
 6843TIP3    H141944   0.029   3.830  11.610 -1.0930  0.2645  0.6684
 6843TIP3    H241945  -0.031   3.952  11.545 -0.7776  0.3794  0.5918
 6844TIP3   OH241946   4.564   4.329   2.641  0.7900  0.1882  0.2160
 6844TIP3    H141947   4.579   4.405   2.697 -1.0961 -1.1059  2.6706
 6844TIP3    H241948   4.474   4.341   2.610 -0.1970 -1.8082  2.0817
 6845TIP3   OH241949   6.770   4.328  14.982  0.3840  0.1047  0.2895
 6845TIP3    H141950   6.845   4.335  14.923  2.4552 -0.6527  2.6761
 6845TIP3    H241951   6.702   4.287  14.928  2.4561 -1.4431 -1.3520
 6846TIP3   OH241952   2.501   1.709  10.388 -0.0942  0.5531  0.1386
 6846TIP3    H141953   2.427   1.755  10.349  0.9972  1.6791 -0.6777
 6846TIP3    H241954   2.474   1.692  10.478 -1.8396 -0.2469 -0.4955
 6847TIP3   OH241955   5.027   6.158   1.295  0.0819 -0.0825 -0.2628
 6847TIP3    H141956   5.015   6.194   1.382  0.1844 -0.5762 -0.0402
 6847TIP3    H241957   5.018   6.063   1.306  2.0222 -0.3260 -0.4457
 6848TIP3   OH241958   3.411   5.630  11.686 -0.1454  0.3320  0.6348
 6848TIP3    H141959   3.386   5.540  11.666  0.3208  0.3435 -0.0573
 6848TIP3    H241960   3.468   5.624  11.762  1.7098 -0.2101 -0.7395
 6849TIP3   OH241961   4.538   5.014  11.452 -0.8197  0.0288 -0.0915
 6849TIP3    H141962   4.509   4.923  11.442 -1.4651  0.3257 -1.2441
 6849TIP3    H241963   4.626   5.008  11.488 -0.5716 -1.0950 -0.8199
 6850TIP3   OH241964   6.261   3.335  14.842  0.3462 -0.1878  0.0934
 6850TIP3    H141965   6.215   3.347  14.925  1.2796 -2.0923  0.9475
 6850TIP3    H241966   6.207   3.273  14.793  0.6718 -0.3897 -0.0117
 6851TIP3   OH241967   4.486   2.898   4.530 -0.0527  0.1513  0.7153
 6851TIP3    H141968   4.549   2.872   4.462  0.0805 -0.8382  1.1986
 6851TIP3    H241969   4.516   2.852   4.609 -0.1405  1.3789  1.4836
 6852TIP3   OH241970   3.771   1.720   3.148 -0.4948 -0.0154  0.3603
 6852TIP3    H141971   3.755   1.807   3.113 -2.2415 -1.0320 -1.6305
 6852TIP3    H241972   3.743   1.725   3.239  0.0207  1.6436  0.4451
 6853TIP3   OH241973   1.386   3.560  13.345 -0.1213 -0.2598  0.3938
 6853TIP3    H141974   1.422   3.604  13.268  0.4370  0.4831  1.0614
 6853TIP3    H241975   1.357   3.475  13.313 -1.0390  0.5034 -0.8869
 6854TIP3   OH241976   5.646   4.060  15.964 -0.4181 -0.6288 -0.5757
 6854TIP3    H141977   5.572   4.114  15.990  1.9586  1.5084  2.5037
 6854TIP3    H241978   5.680   4.025  16.046  2.6263 -0.5784 -1.6748
 6855TIP3   OH241979   3.281   2.525   0.909  0.1719 -0.0908  0.6843
 6855TIP3    H141980   3.272   2.463   0.836  0.4488  1.1163 -0.4161
 6855TIP3    H241981   3.343   2.483   0.969 -0.7120 -1.4970  0.6817
 6856TIP3   OH241982   0.535   2.813  16.760  0.4953 -0.1677  0.3302
 6856TIP3    H141983   0.614   2.765  16.787  1.0940 -0.3636 -1.6576
 6856TIP3    H241984   0.500   2.849  16.842  2.3175 -0.5461  1.3196
 6857TIP3   OH241985   4.794   5.177  15.330 -0.2175 -0.1787  0.3743
 6857TIP3    H141986   4.785   5.099  15.385  0.1176  0.1585  0.9235
 6857TIP3    H241987   4.883   5.172  15.295 -0.1286  0.0566  0.5673
 6858TIP3   OH241988   5.364   3.786  12.906  0.3776  0.7220  0.0395
 6858TIP3    H141989   5.437   3.764  12.964  1.1586  0.9101 -0.8302
 6858TIP3    H241990   5.305   3.711  12.913 -0.3408  1.4245  2.2408
 6859TIP3   OH241991   0.091   0.616  13.751  0.2211  0.1753  0.3662
 6859TIP3    H141992   0.057   0.564  13.678 -0.8993 -0.6053  1.4054
 6859TIP3    H241993   0.017   0.624  13.811  0.3039  3.1106  0.2126
 6860TIP3   OH241994   1.675   0.522  10.794 -0.3078  0.0755 -0.1446
 6860TIP3    H141995   1.629   0.589  10.845 -0.2866 -0.2042  0.2431
 6860TIP3    H241996   1.617   0.446  10.798  1.5014 -1.3113  2.9134
 6861TIP3   OH241997   0.893   1.425   1.058 -0.1437 -0.0662  0.3075
 6861TIP3    H141998   0.932   1.415   0.971 -1.0619  0.0093 -0.1314
 6861TIP3    H241999   0.929   1.353   1.109  0.1213 -0.3304 -0.2422
 6862TIP3   OH242000   5.236   0.712   6.674 -0.7302  0.5085 -0.6609
 6862TIP3    H142001   5.202   0.689   6.760 -0.6265 -1.5421 -1.1014
 6862TIP3    H242002   5.166   0.687   6.613 -0.0430  0.0748 -1.2890
 6863TIP3   OH242003   0.575   1.214   5.450  0.2625  0.5770 -0.4953
 6863TIP3    H142004   0.575   1.187   5.542  1.2308  0.4443 -0.5163
 6863TIP3    H242005   0.501   1.169   5.411 -0.1151  0.5790  0.2102
 6864TIP3   OH242006   3.921   2.730  16.682 -0.3386 -0.2240 -0.0368
 6864TIP3    H142007   3.969   2.799  16.728 -0.6939 -1.1453  1.7811
 6864TIP3    H242008   3.911   2.764  16.593  0.3566  1.6335  0.5466
 6865TIP3   OH242009   5.020   6.119  16.307  0.0176  0.3133  0.3444
 6865TIP3    H142010   4.968   6.094  16.383 -1.2906 -0.1280 -0.6598
 6865TIP3    H242011   5.046   6.036  16.267  0.2463  0.5392  0.0215
 6866TIP3   OH242012   2.927   2.990  17.315 -0.0008  0.1940 -0.7470
 6866TIP3    H142013   2.900   3.074  17.351  0.7397  0.6990 -1.3439
 6866TIP3    H242014   3.003   2.965  17.367  0.7704  0.6902 -1.5871
 6867TIP3   OH242015   5.376   4.577   5.831  0.0633 -0.3710  0.2740
 6867TIP3    H142016   5.294   4.618   5.857 -0.2597 -0.5464 -0.4625
 6867TIP3    H242017   5.443   4.626   5.880 -0.4057  0.3075  0.2527
 6868TIP3   OH242018   1.411   2.944   0.785 -0.2118 -0.9674 -0.0872
 6868TIP3    H142019   1.474   2.966   0.853 -0.6023  0.8733 -0.2640
 6868TIP3    H242020   1.333   2.915   0.833  0.3819 -2.1910  0.1577
 6869TIP3   OH242021   6.080   0.736  10.484  0.0359  0.2628  0.0827
 6869TIP3    H142022   6.150   0.785  10.528  0.3789  1.1354 -1.3803
 6869TIP3    H242023   6.106   0.735  10.392  0.2815 -3.0559  0.0621
 6870TIP3   OH242024   2.109   1.554   2.825 -0.5260  0.2578  0.2723
 6870TIP3    H142025   2.088   1.506   2.905 -0.2250  2.6218  1.8571
 6870TIP3    H242026   2.028   1.552   2.773 -1.3562  0.3677  1.5348
 6871TIP3   OH242027   0.188   2.634  16.932 -0.3464 -0.3999 -0.3666
 6871TIP3    H142028   0.160   2.699  16.997 -0.3287 -1.5783  0.8917
 6871TIP3    H242029   0.171   2.550  16.975 -0.6189 -1.2375 -2.0373
 6872TIP3   OH242030   4.888   0.395   2.830  0.0170 -0.3742 -0.6140
 6872TIP3    H142031   4.811   0.382   2.886 -0.5650  0.2796 -1.2564
 6872TIP3    H242032   4.873   0.479   2.787  1.9972  0.7430  0.6958
 6873TIP3   OH242033   3.886   0.228  10.722 -0.8727 -0.0527  0.4706
 6873TIP3    H142034   3.957   0.198  10.779  0.8304  0.6178 -1.1787
 6873TIP3    H242035   3.897   0.323  10.717 -3.6563  0.4784  2.3550
 6874TIP3   OH242036   1.917   2.651   1.744  0.7660  0.1925 -0.3692
 6874TIP3    H142037   1.929   2.702   1.664 -0.3821 -0.7659 -1.2030
 6874TIP3    H242038   1.823   2.631   1.745  0.6580  0.6276  1.5056
 6875TIP3   OH242039   4.644   2.955  15.919  0.8226 -0.0806  0.3107
 6875TIP3    H142040   4.654   3.047  15.895 -1.2748  0.1579  0.1405
 6875TIP3    H242041   4.733   2.924  15.936  1.7133  1.5728 -1.0715
 6876TIP3   OH242042   5.578   2.831  11.621  0.3841 -0.3594 -0.2266
 6876TIP3    H142043   5.524   2.804  11.547  1.2642 -0.9981 -0.6508
 6876TIP3    H242044   5.624   2.909  11.590 -1.3047  1.0126  0.6093
 6877TIP3   OH242045   6.607   3.368  11.663 -0.6678  0.1867  0.2409
 6877TIP3    H142046   6.534   3.365  11.601  0.4742  0.3629 -1.1747
 6877TIP3    H242047   6.656   3.287  11.646 -0.6493 -0.0454  1.3388
 6878TIP3   OH242048   6.210   3.247   4.097 -0.2700  0.2628 -0.5039
 6878TIP3    H142049   6.123   3.254   4.136  0.1420  0.3883  0.4118
 6878TIP3    H242050   6.241   3.160   4.123  0.2951  0.6306  0.0423
 6879TIP3   OH242051   6.442   4.575   0.344 -0.8525  0.5325 -0.0251
 6879TIP3    H142052   6.419   4.628   0.268  0.5261  0.8910 -0.2274
 6879TIP3    H242053   6.383   4.499   0.339 -0.1686  0.0547 -2.0020
 6880TIP3   OH242054   0.017   5.451   2.917 -0.9038 -0.1646  0.6822
 6880TIP3    H142055   0.078   5.472   2.846 -1.6183 -2.3234 -0.6665
 6880TIP3    H242056  -0.061   5.501   2.897 -0.3698  0.8881  1.1724
 6881TIP3   OH242057   5.205   4.571  16.371 -0.0227  0.0256  0.9621
 6881TIP3    H142058   5.247   4.643  16.326  1.3622 -1.2197  0.1710
 6881TIP3    H242059   5.249   4.565  16.456 -0.0956  0.0715  1.0035
 6882TIP3   OH242060   4.731   2.446  10.625 -0.4618  0.4049  0.6677
 6882TIP3    H142061   4.644   2.437  10.587 -0.1838  1.4786 -0.2951
 6882TIP3    H242062   4.769   2.521  10.579  0.7342  0.3439  1.5181
 6883TIP3   OH242063   4.351   0.405   4.016 -0.5490  0.5794  0.0154
 6883TIP3    H142064   4.383   0.440   3.933  0.7488 -1.5769 -0.4620
 6883TIP3    H242065   4.419   0.427   4.079  1.6793 -3.1703 -0.8129
 6884TIP3   OH242066   5.032   2.537   4.027  0.0700 -0.3234  0.2865
 6884TIP3    H142067   5.015   2.443   4.023 -0.7146 -0.1503 -0.6409
 6884TIP3    H242068   5.125   2.543   4.052  0.0336 -1.3277  0.7188
 6885TIP3   OH242069   4.779   2.667   3.997 -0.6038  0.3598  0.1622
 6885TIP3    H142070   4.860   2.625   4.029 -1.2695 -0.5647  0.6979
 6885TIP3    H242071   4.808   2.751   3.961  1.0839 -1.2526 -2.6145
 6886TIP3   OH242072   2.615   6.285   0.992 -0.3598 -0.2043 -0.6985
 6886TIP3    H142073   2.586   6.299   0.902  0.1921 -0.2116 -0.8833
 6886TIP3    H242074   2.678   6.212   0.985 -0.0703  0.0120 -0.3584
 6887TIP3   OH242075   5.429   4.567   2.924 -0.2073  0.2077 -0.0077
 6887TIP3    H142076   5.343   4.606   2.937  0.3286  1.0370  1.1898
 6887TIP3    H242077   5.474   4.627   2.865  0.0116  0.4781  0.4339
 6888TIP3   OH242078   5.886   0.068   0.136  0.0278  0.6641  0.4140
 6888TIP3    H142079   5.982   0.069   0.134  0.0199  1.1600 -0.2266
 6888TIP3    H242080   5.861   0.039   0.048 -0.4124  1.4453  0.2729
 6889TIP3   OH242081   5.919   1.291   3.746  0.2439 -0.3697  0.3344
 6889TIP3    H142082   5.987   1.252   3.801 -0.6916 -0.3726  1.5149
 6889TIP3    H242083   5.918   1.236   3.667  0.3987 -1.4475  1.0671
 6890TIP3   OH242084   1.570   4.118   2.886 -0.1794  0.2326 -0.4985
 6890TIP3    H142085   1.663   4.134   2.902 -0.3731  0.4429  0.4670
 6890TIP3    H242086   1.543   4.059   2.956 -0.7052 -0.0780 -0.9539
 6891TIP3   OH242087   2.910   4.753   6.028  0.0715 -0.9955  0.2947
 6891TIP3    H142088   2.906   4.763   6.123  0.6891  0.9797  0.1471
 6891TIP3    H242089   2.997   4.784   6.004  0.0322 -1.7445 -0.9092
 6892TIP3   OH242090   4.528   5.022   4.512 -0.0694  0.5784  0.2118
 6892TIP3    H142091   4.536   5.116   4.531  0.9051  0.3206  1.2041
 6892TIP3    H242092   4.507   4.982   4.596 -0.6191 -0.0939 -0.2281
 6893TIP3   OH242093   4.188   4.095   2.516  0.5835 -0.2044  0.1173
 6893TIP3    H142094   4.169   4.117   2.425  0.6733 -0.6172 -0.0037
 6893TIP3    H242095   4.213   4.002   2.514  1.1478 -0.0694  0.4784
 6894TIP3   OH242096   4.445   5.679  12.494  0.1333 -0.5534  0.4520
 6894TIP3    H142097   4.482   5.621  12.561  0.8975 -2.2399 -1.3445
 6894TIP3    H242098   4.390   5.622  12.440 -1.0453  0.9111  0.0452
 6895TIP3   OH242099   4.074   5.816  14.616 -0.0980 -0.1981 -0.2026
 6895TIP3    H142100   4.156   5.771  14.594  0.9022  1.3375  0.2401
 6895TIP3    H242101   4.014   5.745  14.640  0.9865 -1.3887 -0.8639
 6896TIP3   OH242102   2.493   2.964   0.361 -0.2688 -0.5808  0.1668
 6896TIP3    H142103   2.410   2.933   0.325 -0.0034 -0.0320 -0.9584
 6896TIP3    H242104   2.492   3.059   0.347  0.2728 -0.4821  0.7375
 6897TIP3   OH242105   4.287   2.766  12.709  0.6193  0.0001 -0.9923
 6897TIP3    H142106   4.358   2.709  12.680  0.8040  0.7356 -2.0055
 6897TIP3    H242107   4.309   2.786  12.800  1.8197  0.3603 -1.3356
 6898TIP3   OH242108   0.680   4.314   2.013 -0.2895  0.0310 -0.1636
 6898TIP3    H142109   0.726   4.367   2.079 -0.7048  2.4508 -1.7151
 6898TIP3    H242110   0.663   4.374   1.941 -4.3326 -1.1795 -0.4488
 6899TIP3   OH242111   0.775   3.458  12.691  0.1041 -0.4684 -0.2066
 6899TIP3    H142112   0.867   3.431  12.698  0.3224 -0.3728 -2.2371
 6899TIP3    H242113   0.778   3.544  12.648 -0.7306  1.7315  3.6590
 6900TIP3   OH242114   3.809   0.639   0.323  0.0561  0.3117  0.4349
 6900TIP3    H142115   3.901   0.644   0.348 -0.1433  2.8523  0.9437
 6900TIP3    H242116   3.765   0.605   0.400  0.3613  0.9827  0.9193
 6901TIP3   OH242117   2.339   3.558   0.272  0.2977 -0.0321  0.0201
 6901TIP3    H142118   2.300   3.591   0.353 -0.3294 -1.6564  0.4107
 6901TIP3    H242119   2.433   3.562   0.288  0.2094  0.5044  0.4660
 6902TIP3   OH242120   0.911   2.921  11.247 -0.2467 -0.6771  0.1154
 6902TIP3    H142121   0.823   2.945  11.217  0.1070 -1.8562 -2.1105
 6902TIP3    H242122   0.916   2.826  11.234  2.0948 -0.3581 -2.2010
 6903TIP3   OH242123   1.769   0.205  14.198 -0.2495  0.1762 -0.4293
 6903TIP3    H142124   1.722   0.228  14.118 -0.3293 -2.2186 -1.1289
 6903TIP3    H242125   1.701   0.180  14.260 -0.0649 -0.6730 -0.5561
 6904TIP3   OH242126   4.077   4.452   4.180  0.2084 -0.1562 -0.0868
 6904TIP3    H142127   4.025   4.463   4.101  1.2493  1.3860 -0.5978
 6904TIP3    H242128   4.119   4.366   4.170 -0.6585 -0.5312 -0.5914
 6905TIP3   OH242129   5.477   4.691   6.373 -0.1992  0.3194  0.4375
 6905TIP3    H142130   5.471   4.709   6.279  1.6492  0.8348  0.3769
 6905TIP3    H242131   5.555   4.738   6.402  0.1345 -1.0665  1.9458
 6906TIP3   OH242132   5.255   3.858  14.026  0.1452  0.2823 -0.4102
 6906TIP3    H142133   5.326   3.794  14.019 -1.6392 -1.7630 -0.8279
 6906TIP3    H242134   5.230   3.856  14.119 -0.0354  0.2271 -0.4595
 6907TIP3   OH242135   5.380   6.335   4.540  0.5307  0.3164 -0.4129
 6907TIP3    H142136   5.385   6.266   4.475  1.2852 -1.1128  1.0966
 6907TIP3    H242137   5.368   6.290   4.623  1.5233  1.9558  0.6923
 6908TIP3   OH242138   2.826   6.705   3.852 -0.5627 -0.2640 -0.1107
 6908TIP3    H142139   2.752   6.766   3.854 -1.0417 -0.8204  2.1609
 6908TIP3    H242140   2.850   6.699   3.760 -2.8217  0.5787 -0.8174
 6909TIP3   OH242141   1.445   2.159   4.141 -0.0417  0.2237  0.0982
 6909TIP3    H142142   1.478   2.233   4.089  0.2891 -0.0801 -0.1230
 6909TIP3    H242143   1.490   2.167   4.225  1.7160 -1.0134 -0.6749
 6910TIP3   OH242144   6.743   0.285  13.749 -0.3486  0.1855  0.2487
 6910TIP3    H142145   6.763   0.285  13.655  0.1092  1.9111  0.3167
 6910TIP3    H242146   6.828   0.275  13.792 -0.2844  1.5168  0.4775
 6911TIP3   OH242147   3.784   1.516  14.084  0.9893  0.6218  0.2542
 6911TIP3    H142148   3.830   1.440  14.118  2.8112  0.9890 -1.2334
 6911TIP3    H242149   3.696   1.509  14.119  0.8640 -2.5879 -0.4588
 6912TIP3   OH242150   5.534   5.503  11.238 -0.2136 -0.4064 -0.4135
 6912TIP3    H142151   5.467   5.571  11.252 -0.8165 -0.6491 -1.8698
 6912TIP3    H242152   5.511   5.434  11.300  0.0169  0.4198  0.6312
 6913TIP3   OH242153   4.766   2.675   6.557  0.1648  0.0036 -0.2538
 6913TIP3    H142154   4.750   2.676   6.652  0.9068  1.6162 -0.1155
 6913TIP3    H242155   4.682   2.702   6.519  0.2183  0.5854  0.0249
 6914TIP3   OH242156   2.633   6.581   2.312  0.4473  0.1121  0.5862
 6914TIP3    H142157   2.619   6.652   2.250 -2.6632 -0.7999  0.1116
 6914TIP3    H242158   2.709   6.610   2.363 -0.3459  3.5231  0.1022
 6915TIP3   OH242159   2.649   0.715  13.276 -0.9105 -0.1301 -0.4045
 6915TIP3    H142160   2.618   0.774  13.208  1.9709  2.4705  0.2626
 6915TIP3    H242161   2.639   0.628  13.239 -1.3240  1.0288 -3.3243
 6916TIP3   OH242162   4.516   5.785   2.005  0.1737 -0.6548  0.4031
 6916TIP3    H142163   4.539   5.807   2.096 -2.0409  0.7309  0.6839
 6916TIP3    H242164   4.575   5.840   1.953 -0.3751  0.5944  1.0518
 6917TIP3   OH242165   1.729   0.996   0.394 -0.8196  0.1253  0.3475
 6917TIP3    H142166   1.670   0.929   0.428  2.8449 -2.9753  1.2506
 6917TIP3    H242167   1.777   0.953   0.323  0.9014  2.1627  0.1564
 6918TIP3   OH242168   2.058   3.313  16.732  0.8195 -0.7058  0.2351
 6918TIP3    H142169   2.122   3.325  16.662 -0.6104 -1.2263 -1.2262
 6918TIP3    H242170   2.074   3.225  16.765  2.1086 -0.1234  1.2601
 6919TIP3   OH242171   5.346   3.818   4.396  0.2666  0.5807  0.2186
 6919TIP3    H142172   5.394   3.888   4.351 -0.1396  0.6118 -0.1718
 6919TIP3    H242173   5.260   3.855   4.414  0.3120  0.4488  0.7211
 6920TIP3   OH242174   3.929   3.936   3.200  0.2252 -0.4247  0.1572
 6920TIP3    H142175   3.892   3.964   3.284 -0.2985 -1.0808  0.1571
 6920TIP3    H242176   3.956   3.845   3.216 -0.4540 -0.7569 -0.5594
 6921TIP3   OH242177   1.388   0.617  13.244 -0.3327  0.0455 -0.1563
 6921TIP3    H142178   1.433   0.693  13.207  1.2649 -0.5277  0.5648
 6921TIP3    H242179   1.356   0.569  13.167  0.5924  0.2792 -0.7051
 6922TIP3   OH242180   3.433   6.367   5.241  0.2018 -0.0023  0.5190
 6922TIP3    H142181   3.391   6.402   5.162 -0.4469 -2.1538 -0.1581
 6922TIP3    H242182   3.527   6.375   5.225  0.0728 -0.5765 -0.5459
 6923TIP3   OH242183   3.195   3.759   4.793 -0.1318 -0.1159 -0.3685
 6923TIP3    H142184   3.118   3.815   4.782 -0.3982 -0.1847  0.9349
 6923TIP3    H242185   3.193   3.700   4.718 -2.1058 -0.9726  0.2779
 6924TIP3   OH242186   1.193   3.159  14.998 -0.1031 -0.7519 -0.2489
 6924TIP3    H142187   1.183   3.211  14.918 -1.5354  2.0365  1.5783
 6924TIP3    H242188   1.278   3.185  15.033 -0.6892  0.1759  0.5152
 6925TIP3   OH242189   4.124   1.994  15.827  0.0866  0.3184 -0.0758
 6925TIP3    H142190   4.203   1.982  15.881  0.6198  0.3423 -0.8346
 6925TIP3    H242191   4.094   1.905  15.808 -0.2805  0.3132  0.5075
 6926TIP3   OH242192   5.033   6.029  17.039  0.6070  0.8116  0.2899
 6926TIP3    H142193   4.967   5.999  16.977  1.7678  0.0175 -0.6137
 6926TIP3    H242194   5.112   6.039  16.986  2.3722 -2.4791  1.9890
 6927TIP3   OH242195   2.295   2.373   4.806  0.1670 -0.0947  1.0708
 6927TIP3    H142196   2.208   2.360   4.845  0.0106  0.0959  0.7885
 6927TIP3    H242197   2.289   2.333   4.719  0.6876 -1.0198  1.4413
 6928TIP3   OH242198   4.139   1.884  11.267 -0.2402  0.0440 -0.4508
 6928TIP3    H142199   4.164   1.947  11.334  0.3441  0.8999 -1.4385
 6928TIP3    H242200   4.220   1.865  11.221 -0.9817  1.2660 -2.3875
 6929TIP3   OH242201   4.887   4.498  16.723 -0.7603  0.1671  0.4292
 6929TIP3    H142202   4.925   4.577  16.684 -1.8582  0.1777 -0.6949
 6929TIP3    H242203   4.798   4.495  16.688 -1.8325  0.1494  2.9556
 6930TIP3   OH242204   0.993   2.321   5.254 -0.2465  0.4734  0.5993
 6930TIP3    H142205   0.918   2.365   5.213  0.4813  0.0616 -1.2393
 6930TIP3    H242206   0.966   2.230   5.262  0.3206  0.1655 -0.7923
 6931TIP3   OH242207   1.793   6.584  11.376 -0.6319 -0.1977  0.0434
 6931TIP3    H142208   1.773   6.648  11.308  0.3522 -0.2726 -0.3247
 6931TIP3    H242209   1.888   6.574  11.373 -0.6620 -0.8189  0.8734
 6932TIP3   OH242210   5.171   1.609   3.552 -0.1332 -0.0351 -0.1039
 6932TIP3    H142211   5.118   1.683   3.522 -2.0894 -1.3229  0.0767
 6932TIP3    H242212   5.139   1.590   3.640  1.0319 -0.5068  0.2361
 6933TIP3   OH242213   0.246   3.052   1.304 -0.0733  0.2182 -0.3718
 6933TIP3    H142214   0.199   2.969   1.315  1.5921 -0.6828  0.3663
 6933TIP3    H242215   0.322   3.030   1.250  1.1178  0.9290  0.9390
 6934TIP3   OH242216   0.450   5.741  14.133  0.3414  0.1937  0.4577
 6934TIP3    H142217   0.396   5.815  14.160  1.3632  0.8915  0.6662
 6934TIP3    H242218   0.530   5.750  14.185  1.1696 -0.0873 -0.7281
 6935TIP3   OH242219   2.728   2.510  13.023  0.3963 -0.4753  0.4362
 6935TIP3    H142220   2.647   2.504  12.973  1.1042 -1.5549 -0.6477
 6935TIP3    H242221   2.745   2.604  13.030 -0.5221 -0.2637 -0.0383
 6936TIP3   OH242222   3.103   3.004  12.894  0.0951  0.1236  0.1330
 6936TIP3    H142223   3.028   2.968  12.941 -0.3101  0.8795  0.0857
 6936TIP3    H242224   3.148   3.058  12.959 -0.6811  1.4775 -0.4232
 6937TIP3   OH242225   3.102   3.582   5.178 -0.0823 -0.0660  0.1189
 6937TIP3    H142226   3.110   3.546   5.267 -2.3991 -2.2194 -0.4271
 6937TIP3    H242227   3.191   3.579   5.143  0.3667 -2.5269  1.2264
 6938TIP3   OH242228   1.832   1.287  17.163  0.2306  0.3958 -0.2151
 6938TIP3    H142229   1.812   1.209  17.215 -0.6005  0.1755 -0.8359
 6938TIP3    H242230   1.927   1.284  17.150  0.3132 -0.0789  0.4394
 6939TIP3   OH242231   1.361   2.442   2.132  0.0792 -0.3982 -0.1578
 6939TIP3    H142232   1.322   2.384   2.067 -1.1379  0.2224 -0.0086
 6939TIP3    H242233   1.364   2.528   2.090  0.7644 -0.3122  0.0497
 6940TIP3   OH242234   0.625   2.751  14.704  0.0079 -0.0820 -0.5885
 6940TIP3    H142235   0.597   2.820  14.765 -0.2735  0.3231 -1.1679
 6940TIP3    H242236   0.604   2.786  14.618  1.9038  0.0539 -1.0309
 6941TIP3   OH242237   0.085   1.148   0.300 -0.4755 -0.1570  0.0440
 6941TIP3    H142238   0.178   1.169   0.292 -0.7702  1.3989  0.4535
 6941TIP3    H242239   0.062   1.175   0.388 -1.8013  1.5745 -0.7714
 6942TIP3   OH242240   1.769   1.649  12.481 -0.3139  0.3122  0.0168
 6942TIP3    H142241   1.736   1.739  12.487  0.3698  0.6885 -1.5418
 6942TIP3    H242242   1.699   1.601  12.437 -0.2795  0.2953 -0.0189
 6943TIP3   OH242243   2.200   1.907  15.007 -0.2402 -0.1367 -0.2325
 6943TIP3    H142244   2.277   1.858  14.978 -0.1989 -1.1083  1.4253
 6943TIP3    H242245   2.234   1.994  15.027  0.1021 -0.0634 -1.0597
 6944TIP3   OH242246   0.128   5.834   5.381  0.7299 -0.1304  0.3174
 6944TIP3    H142247   0.102   5.880   5.301  2.1703 -0.3886 -0.3359
 6944TIP3    H242248   0.064   5.763   5.390 -0.8021  1.2545  0.6857
 6945TIP3   OH242249   2.460   3.691  14.979 -0.2229  0.0668 -0.1140
 6945TIP3    H142250   2.488   3.600  14.967 -0.6324  0.2942 -4.0833
 6945TIP3    H242251   2.396   3.687  15.050 -1.1656 -3.0041 -0.9648
 6946TIP3   OH242252   2.081   4.482   3.159 -0.6402  0.2120  0.3364
 6946TIP3    H142253   2.144   4.528   3.103 -1.1375 -2.1264 -2.4264
 6946TIP3    H242254   2.008   4.543   3.168 -0.2621  0.9346 -1.1006
 6947TIP3   OH242255   5.472   2.039   6.762  0.6949 -0.3911 -0.0778
 6947TIP3    H142256   5.543   2.095   6.732 -0.4465 -0.4066 -3.0552
 6947TIP3    H242257   5.516   1.960   6.794  2.0919  0.5685  0.4861
 6948TIP3   OH242258   1.549   0.642  12.930 -0.2815  0.0225  0.9365
 6948TIP3    H142259   1.644   0.642  12.940  0.0027 -1.3963 -1.0623
 6948TIP3    H242260   1.525   0.549  12.934 -1.6487  0.3895  1.8024
 6949TIP3   OH242261   5.479   5.881   0.129  0.9518 -0.0213  0.1795
 6949TIP3    H142262   5.546   5.899   0.195 -0.0197  0.3539  1.0965
 6949TIP3    H242263   5.405   5.845   0.179  1.5153 -3.3681 -1.1351
 6950TIP3   OH242264   6.049   2.064  16.799  0.5130  0.0637  0.3867
 6950TIP3    H142265   6.011   2.131  16.857  1.2083  0.8218 -0.0116
 6950TIP3    H242266   6.066   2.110  16.717  0.1474 -0.8410 -0.2040
 6951TIP3   OH242267   3.270   3.734  14.454  0.0019 -0.2672  0.4306
 6951TIP3    H142268   3.310   3.742  14.541  1.3295 -0.2422 -0.1472
 6951TIP3    H242269   3.246   3.824  14.430 -1.2118 -0.3857  1.1252
 6952TIP3   OH242270   2.434   4.828  15.459 -0.6639  0.2586 -0.1827
 6952TIP3    H142271   2.414   4.797  15.547 -0.0990  0.5455  0.0559
 6952TIP3    H242272   2.437   4.923  15.467 -0.5770  0.2830 -0.4993
 6953TIP3   OH242273   4.744   1.641  12.701 -0.1354 -0.2313 -0.2445
 6953TIP3    H142274   4.743   1.552  12.737 -0.2706 -0.4680 -0.8109
 6953TIP3    H242275   4.832   1.673  12.717 -0.8481  0.6207  2.5174
 6954TIP3   OH242276   1.033   0.564   5.225  0.1733 -0.5701 -0.3768
 6954TIP3    H142277   1.043   0.550   5.131 -1.3697 -0.1888 -0.6128
 6954TIP3    H242278   0.974   0.639   5.232 -0.0518 -0.8558  0.9059
 6955TIP3   OH242279   3.660   5.420  12.158  0.1346  0.1524  0.0443
 6955TIP3    H142280   3.600   5.348  12.143 -0.2757  0.2200  1.2104
 6955TIP3    H242281   3.660   5.432  12.253  1.4387  0.6276  0.0131
 6956TIP3   OH242282   1.442   2.422  11.461  0.1201  0.0896 -0.1472
 6956TIP3    H142283   1.522   2.370  11.453  0.6998  1.1474 -1.9973
 6956TIP3    H242284   1.469   2.511  11.437 -1.4460  0.6225 -0.0511
 6957TIP3   OH242285   6.278   5.294  14.193 -0.0954 -0.0892  0.3860
 6957TIP3    H142286   6.230   5.244  14.128 -0.2192 -1.3061  1.3726
 6957TIP3    H242287   6.212   5.321  14.257 -0.0261  1.3547 -0.1061
 6958TIP3   OH242288   3.588   6.172  12.679 -0.7967 -0.4610  0.0511
 6958TIP3    H142289   3.596   6.252  12.732  0.7969 -1.6503  1.7453
 6958TIP3    H242290   3.542   6.110  12.736 -0.6614 -1.2299 -0.6549
 6959TIP3   OH242291   3.770   0.623   1.570 -0.6446 -0.3059 -0.1833
 6959TIP3    H142292   3.861   0.635   1.543 -0.7527  0.8265 -0.0960
 6959TIP3    H242293   3.775   0.558   1.641  0.0258 -0.6530 -0.5355
 6960TIP3   OH242294   0.395   6.385   5.064  0.0809  0.1769 -0.1742
 6960TIP3    H142295   0.452   6.409   5.137 -0.9488  2.6385 -0.0851
 6960TIP3    H242296   0.309   6.419   5.089 -0.8305 -1.0329 -1.5138
 6961TIP3   OH242297   0.533   5.086  12.783  0.5749 -0.4409 -0.0591
 6961TIP3    H142298   0.473   5.065  12.855  1.2407  0.4987  0.8111
 6961TIP3    H242299   0.615   5.042  12.808  1.0015  0.4309  0.1073
 6962TIP3   OH242300   3.006   1.006  12.431  0.2481 -0.4915 -0.3591
 6962TIP3    H142301   3.087   0.956  12.441  0.3434 -0.3328 -0.3351
 6962TIP3    H242302   3.002   1.061  12.509 -0.1649 -0.8991 -0.0888
 6963TIP3   OH242303   1.791   6.666   3.041  0.2431  0.0264  0.0914
 6963TIP3    H142304   1.861   6.620   2.996 -0.5109 -1.0172 -0.0565
 6963TIP3    H242305   1.720   6.671   2.977 -0.4296 -0.4700  0.7723
 6964TIP3   OH242306   0.288   2.045   3.642 -0.4766  0.2674 -0.0080
 6964TIP3    H142307   0.281   2.105   3.716 -1.3142  0.8684 -0.5581
 6964TIP3    H242308   0.200   2.041   3.605  0.6280  3.8688 -3.9273
 6965TIP3   OH242309   2.575   1.277  15.819 -0.2420  0.3308 -0.2430
 6965TIP3    H142310   2.514   1.220  15.866  0.1589  1.0009  1.1531
 6965TIP3    H242311   2.658   1.267  15.865  0.6931 -0.4335 -2.0098
 6966TIP3   OH242312   0.847   6.750   3.247  0.3161  0.1132  0.3051
 6966TIP3    H142313   0.809   6.837   3.261 -1.1760 -0.0512 -2.1330
 6966TIP3    H242314   0.905   6.761   3.172 -1.0302 -1.2488 -1.0000
 6967TIP3   OH242315   2.093   6.360   5.450  0.4257 -0.1012  0.2805
 6967TIP3    H142316   2.182   6.390   5.469  0.7110 -1.3615  1.0930
 6967TIP3    H242317   2.036   6.431   5.480  1.0701 -0.2805  1.9938
 6968TIP3   OH242318   6.439   4.844  14.964  0.3714  0.2613  0.2355
 6968TIP3    H142319   6.386   4.819  15.040  1.4879 -1.2184  0.5872
 6968TIP3    H242320   6.448   4.762  14.914  0.1528  1.0786 -1.1888
 6969TIP3   OH242321   0.501   6.428   1.555  0.1765 -0.3959  0.2291
 6969TIP3    H142322   0.434   6.426   1.624 -0.2580 -0.0520 -0.1749
 6969TIP3    H242323   0.452   6.414   1.474  0.6354 -0.4233 -0.0465
 6970TIP3   OH242324   3.749   0.060   0.539  0.3574  0.6438  0.9058
 6970TIP3    H142325   3.815   0.002   0.499 -0.5100  0.4120 -0.2596
 6970TIP3    H242326   3.772   0.062   0.631  1.7211  0.1927  0.6049
 6971TIP3   OH242327   1.054   4.175  10.568  0.0872  0.3319 -0.1020
 6971TIP3    H142328   0.984   4.112  10.551 -0.6857  0.6026  1.8330
 6971TIP3    H242329   1.113   4.131  10.629  1.4644  0.2528 -1.4109
 6972TIP3   OH242330   0.608   3.339   5.552  0.0511  0.5662  0.2666
 6972TIP3    H142331   0.560   3.372   5.476  0.2451 -0.8479 -0.5139
 6972TIP3    H242332   0.691   3.386   5.551  0.3175  0.0884 -0.7943
 6973TIP3   OH242333   3.468   5.368   2.778 -0.6121  0.0571 -0.4069
 6973TIP3    H142334   3.387   5.403   2.816 -0.5799 -0.4789  0.1763
 6973TIP3    H242335   3.484   5.423   2.701 -1.2059  0.5503 -0.1902
 6974TIP3   OH242336   3.004   5.187   1.410  0.0698  1.1604  0.7870
 6974TIP3    H142337   3.042   5.107   1.445  0.2359  0.2659 -1.2729
 6974TIP3    H242338   3.079   5.239   1.380 -0.1333  1.2019  0.3441
 6975TIP3   OH242339   4.998   1.854  12.217 -0.0319  0.0064 -0.5400
 6975TIP3    H142340   4.947   1.800  12.277  1.9718 -0.1587  1.1344
 6975TIP3    H242341   4.951   1.937  12.212 -0.3169 -0.0117  1.2346
 6976TIP3   OH242342   3.232   6.507  14.059 -0.4278  0.3020 -0.2023
 6976TIP3    H142343   3.315   6.532  14.017  0.2971 -0.6419  0.6214
 6976TIP3    H242344   3.219   6.416  14.031 -1.0052  0.3405 -0.0497
 6977TIP3   OH242345   1.141   0.178  10.523  0.6891 -0.1389 -0.6865
 6977TIP3    H142346   1.093   0.118  10.466 -0.0919 -0.5524  0.3776
 6977TIP3    H242347   1.103   0.264  10.505  1.5864  0.0369 -1.9710
 6978TIP3   OH242348   3.862   3.808  15.030 -0.7816  0.6797 -0.3787
 6978TIP3    H142349   3.908   3.854  14.960  0.7120  2.7681  1.8406
 6978TIP3    H242350   3.810   3.875  15.074  0.6603  0.1728  2.3346
 6979TIP3   OH242351   2.977   1.782   4.256  0.0084  0.0016 -0.1684
 6979TIP3    H142352   3.028   1.853   4.218 -0.7545 -0.5994 -2.4629
 6979TIP3    H242353   2.920   1.826   4.320 -0.8124  1.5775 -1.8853
 6980TIP3   OH242354   1.041   5.713   0.050  0.4098  0.2494 -0.0604
 6980TIP3    H142355   0.983   5.638   0.045  0.1384  0.2329  2.0841
 6980TIP3    H242356   0.986   5.782   0.089  1.5171  0.5093  1.1211
 6981TIP3   OH242357   2.355   2.254   1.667  0.1850  0.5823 -0.7872
 6981TIP3    H142358   2.389   2.168   1.691  2.8821  0.9141 -2.9599
 6981TIP3    H242359   2.365   2.307   1.747  1.5764 -0.2787 -0.3569
 6982TIP3   OH242360   4.585   5.360   5.183  0.5238 -0.5708 -0.2950
 6982TIP3    H142361   4.624   5.285   5.227  0.3565 -2.0653 -2.5338
 6982TIP3    H242362   4.650   5.430   5.192  0.4030 -0.6798  2.3909
 6983TIP3   OH242363   4.106   2.987   6.474  0.5966  0.1805 -0.8372
 6983TIP3    H142364   4.137   2.904   6.511 -2.9539 -0.8039  0.4028
 6983TIP3    H242365   4.140   3.054   6.534  1.5848 -0.5907 -0.5072
 6984TIP3   OH242366   5.632   1.191  12.485 -0.5778 -0.1739  0.6363
 6984TIP3    H142367   5.674   1.107  12.465 -0.8995  0.2975 -2.6180
 6984TIP3    H242368   5.539   1.170  12.494 -0.5074 -0.3028  1.1195
 6985TIP3   OH242369   4.181   6.253   6.545  0.0531  0.3480 -0.6353
 6985TIP3    H142370   4.226   6.223   6.467  0.1087  1.2629 -0.9653
 6985TIP3    H242371   4.190   6.348   6.543 -1.1420  0.4834 -0.2521
 6986TIP3   OH242372   6.391   0.563  10.709  0.4570 -0.3617 -0.4398
 6986TIP3    H142373   6.374   0.613  10.629  1.4692 -0.9514 -1.0553
 6986TIP3    H242374   6.460   0.501  10.684  1.1054 -0.2790  1.0013
 6987TIP3   OH242375   2.752   3.103   5.469  0.8858 -0.6562  0.2196
 6987TIP3    H142376   2.708   3.095   5.385  0.5871  1.1597  0.1798
 6987TIP3    H242377   2.719   3.029   5.521 -0.8844 -0.3185 -0.3857
 6988TIP3   OH242378   5.327   6.098  14.026 -0.3810 -0.0507  0.1059
 6988TIP3    H142379   5.366   6.135  13.947 -0.6922  1.3372  0.5607
 6988TIP3    H242380   5.269   6.030  13.995 -1.1065  1.0157 -0.9599
 6989TIP3   OH242381   0.431   4.398   4.629  0.4481  0.1477 -0.1875
 6989TIP3    H142382   0.432   4.379   4.723  0.7936  0.6641 -0.0861
 6989TIP3    H242383   0.356   4.457   4.618  1.6952  1.8392  0.1164
 6990TIP3   OH242384   4.206   0.985  15.205 -0.4430 -0.8941  0.4588
 6990TIP3    H142385   4.284   0.930  15.196 -0.6410 -0.9871 -0.9102
 6990TIP3    H242386   4.220   1.034  15.286 -0.0016 -2.5413  1.4054
 6991TIP3   OH242387   2.949   5.719  15.387 -0.2436 -0.1706  0.1499
 6991TIP3    H142388   3.013   5.790  15.384  0.6454 -0.9535  0.0131
 6991TIP3    H242389   2.865   5.763  15.401  0.3971  0.8436  1.0241
 6992TIP3   OH242390   1.323   2.938   2.129 -0.6746 -0.1024 -0.0140
 6992TIP3    H142391   1.323   2.988   2.211  1.3439  1.2005 -0.7306
 6992TIP3    H242392   1.293   3.000   2.063  0.1202 -0.3679 -0.6359
 6993TIP3   OH242393   1.997   3.980  12.027 -0.1475 -0.5788  0.0529
 6993TIP3    H142394   1.912   3.939  12.010 -0.7588  0.9700 -0.8697
 6993TIP3    H242395   1.975   4.063  12.068  0.8233  0.4048 -1.3236
 6994TIP3   OH242396   0.941   4.470   0.995  0.0337  0.0149  0.0705
 6994TIP3    H142397   0.969   4.463   0.904  1.0180  0.6490  0.3122
 6994TIP3    H242398   1.006   4.419   1.044  0.0242  0.4122  0.5073
 6995TIP3   OH242399   5.011   4.410   4.503 -0.1712 -0.5393 -0.1228
 6995TIP3    H142400   4.967   4.358   4.436 -0.2944 -0.8170  0.1703
 6995TIP3    H242401   5.098   4.372   4.510  0.0556 -0.1115 -0.5676
 6996TIP3   OH242402   2.765   5.505  13.421 -0.3019  0.2235  0.8199
 6996TIP3    H142403   2.771   5.417  13.383  1.2198  0.8940 -0.6003
 6996TIP3    H242404   2.828   5.505  13.493  1.1913  0.7008 -0.4310
 6997TIP3   OH242405   3.297   3.060   4.156  0.2598  0.1439  0.1338
 6997TIP3    H142406   3.322   3.035   4.067  0.9732  1.3956 -0.0433
 6997TIP3    H242407   3.256   2.982   4.192 -1.3054  0.0096 -1.7602
 6998TIP3   OH242408   6.055   3.250   5.523  0.3154  0.4385  0.3711
 6998TIP3    H142409   5.972   3.298   5.523 -0.6773 -1.1044 -1.6780
 6998TIP3    H242410   6.029   3.159   5.536  1.9084  0.1280  1.6498
 6999TIP3   OH242411   5.594   3.240   1.725 -0.1069 -0.1791 -0.2540
 6999TIP3    H142412   5.514   3.280   1.693 -0.3437 -0.5274 -0.1076
 6999TIP3    H242413   5.654   3.241   1.651  0.7918  2.7238  0.3921
 7000TIP3   OH242414   5.288   5.562  12.985  0.7228 -0.2044 -0.1139
 7000TIP3    H142415   5.278   5.521  13.071  0.5997  2.8922  1.4912
 7000TIP3    H242416   5.362   5.516  12.945 -0.4334 -2.9987  0.7786
 7001TIP3   OH242417   5.408   0.804  16.715 -0.2550  0.4828  0.5369
 7001TIP3    H142418   5.491   0.773  16.679 -1.1262 -2.8680  1.1029
 7001TIP3    H242419   5.414   0.788  16.809 -2.1835 -1.7249  0.3780
 7002TIP3   OH242420   4.172   2.498   2.704  0.1562 -0.3297  0.2061
 7002TIP3    H142421   4.188   2.582   2.662  0.1673 -0.3983  0.0718
 7002TIP3    H242422   4.160   2.437   2.631  0.4864 -0.5089  0.3007
 7003TIP3   OH242423   4.290   5.281   4.733  0.1332  0.2505 -0.7031
 7003TIP3    H142424   4.296   5.186   4.737 -0.7559  0.1474 -1.5257
 7003TIP3    H242425   4.249   5.306   4.816  1.3129  0.0277 -0.0233
 7004TIP3   OH242426   1.483   2.121  15.306  0.7273 -0.3088  0.4543
 7004TIP3    H142427   1.508   2.194  15.362 -0.3297 -1.1116  2.0622
 7004TIP3    H242428   1.398   2.146  15.270 -0.4219 -1.3392  2.2906
 7005TIP3   OH242429   0.729   5.713   2.878 -0.0355 -0.5247  0.3931
 7005TIP3    H142430   0.651   5.720   2.934  1.3988  0.6631  2.3438
 7005TIP3    H242431   0.733   5.621   2.854 -1.9758 -0.6292  0.3146
 7006TIP3   OH242432   4.327   3.799  16.081 -0.2210 -0.3346 -0.4364
 7006TIP3    H142433   4.364   3.725  16.033  0.3092 -0.2243 -0.2041
 7006TIP3    H242434   4.246   3.764  16.120 -0.7873 -0.3612 -1.5873
 7007TIP3   OH242435   3.661   4.461  14.881 -0.2974 -0.2516  0.7418
 7007TIP3    H142436   3.643   4.533  14.820  0.5265 -0.5083  0.1779
 7007TIP3    H242437   3.695   4.504  14.959  0.2033 -0.0285  0.4010
 7008TIP3   OH242438   6.365   2.166  15.478 -0.3094  0.1357  0.0910
 7008TIP3    H142439   6.295   2.103  15.496  0.6571 -0.7864  0.7516
 7008TIP3    H242440   6.425   2.120  15.420 -0.3820  1.0168 -0.7025
 7009TIP3   OH242441   2.519   4.730   2.356 -0.5381 -0.1022 -0.1560
 7009TIP3    H142442   2.563   4.665   2.302  0.2035  1.1145 -1.0449
 7009TIP3    H242443   2.590   4.771   2.406 -1.1444 -0.8362  1.4039
 7010TIP3   OH242444   1.644   4.291   1.702 -0.2405 -0.2399 -0.7659
 7010TIP3    H142445   1.720   4.234   1.691 -0.6803 -0.7804 -1.0803
 7010TIP3    H242446   1.681   4.374   1.732  0.2557 -1.2633  1.7494
 7011TIP3   OH242447   1.399   5.806  14.086 -0.3838 -0.1153  0.4949
 7011TIP3    H142448   1.443   5.730  14.124 -2.0473 -0.7614  1.2537
 7011TIP3    H242449   1.437   5.881  14.130 -0.3569 -0.6842  1.4636
 7012TIP3   OH242450   6.576   4.317   5.669  0.1767 -0.6352 -0.1820
 7012TIP3    H142451   6.652   4.376   5.666 -0.1580 -0.2436 -1.1517
 7012TIP3    H242452   6.595   4.258   5.741  0.9090  0.1426  0.2854
 7013TIP3   OH242453   2.609   3.739   3.137  0.2038 -0.0276  0.3453
 7013TIP3    H142454   2.641   3.721   3.226 -0.5518 -1.9024  0.2989
 7013TIP3    H242455   2.554   3.816   3.146  0.2256 -0.1299  1.4914
 7014TIP3   OH242456   1.408   2.818   1.766  0.3043 -0.0711 -0.0025
 7014TIP3    H142457   1.355   2.778   1.697  0.4119  0.5312 -0.4419
 7014TIP3    H242458   1.384   2.770   1.845 -0.3701 -0.2751 -0.3230
 7015TIP3   OH242459   2.330   6.098   5.493  0.3570  0.0825 -0.5734
 7015TIP3    H142460   2.338   6.012   5.535 -1.9697 -1.0346 -2.1552
 7015TIP3    H242461   2.297   6.156   5.562  0.6480 -0.6274  0.1791
 7016TIP3   OH242462   4.000   4.203   6.769 -0.1202 -0.1149  0.0222
 7016TIP3    H142463   3.921   4.227   6.817  0.1108 -0.0806  0.3918
 7016TIP3    H242464   3.993   4.108   6.757  0.1230 -0.2180  0.6792
 7017TIP3   OH242465   2.326   5.806   2.567 -0.1160  0.6257  0.1138
 7017TIP3    H142466   2.376   5.885   2.548 -1.4160  1.4480 -0.0535
 7017TIP3    H242467   2.332   5.753   2.487  1.2154  0.2824  0.4239
 7018TIP3   OH242468   3.573   6.341   3.365 -0.5103  0.2599 -0.1980
 7018TIP3    H142469   3.588   6.324   3.458 -0.7427  1.9588  0.1909
 7018TIP3    H242470   3.617   6.424   3.349 -0.4147 -0.0399 -1.6398
 7019TIP3   OH242471   0.947   5.824   3.062  0.3362 -0.1668 -0.1090
 7019TIP3    H142472   0.960   5.762   2.990 -1.6567 -1.5124  0.5992
 7019TIP3    H242473   0.880   5.884   3.029 -1.8148 -1.7638  1.0786
 7020TIP3   OH242474   1.250   0.122  11.665 -0.4696 -0.2062  0.3172
 7020TIP3    H142475   1.272   0.204  11.621  1.7214 -1.1098 -0.4481
 7020TIP3    H242476   1.246   0.058  11.594  0.2201 -1.1671  1.1258
 7021TIP3   OH242477   5.194   0.073   5.266 -0.2773  0.4633 -0.2710
 7021TIP3    H142478   5.228   0.092   5.353  1.7125  0.5983 -1.0173
 7021TIP3    H242479   5.238   0.137   5.209 -0.7119 -0.3033 -1.5146
 7022TIP3   OH242480   4.416   2.172  11.839  0.1222  0.3184 -0.2621
 7022TIP3    H142481   4.404   2.078  11.854 -1.8035  0.5542 -0.0373
 7022TIP3    H242482   4.375   2.214  11.915  1.8221  1.3580  0.1333
 7023TIP3   OH242483   6.554   1.129  15.765 -0.2813  0.2776  0.0522
 7023TIP3    H142484   6.590   1.087  15.843  2.3180  0.6636 -0.8184
 7023TIP3    H242485   6.615   1.104  15.695 -1.5800  1.2996 -1.5028
 7024TIP3   OH242486   6.261   3.598  11.486 -0.2218 -0.2648 -0.1782
 7024TIP3    H142487   6.289   3.677  11.531 -1.2599  0.0625 -0.1021
 7024TIP3    H242488   6.256   3.624  11.394  1.6135 -0.8551 -0.4852
 7025TIP3   OH242489   0.462   2.869   2.302  0.3753 -0.5100 -0.0560
 7025TIP3    H142490   0.370   2.850   2.321 -0.4924  2.4232 -0.8072
 7025TIP3    H242491   0.491   2.795   2.249 -1.1807 -2.0604  1.1451
 7026TIP3   OH242492   4.270   4.467  15.418  0.5815  0.2145  0.5719
 7026TIP3    H142493   4.298   4.531  15.353  3.3351  0.2513  1.6460
 7026TIP3    H242494   4.338   4.400  15.416 -0.5261 -0.9925  1.7372
 7027TIP3   OH242495   1.580   1.147   1.897  0.0085  0.1739 -0.2238
 7027TIP3    H142496   1.632   1.227   1.884 -0.5157  0.2201 -2.4517
 7027TIP3    H242497   1.554   1.151   1.988  2.6456  0.9118  0.6007
 7028TIP3   OH242498   6.287   1.821  15.499 -0.6393 -0.0390  0.0985
 7028TIP3    H142499   6.210   1.764  15.499 -0.3787 -0.4041 -0.5741
 7028TIP3    H242500   6.278   1.874  15.420 -0.7602  0.7015  0.6005
 7029TIP3   OH242501   0.370   1.477  11.369  0.1723 -0.3508 -0.1227
 7029TIP3    H142502   0.339   1.388  11.383  3.1527 -1.5039 -0.0867
 7029TIP3    H242503   0.369   1.488  11.274  1.5369 -1.1827 -0.2611
 7030TIP3   OH242504   1.387   3.287  12.327 -0.2762  0.7207  0.5664
 7030TIP3    H142505   1.376   3.380  12.310  0.7323  0.9057  0.8879
 7030TIP3    H242506   1.455   3.259  12.266  1.1467  0.7279  2.0734
 7031TIP3   OH242507   5.730   0.173  16.160  0.6633  0.0885 -0.2281
 7031TIP3    H142508   5.796   0.172  16.091  0.0573 -0.9398 -0.8099
 7031TIP3    H242509   5.759   0.105  16.221 -0.8048 -1.6870 -1.4312
 7032TIP3   OH242510   1.782   5.428  16.717  0.3895 -0.3541  0.4326
 7032TIP3    H142511   1.742   5.514  16.722 -0.0287 -0.5819  1.3525
 7032TIP3    H242512   1.876   5.444  16.718  0.3729  0.1913 -1.7745
 7033TIP3   OH242513   4.920   5.802   0.010 -0.3249  0.0613  0.6105
 7033TIP3    H142514   4.932   5.746   0.087 -0.0719  0.7122  1.0438
 7033TIP3    H242515   5.008   5.821  -0.020 -0.3275  1.8656  1.6534
 7034TIP3   OH242516   1.053   2.460  11.926  0.2877 -0.0146  0.5898
 7034TIP3    H142517   1.036   2.492  12.015  1.3900  1.2071  0.3930
 7034TIP3    H242518   0.967   2.439  11.891 -0.0289 -3.0623  2.8207
 7035TIP3   OH242519   2.165   1.781  17.236  0.2535 -0.4301 -0.1413
 7035TIP3    H142520   2.232   1.849  17.240  0.6113 -0.8229  0.7593
 7035TIP3    H242521   2.086   1.826  17.206  0.6996  0.2036 -0.3800
 7036TIP3   OH242522   2.271   4.112   0.600  0.5733  0.4344 -0.2263
 7036TIP3    H142523   2.207   4.054   0.558 -0.0245  0.6861  0.3294
 7036TIP3    H242524   2.230   4.138   0.682  1.4891  0.4104  0.2558
 7037TIP3   OH242525   1.877   0.396   0.521  0.6105  0.1462 -0.0176
 7037TIP3    H142526   1.902   0.345   0.445  0.2516  0.3862 -0.3003
 7037TIP3    H242527   1.850   0.331   0.586  0.9993 -0.0627 -0.0621
 7038TIP3   OH242528   2.495   6.740  12.048 -0.0023 -0.7096 -0.1136
 7038TIP3    H142529   2.460   6.789  11.974  1.7788  1.1597  0.2077
 7038TIP3    H242530   2.563   6.796  12.084 -0.6222 -1.6591  2.8117
 7039TIP3   OH242531   6.131   1.383  14.501 -0.3359  0.3238 -0.1111
 7039TIP3    H142532   6.078   1.446  14.452 -0.2540 -0.8185 -1.7707
 7039TIP3    H242533   6.221   1.403  14.474  0.3125  2.7248  3.2297
 7040TIP3   OH242534   5.895   4.019   5.324 -0.1068  0.5464  0.8052
 7040TIP3    H142535   5.854   4.070   5.255 -1.2194  0.5706  1.4542
 7040TIP3    H242536   5.960   4.077   5.362  2.4990 -0.3670 -1.9439
 7041TIP3   OH242537   3.792   3.893   1.162 -0.1386 -0.4613 -0.0739
 7041TIP3    H142538   3.849   3.910   1.087  0.4434  0.5809  0.5851
 7041TIP3    H242539   3.816   3.805   1.191 -0.1358 -0.7400 -0.9093
 7042TIP3   OH242540   0.410   3.165  14.536  0.0111 -0.1992  0.4278
 7042TIP3    H142541   0.502   3.144  14.549  0.0735  1.3914  3.4263
 7042TIP3    H242542   0.389   3.128  14.450  3.1373 -1.4794  0.0757
 7043TIP3   OH242543   2.593   5.383   5.753  0.7038 -0.5394 -0.1904
 7043TIP3    H142544   2.626   5.457   5.703 -1.2489  0.4411 -0.1009
 7043TIP3    H242545   2.664   5.361   5.813  1.2721  1.3358 -0.1332
 7044TIP3   OH242546   0.987   6.394  12.270  0.4612 -0.6098 -0.3772
 7044TIP3    H142547   1.078   6.418  12.289 -1.2454  4.4303  3.7016
 7044TIP3    H242548   0.967   6.437  12.187  1.1324  0.7656  0.1438
 7045TIP3   OH242549   2.648   6.403  14.326  0.8709 -0.4417  0.4515
 7045TIP3    H142550   2.680   6.491  14.306 -0.6642 -0.0373 -0.3930
 7045TIP3    H242551   2.725   6.347  14.318  1.4680  0.5261 -1.0292
 7046TIP3   OH242552   1.999   3.274  10.912  0.1646 -0.0703  0.2334
 7046TIP3    H142553   2.031   3.185  10.925 -2.4932 -1.4308 -1.5638
 7046TIP3    H242554   1.927   3.283  10.974  0.5821  0.9500  0.5892
 7047TIP3   OH242555   5.846   0.161  15.400  0.4353  0.0769 -0.0269
 7047TIP3    H142556   5.875   0.133  15.486  0.2445 -0.6168 -0.1757
 7047TIP3    H242557   5.889   0.100  15.339  0.4366  0.4498 -0.4059
 7048TIP3   OH242558   6.364   3.538  13.615  0.1692  0.5831  0.0733
 7048TIP3    H142559   6.294   3.476  13.595  1.4302 -0.3409 -1.7925
 7048TIP3    H242560   6.347   3.612  13.556  1.5800 -0.3425 -1.5930
 7049TIP3   OH242561   1.876   6.304   2.732  0.1018 -0.4974 -0.0856
 7049TIP3    H142562   1.865   6.395   2.702 -0.4023 -1.0131 -1.5399
 7049TIP3    H242563   1.970   6.289   2.728  0.1024 -0.3444 -0.8286
 7050TIP3   OH242564   5.683   4.118   0.022 -0.3259 -0.0095 -0.1787
 7050TIP3    H142565   5.711   4.186  -0.039  1.1288 -1.0289 -0.7221
 7050TIP3    H242566   5.697   4.036  -0.025 -0.5260 -0.7592  1.0135
 7051TIP3   OH242567   2.247   2.817   4.677  0.0403  0.3163  0.1946
 7051TIP3    H142568   2.317   2.883   4.683  0.9548 -0.5653 -0.4025
 7051TIP3    H242569   2.167   2.865   4.698  0.8888  1.2220  1.5314
 7052TIP3   OH242570   6.091   1.592  11.756 -0.2679  0.7438  0.2332
 7052TIP3    H142571   6.000   1.568  11.737  0.3682 -0.4533 -1.6128
 7052TIP3    H242572   6.131   1.510  11.786  0.2618  1.1997  0.7829
 7053TIP3   OH242573   6.487   2.296   5.811  0.1081 -0.1277 -0.6233
 7053TIP3    H142574   6.539   2.234   5.862  1.2527  0.8821 -0.5394
 7053TIP3    H242575   6.550   2.341   5.755 -0.9250 -0.1307 -1.8358
 7054TIP3   OH242576   2.983   4.006   3.650 -0.1275  0.1985  0.3913
 7054TIP3    H142577   2.920   3.948   3.693  1.2747 -2.3871 -0.7655
 7054TIP3    H242578   2.934   4.050   3.581 -1.3372  0.7938  1.5950
 7055TIP3   OH242579   2.870   3.515   3.932 -0.1242 -0.2907 -0.0868
 7055TIP3    H142580   2.919   3.438   3.904  0.2525  0.1738 -0.7348
 7055TIP3    H242581   2.921   3.589   3.900 -1.5099  0.2104 -1.2573
 7056TIP3   OH242582   6.414   0.435   6.346 -0.0293 -0.2490  0.0354
 7056TIP3    H142583   6.504   0.437   6.379 -1.0309  1.2004  3.0061
 7056TIP3    H242584   6.375   0.359   6.389 -0.2569 -0.9925 -1.3977
 7057TIP3   OH242585   5.136   0.285  13.201  0.1401  0.2573 -0.2866
 7057TIP3    H142586   5.183   0.205  13.175 -1.4784 -0.2397 -1.9178
 7057TIP3    H242587   5.164   0.350  13.136 -0.2616  0.3634 -0.3572
 7058TIP3   OH242588   5.911   2.328  15.558 -0.3453 -0.0321  0.4516
 7058TIP3    H142589   5.865   2.411  15.561 -0.1748  0.0383  1.6923
 7058TIP3    H242590   5.936   2.317  15.466 -1.0873  0.8778  0.1338
 7059TIP3   OH242591   6.388   0.468   4.955 -0.1583 -0.0421  0.1703
 7059TIP3    H142592   6.428   0.391   4.995 -1.1778 -0.4686  0.3937
 7059TIP3    H242593   6.342   0.434   4.878  0.0327  0.4665 -0.1766
 7060TIP3   OH242594   4.810   5.287  17.333 -0.0760  0.2694  0.3770
 7060TIP3    H142595   4.897   5.273  17.296  1.3030  1.8756  2.7723
 7060TIP3    H242596   4.815   5.251  17.421 -1.4939  1.3728  0.9481
 7061TIP3   OH242597   5.851   4.361   3.568 -0.2456  0.2634 -0.2114
 7061TIP3    H142598   5.843   4.363   3.663  1.4604 -1.4249  0.0269
 7061TIP3    H242599   5.902   4.439   3.546  0.7811 -0.1945  0.4688
 7062TIP3   OH242600   3.258   2.871  14.092 -0.4955 -0.6015 -0.1682
 7062TIP3    H142601   3.224   2.952  14.052  1.0373 -0.0395 -0.4027
 7062TIP3    H242602   3.348   2.865  14.060  0.2918 -0.9742  1.9453
 7063TIP3   OH242603   6.313   0.263   5.177  1.3221  0.0590 -0.5423
 7063TIP3    H142604   6.322   0.351   5.214  1.5373 -0.8196  1.6435
 7063TIP3    H242605   6.222   0.239   5.194  2.0045 -1.2285  1.5845
 7064TIP3   OH242606   1.770   2.775  11.086 -0.4595  0.2994  0.4443
 7064TIP3    H142607   1.800   2.773  11.177  1.4159 -1.8421 -0.1240
 7064TIP3    H242608   1.741   2.686  11.068  0.1137  0.4218 -1.3164
 7065TIP3   OH242609   4.576   2.883   1.775 -0.0961  0.0215 -0.3147
 7065TIP3    H142610   4.586   2.930   1.692 -1.5707  0.1836 -0.4184
 7065TIP3    H242611   4.640   2.923   1.834  0.5599  0.2942 -1.1903
 7066TIP3   OH242612   3.830   4.511   4.415  0.0959 -0.0792  0.1040
 7066TIP3    H142613   3.910   4.546   4.376  0.4797  0.6517  1.4540
 7066TIP3    H242614   3.767   4.509   4.343  0.6428  1.6008 -0.4865
 7067TIP3   OH242615   0.363   0.021   6.110  0.4810  0.2002 -0.6629
 7067TIP3    H142616   0.316   0.101   6.136 -0.6081 -1.0955  1.6286
 7067TIP3    H242617   0.352  -0.038   6.184  2.2509 -1.6901 -1.8177
 7068TIP3   OH242618   0.642   4.946   5.631 -0.6380  0.0384  0.0793
 7068TIP3    H142619   0.627   5.016   5.567  2.6305  0.4469 -0.3937
 7068TIP3    H242620   0.597   4.975   5.710 -0.0983  2.2788 -0.3833
 7069TIP3   OH242621   6.701   0.379  14.366  0.1025  0.0006 -0.2636
 7069TIP3    H142622   6.734   0.370  14.277  0.1628 -2.1812 -0.0819
 7069TIP3    H242623   6.633   0.446  14.360  1.5032  1.3917 -1.5131
 7070TIP3   OH242624   0.794   2.416  11.974  0.2312 -0.2787 -0.3038
 7070TIP3    H142625   0.700   2.427  11.983  0.5522  2.3100  0.7933
 7070TIP3    H242626   0.815   2.339  12.026 -1.2264 -0.7958 -0.4359
 7071TIP3   OH242627   4.991   5.216   2.525  0.9205  0.4279  0.1231
 7071TIP3    H142628   4.957   5.296   2.485  0.7523  1.4253  2.1224
 7071TIP3    H242629   5.051   5.247   2.594 -1.0430 -1.0072  2.6731
 7072TIP3   OH242630   3.726   4.377   0.856  0.2827  0.0924 -0.3981
 7072TIP3    H142631   3.676   4.314   0.804  1.0592 -0.5028 -0.4352
 7072TIP3    H242632   3.728   4.340   0.944 -1.9761  1.6197  0.4080
 7073TIP3   OH242633   0.958   3.892   5.972 -0.8666 -0.0329  0.2537
 7073TIP3    H142634   1.030   3.838   6.004 -1.6184 -0.8070  0.6934
 7073TIP3    H242635   0.949   3.961   6.038 -0.0466  0.5275 -0.1991
 7074TIP3   OH242636   1.126   1.590  12.612 -0.2111 -0.2995  0.3598
 7074TIP3    H142637   1.131   1.682  12.638  1.9958  0.1035 -1.1776
 7074TIP3    H242638   1.187   1.545  12.670 -1.7117 -0.9605  1.4971
 7075TIP3   OH242639   6.144   5.038  12.289 -0.3983  0.1474  0.3172
 7075TIP3    H142640   6.206   5.061  12.219 -1.5679  3.2302  0.1327
 7075TIP3    H242641   6.058   5.059  12.253 -1.2283 -0.2649  1.9594
 7076TIP3   OH242642   0.287   1.010   3.608 -0.2425 -0.1804  1.3858
 7076TIP3    H142643   0.382   1.006   3.597 -0.2856 -0.2139  1.0239
 7076TIP3    H242644   0.274   1.084   3.667 -0.1441  1.6055 -0.6933
 7077TIP3   OH242645   2.928   0.380   0.677 -0.3432 -0.0586 -0.0702
 7077TIP3    H142646   2.872   0.429   0.737 -1.9440  0.3945 -1.7984
 7077TIP3    H242647   2.903   0.288   0.691 -1.1873  0.0986 -0.4628
 7078TIP3   OH242648   2.441   5.102  15.431  0.3505  0.5328 -0.0558
 7078TIP3    H142649   2.516   5.141  15.386  1.8206 -0.3238  1.5359
 7078TIP3    H242650   2.415   5.168  15.496 -0.0818  0.6800 -0.3673
 7079TIP3   OH242651   2.166   5.909  16.266 -0.2256  0.2088  0.2986
 7079TIP3    H142652   2.189   5.826  16.308 -1.8736  0.4936  1.8716
 7079TIP3    H242653   2.110   5.884  16.193 -1.3108 -0.0501  1.2024
 7080TIP3   OH242654   6.136   3.124  11.843 -0.2137  0.1807  0.2650
 7080TIP3    H142655   6.174   3.123  11.931 -1.1001 -1.2421  0.6663
 7080TIP3    H242656   6.102   3.213  11.833 -2.2439 -0.2690  2.3514
 7081TIP3   OH242657   0.879   4.813  16.885  0.0519  0.5894  0.6924
 7081TIP3    H142658   0.843   4.747  16.945 -0.4892  0.7768  0.5716
 7081TIP3    H242659   0.865   4.896  16.931 -1.7769  0.9050 -0.3491
 7082TIP3   OH242660   1.436   4.199  13.937 -1.0784  0.3073 -0.0001
 7082TIP3    H142661   1.442   4.263  14.008  0.0494 -0.4613  0.6401
 7082TIP3    H242662   1.399   4.247  13.863  0.6504  1.9747  0.1497
 7083TIP3   OH242663   0.314   0.735  12.377  0.4538 -0.0542  0.3631
 7083TIP3    H142664   0.220   0.736  12.358  0.6152  3.1143 -1.0146
 7083TIP3    H242665   0.320   0.712  12.470 -1.6595 -0.5142  0.4280
 7084TIP3   OH242666   0.836   1.420  14.411  0.0303  0.5288 -0.4564
 7084TIP3    H142667   0.814   1.328  14.424 -0.9351  0.8198  0.0217
 7084TIP3    H242668   0.843   1.430  14.316 -1.6725  0.3541 -0.6343
 7085TIP3   OH242669   5.677   6.529  13.493  0.1687 -0.0269  0.3142
 7085TIP3    H142670   5.585   6.555  13.484  0.1959  0.3317  0.9763
 7085TIP3    H242671   5.726   6.598  13.447  0.1574  0.3195  0.8121
 7086TIP3   OH242672   6.116   1.185   1.410 -0.0937 -0.0277 -0.0612
 7086TIP3    H142673   6.051   1.233   1.461  0.0464 -1.1669  1.2777
 7086TIP3    H242674   6.188   1.169   1.472  0.4540 -0.7579 -0.8510
 7087TIP3   OH242675   2.017   5.243   3.612 -0.1186  0.5783  0.0988
 7087TIP3    H142676   2.005   5.176   3.680 -0.6672 -0.0850 -0.6325
 7087TIP3    H242677   2.103   5.224   3.574 -0.1356  0.4828  0.1077
 7088TIP3   OH242678   1.672   0.726  11.947 -0.0338  0.0105 -0.6894
 7088TIP3    H142679   1.585   0.767  11.945 -0.6539 -1.2016  0.1798
 7088TIP3    H242680   1.678   0.688  12.035  1.3928  0.0804 -0.7339
 7089TIP3   OH242681   4.736   1.527   6.951  0.6097 -0.1124  0.9143
 7089TIP3    H142682   4.763   1.515   6.860 -3.2115  3.0566 -0.9190
 7089TIP3    H242683   4.696   1.443   6.975 -1.9253  0.1564 -1.8705
 7090TIP3   OH242684   5.112   2.590   5.429  0.1690 -0.3680 -0.1022
 7090TIP3    H142685   5.044   2.577   5.363 -1.3022  1.0063  1.0514
 7090TIP3    H242686   5.116   2.685   5.439  1.6446 -0.4790  0.5056
 7091TIP3   OH242687   3.560   2.995   4.671  0.3815  0.3299 -0.1003
 7091TIP3    H142688   3.482   2.994   4.616  0.1045  0.4782  0.2853
 7091TIP3    H242689   3.622   2.938   4.626 -0.6766 -1.4924  0.6084
 7092TIP3   OH242690   0.719   4.070  13.653  0.0972  0.2165 -0.0331
 7092TIP3    H142691   0.745   4.152  13.611  1.4861 -0.0937  0.1665
 7092TIP3    H242692   0.786   4.007  13.627 -0.2992 -0.5604  0.7695
 7093TIP3   OH242693   5.068   5.979  15.388  0.4700 -0.2857 -0.2530
 7093TIP3    H142694   5.073   6.072  15.412 -3.2808 -0.4703  2.0994
 7093TIP3    H242695   5.117   5.934  15.457  0.5898 -0.1823 -0.2692
 7094TIP3   OH242696   3.682   4.660   2.995  0.6866 -0.4550 -0.5404
 7094TIP3    H142697   3.644   4.727   2.938  1.6302  1.3292  0.8396
 7094TIP3    H242698   3.776   4.663   2.975  1.3161  1.4098  2.1470
 7095TIP3   OH242699   4.695   6.635  15.579 -0.0512  0.1101 -0.3115
 7095TIP3    H142700   4.715   6.631  15.673  2.0965  5.0115 -0.2423
 7095TIP3    H242701   4.763   6.582  15.538  1.9302  1.5858  0.8492
 7096TIP3   OH242702   3.962   1.136  12.355 -0.2784 -0.4377  0.4321
 7096TIP3    H142703   4.050   1.173  12.361 -0.7946  0.7579  1.0122
 7096TIP3    H242704   3.920   1.158  12.438 -1.1661 -0.8800  0.1210
 7097TIP3   OH242705   5.942   5.452  12.045  0.4353 -0.1538  0.0121
 7097TIP3    H142706   5.991   5.415  12.118  1.0958  0.7896  0.0616
 7097TIP3    H242707   6.008   5.477  11.981 -0.1870 -1.9491 -1.4125
 7098TIP3   OH242708   4.007   1.973  11.037  0.3342 -0.6524  0.2270
 7098TIP3    H142709   3.999   2.062  11.070 -2.0373 -0.2034 -1.3482
 7098TIP3    H242710   4.033   1.921  11.114 -0.2228  1.0595  1.6375
 7099TIP3   OH242711   0.781   4.839   5.909 -0.0584 -0.3674  0.1602
 7099TIP3    H142712   0.857   4.887   5.877  1.6682 -1.7307  1.9799
 7099TIP3    H242713   0.770   4.869   5.999 -1.1971 -0.7616  0.1677
 7100TIP3   OH242714   0.316   2.284  11.820 -0.1137 -0.1955  0.4712
 7100TIP3    H142715   0.250   2.233  11.866  0.5161 -1.2448  0.2494
 7100TIP3    H242716   0.330   2.237  11.738 -0.9647  1.4452 -0.6869
 7101TIP3   OH242717   1.143   6.120  15.468 -0.4231  0.0746  0.6644
 7101TIP3    H142718   1.228   6.078  15.457 -1.5863 -2.1116 -0.6225
 7101TIP3    H242719   1.139   6.186  15.399  0.8031  1.2864  1.7115
 7102TIP3   OH242720   1.958   3.924  15.176  0.0382 -0.4126  0.3478
 7102TIP3    H142721   1.919   3.867  15.110  1.2184 -2.3652  1.2496
 7102TIP3    H242722   2.050   3.933  15.148 -0.0809  0.9507  0.3119
 7103TIP3   OH242723   2.517   1.938  12.246 -0.1907  0.0758  0.2384
 7103TIP3    H142724   2.468   1.941  12.164  0.5242 -1.3591 -0.2813
 7103TIP3    H242725   2.608   1.928  12.220  0.5908  3.5014  1.1717
 7104TIP3   OH242726   5.273   0.443  11.144 -0.4781  0.0310  0.0947
 7104TIP3    H142727   5.217   0.383  11.192 -0.3260  0.0521  0.2987
 7104TIP3    H242728   5.362   0.412  11.161 -0.4781 -1.3704 -1.9993
 7105TIP3   OH242729   5.416   6.277   1.810 -0.1884  0.1395  0.5214
 7105TIP3    H142730   5.436   6.298   1.901 -1.3023  0.2841  0.7489
 7105TIP3    H242731   5.334   6.324   1.792  0.6605  1.1506 -0.9391
 7106TIP3   OH242732   1.253   5.588   5.001 -0.3184  0.1547  0.3496
 7106TIP3    H142733   1.298   5.537   5.069 -1.0240 -1.4922 -0.3762
 7106TIP3    H242734   1.226   5.523   4.936 -0.4842  1.5761 -1.0637
 7107TIP3   OH242735   5.876   1.436   4.770 -0.3069  0.5297  0.0634
 7107TIP3    H142736   5.884   1.503   4.702 -0.5096 -0.9558 -1.4733
 7107TIP3    H242737   5.946   1.456   4.832  0.3025  1.5296 -0.9238
 7108TIP3   OH242738   5.197   0.739  14.784 -0.5207 -0.1062 -0.2825
 7108TIP3    H142739   5.116   0.718  14.831  0.9512 -1.5142  1.8421
 7108TIP3    H242740   5.206   0.670  14.719 -0.1357 -1.0794  0.7595
 7109TIP3   OH242741   4.524   2.941   3.938  0.7999  0.2974 -0.3117
 7109TIP3    H142742   4.573   2.981   3.866  0.4154 -0.1402 -0.8342
 7109TIP3    H242743   4.552   2.989   4.016 -1.6535  3.4971 -1.1890
 7110TIP3   OH242744   3.043   4.437   5.570 -0.0805  0.8142  0.8022
 7110TIP3    H142745   2.989   4.391   5.507 -2.3170  3.1991  0.8322
 7110TIP3    H242746   3.081   4.367   5.624 -0.3531 -1.1131 -1.3486
 7111TIP3   OH242747   1.688   2.202   5.793  0.0906  0.4886  0.1161
 7111TIP3    H142748   1.769   2.236   5.755 -0.3845  2.0209  0.4040
 7111TIP3    H242749   1.624   2.273   5.781 -0.8793 -0.2029  0.9946
 7112TIP3   OH242750   2.125   2.777   3.624 -0.2010  0.3063 -0.0014
 7112TIP3    H142751   2.205   2.805   3.581  0.0970 -1.4281 -0.6730
 7112TIP3    H242752   2.142   2.687   3.651 -1.2606  0.5304  1.5734
 7113TIP3   OH242753   4.087   0.293   0.648 -0.0767 -0.2622 -0.6631
 7113TIP3    H142754   4.131   0.211   0.629 -0.7900 -0.3059 -2.3274
 7113TIP3    H242755   4.058   0.285   0.738  2.7880 -0.4349  0.3460
 7114TIP3   OH242756   4.287   4.710   5.233 -0.3357 -0.0385  0.0574
 7114TIP3    H142757   4.377   4.738   5.220 -0.9541  1.8122 -0.5961
 7114TIP3    H242758   4.292   4.640   5.298  1.3504  1.7986  2.0777
 7115TIP3   OH242759   0.655   3.530   4.119  0.0122  0.4200  0.4778
 7115TIP3    H142760   0.637   3.457   4.178 -0.2008  1.0163  1.1597
 7115TIP3    H242761   0.660   3.490   4.032  2.3154 -0.7964  1.0863
 7116TIP3   OH242762   0.703   5.079  14.300  0.2464  0.5806 -0.1546
 7116TIP3    H142763   0.719   5.064  14.393  0.6548  1.2420 -0.1117
 7116TIP3    H242764   0.764   5.020  14.256 -1.2961 -1.1752 -0.0356
 7117TIP3   OH242765   1.508   1.272   5.664  0.3492  0.4027  0.0216
 7117TIP3    H142766   1.453   1.268   5.586  2.5543  0.4374 -1.6310
 7117TIP3    H242767   1.589   1.313   5.635  2.1761 -1.6797  1.7225
 7118TIP3   OH242768   5.917   6.522  17.312 -0.1522 -0.2296 -0.2174
 7118TIP3    H142769   5.981   6.572  17.363  0.8662 -2.8145  1.2502
 7118TIP3    H242770   5.836   6.527  17.363 -0.6724  1.5860 -1.1661
 7119TIP3   OH242771   1.476   3.889   3.030  0.0113 -0.3996  0.0796
 7119TIP3    H142772   1.512   3.872   3.117  1.4244 -1.3441 -0.6431
 7119TIP3    H242773   1.390   3.847   3.031  0.6999 -1.8722  0.5158
 7120TIP3   OH242774   1.784   4.938  17.111 -0.4977 -0.4006 -0.3434
 7120TIP3    H142775   1.811   4.985  17.032 -0.3967  0.6734  0.3194
 7120TIP3    H242776   1.825   4.852  17.103  0.8055  0.2317 -0.7121
 7121TIP3   OH242777   4.030   1.073   2.542 -0.4024  0.5185 -0.1715
 7121TIP3    H142778   3.963   1.046   2.605 -0.1376  1.5751  0.5920
 7121TIP3    H242779   4.030   1.004   2.475 -1.6311  0.0693  0.2761
 7122TIP3   OH242780   4.746   1.052  15.377 -0.0618 -0.0708 -0.3733
 7122TIP3    H142781   4.841   1.043  15.371 -0.1649 -0.6156 -1.4797
 7122TIP3    H242782   4.728   1.141  15.345  0.0720 -0.0022 -0.2558
 7123TIP3   OH242783   4.090   0.340  13.508  0.0310 -0.1796  0.2558
 7123TIP3    H142784   4.125   0.391  13.435 -0.9958  1.5526  0.9095
 7123TIP3    H242785   3.997   0.330  13.488  0.1886 -1.8088  0.1732
 7124TIP3   OH242786   1.437   4.295   5.352 -0.2009  0.1406  0.5826
 7124TIP3    H142787   1.442   4.390   5.351  2.0350  0.0697  0.4890
 7124TIP3    H242788   1.528   4.265   5.344 -0.9980 -2.0385 -1.8129
 7125TIP3   OH242789   0.280   2.273  13.509 -0.1293  0.5245  0.0942
 7125TIP3    H142790   0.336   2.267  13.432 -0.5661  1.9433 -0.3603
 7125TIP3    H242791   0.192   2.283  13.474 -0.7928 -1.9954  0.7943
 7126TIP3   OH242792   4.227   0.560  13.379 -0.0505  0.0111  0.0341
 7126TIP3    H142793   4.174   0.562  13.300  2.0953 -0.5177 -1.5249
 7126TIP3    H242794   4.314   0.587  13.350  1.6001 -3.1771  1.5276
 7127TIP3   OH242795   2.830   0.117   4.252  0.5300 -0.4081  0.1324
 7127TIP3    H142796   2.879   0.041   4.222 -0.5794 -0.5172 -1.5693
 7127TIP3    H242797   2.738   0.088   4.250  0.1954  0.5428  0.8438
 7128TIP3   OH242798   6.357   0.882   1.657  0.0560  0.1983 -0.3520
 7128TIP3    H142799   6.362   0.791   1.627  0.0092 -0.3439  1.1604
 7128TIP3    H242800   6.421   0.887   1.728 -1.4994  0.6867  1.0958
 7129TIP3   OH242801   2.580   4.666   4.181 -0.1244  0.2068 -0.3634
 7129TIP3    H142802   2.493   4.685   4.216  1.0203  1.5037  2.0676
 7129TIP3    H242803   2.588   4.722   4.104 -0.6512  1.8431  0.7100
 7130TIP3   OH242804   0.319   1.968  10.537 -0.4746  0.6294  0.4866
 7130TIP3    H142805   0.237   1.936  10.575 -0.6736 -0.6579 -0.9304
 7130TIP3    H242806   0.309   2.063  10.534 -0.9738  0.6693  2.3736
 7131TIP3   OH242807   3.917   4.114   0.109  0.3959 -0.6805 -0.5201
 7131TIP3    H142808   3.850   4.051   0.133 -1.8114  2.3663  2.0677
 7131TIP3    H242809   3.877   4.169   0.042  1.2276 -0.3384 -0.7599
 7132TIP3   OH242810   2.664   1.411  17.169 -0.1867  0.0873  0.2112
 7132TIP3    H142811   2.615   1.484  17.131  1.6612  1.9282  1.1664
 7132TIP3    H242812   2.669   1.347  17.099  0.1036  1.8715 -1.4890
 7133TIP3   OH242813   4.478   5.676  12.879 -0.1884 -0.2754  0.3015
 7133TIP3    H142814   4.389   5.659  12.912 -0.2588 -0.2652  0.1197
 7133TIP3    H242815   4.481   5.630  12.796  0.7254 -2.1380  1.3205
 7134TIP3   OH242816   5.060   5.204  17.220 -0.3400  0.1027  0.1906
 7134TIP3    H142817   5.139   5.241  17.181  0.7799  0.0915  2.2801
 7134TIP3    H242818   5.077   5.110  17.223 -0.2128  0.1441  1.0479
 7135TIP3   OH242819   6.523   5.125   2.375 -0.0503 -0.3268  0.1085
 7135TIP3    H142820   6.575   5.194   2.416 -0.4199  0.1952 -0.2852
 7135TIP3    H242821   6.451   5.109   2.436  1.1421 -1.8477  1.2055
 7136TIP3   OH242822   0.027   4.752   5.955  0.5883  0.8609  0.3093
 7136TIP3    H142823  -0.033   4.826   5.947  1.3385  1.5239  0.6903
 7136TIP3    H242824   0.113   4.788   5.933  0.8302 -0.1200 -0.4261
 7137TIP3   OH242825   6.324   4.906  11.635  0.0133 -0.5614  0.1553
 7137TIP3    H142826   6.411   4.866  11.637 -1.0534 -3.0260  1.6192
 7137TIP3    H242827   6.285   4.872  11.555 -0.7028 -2.1149  1.1283
 7138TIP3   OH242828   2.193   6.569   3.512  0.1868  0.4754  0.0960
 7138TIP3    H142829   2.109   6.600   3.546  0.8697  0.9867  1.3984
 7138TIP3    H242830   2.196   6.477   3.536  1.7557  1.3398  4.0075
 7139TIP3   OH242831   6.211   1.605  12.176 -0.8397  0.8612 -0.3867
 7139TIP3    H142832   6.282   1.646  12.126 -0.1549 -0.1701 -0.2973
 7139TIP3    H242833   6.137   1.603  12.116 -0.0127 -0.4096 -1.4268
 7140TIP3   OH242834   1.183   6.031  11.157 -0.1511  0.2162 -0.4336
 7140TIP3    H142835   1.121   5.981  11.104  0.3906 -0.4789 -0.4260
 7140TIP3    H242836   1.268   6.017  11.114 -0.0229  1.2941 -0.5427
 7141TIP3   OH242837   3.224   3.406  13.614 -0.4797 -0.0220 -0.2985
 7141TIP3    H142838   3.217   3.436  13.524  0.7675 -0.9953 -0.7622
 7141TIP3    H242839   3.194   3.315  13.611  1.4605 -0.7104 -0.1778
 7142TIP3   OH242840   5.366   6.527  11.356  0.4403 -0.0818 -0.3316
 7142TIP3    H142841   5.452   6.511  11.393  0.5162  2.5757  0.9248
 7142TIP3    H242842   5.383   6.584  11.280 -0.0882 -1.3226 -1.4146
 7143TIP3   OH242843   0.343   6.608  14.781  0.1826  0.5439 -0.4017
 7143TIP3    H142844   0.406   6.537  14.789  1.4429  1.1598 -3.5347
 7143TIP3    H242845   0.257   6.565  14.777  0.5494 -0.4578  1.4091
 7144TIP3   OH242846   4.990   3.283   4.960  0.2768 -0.8841  0.2266
 7144TIP3    H142847   5.050   3.320   4.896  0.8809  1.3624  1.9518
 7144TIP3    H242848   4.926   3.352   4.976 -1.5182 -2.4204  0.0507
 7145TIP3   OH242849   0.487   0.772   5.202  0.0687  0.2617  1.1080
 7145TIP3    H142850   0.446   0.686   5.202 -1.4748  0.9193  2.9343
 7145TIP3    H242851   0.439   0.821   5.269  1.7114  2.1536  0.9889
 7146TIP3   OH242852   3.444   3.340   5.630  0.2316 -0.2654  0.4824
 7146TIP3    H142853   3.452   3.248   5.603  0.9287 -0.1679  0.3342
 7146TIP3    H242854   3.455   3.390   5.549 -0.4683 -0.0559  0.5116
 7147TIP3   OH242855   1.324   2.988   4.903 -0.1870 -0.4485 -0.0185
 7147TIP3    H142856   1.285   3.075   4.898 -2.0535 -1.2573 -0.1854
 7147TIP3    H242857   1.383   2.984   4.828  0.2409  0.8089  0.2303
 7148TIP3   OH242858   0.687   5.745   4.751 -0.8718 -0.1222  0.8501
 7148TIP3    H142859   0.605   5.716   4.791  0.0044  0.8890  3.6131
 7148TIP3    H242860   0.686   5.840   4.763  1.2085 -0.2022  2.1547
 7149TIP3   OH242861   5.887   1.668   6.678 -0.2442  0.4072 -0.1038
 7149TIP3    H142862   5.922   1.703   6.760  1.1424  0.7047 -0.7849
 7149TIP3    H242863   5.806   1.716   6.664  0.0324  1.0983  0.5775
 7150TIP3   OH242864   4.355   3.874   0.178 -0.1318  0.1274 -0.3344
 7150TIP3    H142865   4.403   3.884   0.260  1.6041  0.0487 -1.2779
 7150TIP3    H242866   4.300   3.952   0.173 -1.3805 -0.5762  1.5616
 7151TIP3   OH242867   5.540   5.576   1.292  0.2420  0.1870 -0.1431
 7151TIP3    H142868   5.525   5.521   1.215  0.4596 -0.7259  0.4581
 7151TIP3    H242869   5.453   5.600   1.322  0.1562  1.7360 -1.4888
 7152TIP3   OH242870   4.607   3.062  11.916  0.0364 -0.2052 -0.2193
 7152TIP3    H142871   4.610   2.971  11.945 -0.8191 -0.3261 -0.4893
 7152TIP3    H242872   4.514   3.084  11.914  0.2758  1.0533  0.9888
 7153TIP3   OH242873   1.784   3.281  16.023 -0.0281 -0.0188 -0.2842
 7153TIP3    H142874   1.740   3.207  16.066  0.8543 -0.1782  0.3808
 7153TIP3    H242875   1.746   3.358  16.064  0.5455 -0.1636  0.5628
 7154TIP3   OH242876   0.868   4.456   5.726 -0.2583  1.1119 -0.4250
 7154TIP3    H142877   0.841   4.364   5.723 -0.5277  1.2187 -1.7070
 7154TIP3    H242878   0.963   4.454   5.716 -0.3043  1.0008 -0.8189
 7155TIP3   OH242879   6.317   1.727   2.472 -0.8992 -0.7470 -0.4030
 7155TIP3    H142880   6.254   1.738   2.543  0.1357  1.6937  0.2445
 7155TIP3    H242881   6.334   1.816   2.441  0.5329 -1.5422 -2.0635
 7156TIP3   OH242882   1.719   5.530  14.635  0.7662  0.0490 -0.0015
 7156TIP3    H142883   1.644   5.476  14.659  0.6101  0.6062  0.7983
 7156TIP3    H242884   1.698   5.565  14.549 -0.3609  1.0214  0.6498
 7157TIP3   OH242885   3.666   0.820  16.545 -0.0831  0.0811 -0.0271
 7157TIP3    H142886   3.618   0.846  16.624 -1.6480 -1.4595 -0.4154
 7157TIP3    H242887   3.732   0.757  16.577  0.5172  0.8358  0.2609
 7158TIP3   OH242888   0.832   4.045  13.267  0.1678 -0.1679 -0.1758
 7158TIP3    H142889   0.805   4.136  13.254  0.9186 -0.0804 -1.2951
 7158TIP3    H242890   0.859   4.041  13.359  1.7206  1.2084 -0.5124
 7159TIP3   OH242891   5.737   1.941   2.880  0.9537 -0.2390 -0.6207
 7159TIP3    H142892   5.732   1.985   2.965  3.0056 -1.0062 -0.0554
 7159TIP3    H242893   5.650   1.903   2.868  0.5892 -0.0279  1.0908
 7160TIP3   OH242894   2.280   2.632   1.368 -0.2480 -0.1581 -0.1608
 7160TIP3    H142895   2.242   2.570   1.430  0.0846  1.3387  1.6428
 7160TIP3    H242896   2.223   2.709   1.373  1.3129  1.0135  0.3814
 7161TIP3   OH242897   0.691   4.758  14.224  0.1287  0.1601 -0.0040
 7161TIP3    H142898   0.767   4.816  14.216  0.3185 -0.0102  0.5062
 7161TIP3    H242899   0.620   4.815  14.255  0.4978 -0.0033  1.1918
 7162TIP3   OH242900   2.542   2.525  13.697  0.1900  0.4190 -0.7227
 7162TIP3    H142901   2.527   2.563  13.783 -2.9722 -1.3803 -0.2831
 7162TIP3    H242902   2.597   2.448  13.713  2.1026  1.7234 -0.8226
 7163TIP3   OH242903   4.272   6.197   3.669  0.2569  0.2202 -0.0805
 7163TIP3    H142904   4.194   6.237   3.707  0.1460  0.1042 -0.1845
 7163TIP3    H242905   4.270   6.224   3.577  0.8628  1.0182  0.1328
 7164TIP3   OH242906   5.962   3.326  14.552 -0.3099 -0.3489 -0.2904
 7164TIP3    H142907   5.942   3.374  14.632  1.1938  1.1139 -0.7384
 7164TIP3    H242908   5.877   3.309  14.512 -0.9420  0.9896  0.4402
 7165TIP3   OH242909   1.756   3.355  16.468  0.0669 -0.4058 -0.1006
 7165TIP3    H142910   1.801   3.425  16.515 -1.1767  0.1850  0.2512
 7165TIP3    H242911   1.804   3.346  16.386  0.4859  0.5841  0.0257
 7166TIP3   OH242912   1.330   4.883   0.625  0.6280  0.7227 -0.0276
 7166TIP3    H142913   1.408   4.936   0.639  0.8271  0.5854 -0.5694
 7166TIP3    H242914   1.320   4.831   0.705  0.8388  1.0603  0.2166
 7167TIP3   OH242915   1.082   3.683   2.392  0.8086  0.2311 -0.2963
 7167TIP3    H142916   1.103   3.710   2.481 -2.6502 -1.9948  1.4595
 7167TIP3    H242917   1.008   3.738   2.367  1.4109  0.4776 -1.6262
 7168TIP3   OH242918   4.274   0.969   4.256 -0.2289  0.0556  0.8111
 7168TIP3    H142919   4.220   0.894   4.280  1.2769 -1.0885  0.7344
 7168TIP3    H242920   4.263   0.976   4.161  0.8717 -1.0987  0.5775
 7169TIP3   OH242921   3.015   3.604   0.866 -0.0988  0.1202 -0.2976
 7169TIP3    H142922   2.934   3.558   0.843  0.9390 -1.4466 -1.0417
 7169TIP3    H242923   3.064   3.609   0.783  1.6171 -1.2531  0.5600
 7170TIP3   OH242924   1.089   0.068  17.250  0.0024 -0.0485  0.1066
 7170TIP3    H142925   1.022   0.133  17.273 -1.3684 -1.2308 -0.3926
 7170TIP3    H242926   1.149   0.114  17.192 -2.1497  0.2303 -2.0234
 7171TIP3   OH242927   0.094   6.258   5.052 -0.1212 -0.4893  0.1589
 7171TIP3    H142928   0.021   6.214   5.095 -0.2147 -1.7598 -1.2231
 7171TIP3    H242929   0.053   6.314   4.986  0.1279 -0.7991 -0.2608
 7172TIP3   OH242930   2.469   3.194  12.968  0.2614 -0.0673  0.3372
 7172TIP3    H142931   2.499   3.172  13.056 -0.7054  0.0957  0.7275
 7172TIP3    H242932   2.544   3.238  12.927  1.5531 -2.2752  0.2049
 7173TIP3   OH242933   5.777   0.671  15.245 -0.4385  0.2739 -0.1131
 7173TIP3    H142934   5.818   0.746  15.289 -1.5553  1.3379 -0.7957
 7173TIP3    H242935   5.847   0.633  15.193  0.0509  1.1399 -0.1104
 7174TIP3   OH242936   4.755   6.607  14.920 -0.4117  0.0920 -0.1704
 7174TIP3    H142937   4.706   6.650  14.990 -1.2460 -0.5198 -0.3453
 7174TIP3    H242938   4.745   6.513  14.939  1.8697 -0.0661  0.5520
 7175TIP3   OH242939   0.529   5.716  16.076  0.2435 -0.2208 -0.3623
 7175TIP3    H142940   0.457   5.704  16.138  0.6790 -0.2767  0.1480
 7175TIP3    H242941   0.490   5.703  15.990  0.0337 -2.1158 -0.0099
 7176TIP3   OH242942   5.067   3.709  16.269  0.3076 -0.0415 -0.0147
 7176TIP3    H142943   5.070   3.781  16.332  1.4717 -1.0854  1.1802
 7176TIP3    H242944   5.081   3.751  16.184  2.7891  1.0056  0.8001
 7177TIP3   OH242945   1.589   3.313  15.553 -0.1163 -0.1857  0.1053
 7177TIP3    H142946   1.555   3.361  15.628 -0.8998  0.3656 -0.5883
 7177TIP3    H242947   1.637   3.378  15.502  0.8096 -0.6543  0.3388
 7178TIP3   OH242948   3.665   0.326  15.589 -0.2861  0.1830 -0.1811
 7178TIP3    H142949   3.667   0.283  15.504  0.4326  0.5941 -0.3781
 7178TIP3    H242950   3.703   0.262  15.649 -1.2705 -0.3091 -0.0663
 7179TIP3   OH242951   3.333   1.317  16.575 -0.1525 -0.1912 -0.0557
 7179TIP3    H142952   3.353   1.400  16.532  0.5074  0.3073  1.1383
 7179TIP3    H242953   3.387   1.253  16.529 -0.7211  0.0119 -1.0335
 7180TIP3   OH242954   1.716   1.980  12.904 -0.5230 -0.1683 -0.2232
 7180TIP3    H142955   1.666   1.906  12.870 -1.1746  0.5065 -0.7345
 7180TIP3    H242956   1.772   1.941  12.972 -1.1780 -1.0530 -0.1754
 7181TIP3   OH242957   2.061   5.004  14.709  0.3185  0.5378  0.3282
 7181TIP3    H142958   2.099   5.067  14.771  1.1419 -0.0260  0.4222
 7181TIP3    H242959   2.134   4.983  14.650 -0.4899  1.1642 -0.9343
 7182TIP3   OH242960   2.030   4.714   4.305 -0.3337  0.5047 -0.3234
 7182TIP3    H142961   1.967   4.705   4.375  1.4048 -0.0086  1.2494
 7182TIP3    H242962   2.022   4.805   4.277  0.2457  1.3062  1.9093
 7183TIP3   OH242963   4.816   0.211   0.198  0.0907  0.5735  0.2560
 7183TIP3    H142964   4.744   0.226   0.138  1.8623  0.2503 -2.0930
 7183TIP3    H242965   4.775   0.204   0.284 -2.3941  2.7993 -0.6166
 7184TIP3   OH242966   0.692   5.748   4.287 -0.3368 -0.3871  0.0604
 7184TIP3    H142967   0.702   5.827   4.341  0.0986  0.0189 -0.5942
 7184TIP3    H242968   0.695   5.676   4.350 -0.7242  0.1149  0.6704
 7185TIP3   OH242969   2.637   1.408   4.752  0.0885 -0.2950  0.3129
 7185TIP3    H142970   2.674   1.341   4.695  1.0212  0.4185  0.0494
 7185TIP3    H242971   2.707   1.473   4.760 -1.6388  1.9731 -1.5734
 7186TIP3   OH242972   2.679   0.090   2.476 -0.3316  0.1076 -0.3992
 7186TIP3    H142973   2.726   0.147   2.415 -0.0768 -0.8925 -1.1731
 7186TIP3    H242974   2.608   0.144   2.510  2.2710  2.2539  2.1288
 7187TIP3   OH242975   6.625   6.218  11.416 -0.3579  0.7382  0.0622
 7187TIP3    H142976   6.687   6.262  11.474  0.8265 -0.2213 -0.4491
 7187TIP3    H242977   6.575   6.289  11.377  0.7545  1.5682  0.1024
 7188TIP3   OH242978   1.072   3.527   0.908  0.1105 -0.1661 -0.5398
 7188TIP3    H142979   1.151   3.480   0.931 -0.6967 -1.2797  0.0396
 7188TIP3    H242980   1.018   3.523   0.987 -1.1517 -0.7671 -1.4000
 7189TIP3   OH242981   3.513   3.383  17.191  0.1382 -0.0076  0.2138
 7189TIP3    H142982   3.467   3.304  17.164 -1.1912  0.6877  0.3615
 7189TIP3    H242983   3.465   3.455  17.150 -0.5863  0.9196  2.5316
 7190TIP3   OH242984   2.302   4.410  13.241  0.2490  0.0517  0.1519
 7190TIP3    H142985   2.223   4.368  13.206  0.1118 -0.9532  1.5913
 7190TIP3    H242986   2.318   4.366  13.324  1.9638  0.7028  0.2010
 7191TIP3   OH242987   1.358   1.725  12.494  0.3170  0.8521  0.6978
 7191TIP3    H142988   1.374   1.657  12.559  0.4153  1.0636  0.8932
 7191TIP3    H242989   1.405   1.694  12.416 -0.8248 -0.0204  0.3263
 7192TIP3   OH242990   3.599   5.242   0.627 -0.3966  0.5924 -0.3798
 7192TIP3    H142991   3.584   5.150   0.645 -0.9105  0.8891  0.8352
 7192TIP3    H242992   3.666   5.243   0.559  0.0817 -0.6584  0.0535
 7193TIP3   OH242993   1.446   3.140  16.212 -0.2812  0.1541 -0.5225
 7193TIP3    H142994   1.371   3.184  16.171  0.7760  1.6056 -0.9792
 7193TIP3    H242995   1.411   3.103  16.293 -1.5831  0.4578 -0.9313
 7194TIP3   OH242996   1.218   3.596  13.097  0.0767 -0.0736 -0.4602
 7194TIP3    H142997   1.264   3.573  13.017 -0.2321 -0.5554 -0.5049
 7194TIP3    H242998   1.197   3.512  13.137  0.3866  0.1664  0.2178
 7195TIP3   OH242999   0.758   0.917   6.184  0.0165  0.1208 -0.5309
 7195TIP3    H143000   0.815   0.878   6.251 -0.3272  1.3728  0.5250
 7195TIP3    H243001   0.818   0.965   6.127  0.3737 -1.3807 -1.4946
 7196TIP3   OH243002   2.996   0.920   0.899 -0.0744 -0.3556 -0.1157
 7196TIP3    H143003   2.909   0.919   0.940 -0.3733 -0.2123 -0.7338
 7196TIP3    H243004   3.006   0.832   0.862 -0.1035 -0.2588 -0.3521
 7197TIP3   OH243005   5.281   6.078  13.253  0.1069  0.3050  0.5426
 7197TIP3    H143006   5.293   5.987  13.228 -1.0896 -0.3801  2.2556
 7197TIP3    H243007   5.354   6.097  13.312  1.1564  0.9401 -0.9013
 7198TIP3   OH243008   5.682   4.554   0.839 -0.2748 -0.0722 -0.2584
 7198TIP3    H143009   5.632   4.526   0.915  1.8414 -1.0476  0.8874
 7198TIP3    H243010   5.670   4.649   0.834 -0.6848 -0.0392  1.1343
 7199TIP3   OH243011   5.931   5.796  13.777 -0.0850 -0.3877 -0.6108
 7199TIP3    H143012   5.862   5.857  13.751 -0.9663 -1.4195 -0.7511
 7199TIP3    H243013   5.916   5.718  13.723  0.5152 -1.0453  0.1459
 7200TIP3   OH243014   0.561   2.238   4.946  0.5915 -0.0005  0.6694
 7200TIP3    H143015   0.565   2.332   4.928  0.2126  0.6442  3.5279
 7200TIP3    H243016   0.652   2.209   4.945  0.6614  0.1490 -1.0914
 7201TIP3   OH243017   1.735   2.229   2.176  0.2083  0.2362  0.1699
 7201TIP3    H143018   1.647   2.193   2.165  0.4853  0.0912 -2.1286
 7201TIP3    H243019   1.721   2.314   2.218 -0.9679 -0.0019  0.2966
 7202TIP3   OH243020   0.441   5.871   5.828 -0.7814 -0.2738  0.0620
 7202TIP3    H143021   0.423   5.846   5.737 -0.6620  0.8531 -0.2952
 7202TIP3    H243022   0.396   5.805   5.880 -0.3382 -1.3056 -0.8053
 7203TIP3   OH243023   3.766   3.646  17.029 -0.4427 -0.3947  0.8507
 7203TIP3    H143024   3.733   3.669  16.942 -0.3606  0.5130  1.0525
 7203TIP3    H243025   3.833   3.580  17.012  0.9020  1.0982  0.0469
 7204TIP3   OH243026   3.727   4.490  14.273 -0.5543  0.2641 -0.0609
 7204TIP3    H143027   3.680   4.426  14.220 -0.5091  1.0735 -1.1208
 7204TIP3    H243028   3.811   4.501  14.228  0.3027 -0.4548  1.2735
 7205TIP3   OH243029   3.713   1.955  11.266  0.0090 -0.1899 -0.3857
 7205TIP3    H143030   3.765   2.035  11.276 -0.3412 -0.1259  1.3021
 7205TIP3    H243031   3.631   1.984  11.227 -0.9174  0.6714  2.0353
 7206TIP3   OH243032   2.620   1.043   3.929  0.0886  0.9244 -0.0227
 7206TIP3    H143033   2.713   1.020   3.931 -0.3113 -0.8449  2.3535
 7206TIP3    H243034   2.617   1.131   3.967  0.8441  1.3450 -0.8987
 7207TIP3   OH243035   4.534   5.742  16.272  0.2695 -0.3668  0.8098
 7207TIP3    H143036   4.594   5.811  16.301  0.1424  0.3769 -0.6426
 7207TIP3    H243037   4.470   5.787  16.218 -0.1460 -1.5445  0.2920
 7208TIP3   OH243038   5.538   5.991   2.039  0.1505  0.1233 -0.0138
 7208TIP3    H143039   5.510   6.059   2.099 -0.4661  0.1211 -0.2963
 7208TIP3    H243040   5.616   6.027   1.996  0.6956  0.0620  0.8886
 7209TIP3   OH243041   3.241   2.070   4.581  0.6666 -0.5783 -0.1503
 7209TIP3    H143042   3.246   2.016   4.502 -0.1039 -1.9813  0.7039
 7209TIP3    H243043   3.285   2.151   4.558 -0.5475 -0.4717 -2.4103
 7210TIP3   OH243044   4.202   5.626   2.569  0.5816  0.1746  0.0261
 7210TIP3    H143045   4.269   5.659   2.630  0.2803 -1.4437  1.3114
 7210TIP3    H243046   4.171   5.545   2.610 -2.9486  1.3804  0.0765
 7211TIP3   OH243047   5.516   2.767   5.537  0.1073 -0.0205 -0.1376
 7211TIP3    H143048   5.525   2.826   5.463 -0.8771 -1.1086 -1.1668
 7211TIP3    H243049   5.526   2.823   5.614  0.7353  1.2021 -1.0746
 7212TIP3   OH243050   1.076   0.202  13.405 -0.5630  0.3467 -0.3633
 7212TIP3    H143051   1.035   0.287  13.386  2.2493  1.4723 -2.0176
 7212TIP3    H243052   1.162   0.224  13.439  0.0168 -1.8886 -0.2216
 7213TIP3   OH243053   5.347   0.805  12.545  0.2631 -0.4161  0.0141
 7213TIP3    H143054   5.290   0.861  12.597 -1.0657 -0.8626 -0.8940
 7213TIP3    H243055   5.287   0.743  12.503  1.4193 -0.9105 -0.9675
 7214TIP3   OH243056   0.821   1.518  14.136  0.3090 -0.3782  0.7020
 7214TIP3    H143057   0.759   1.464  14.086  0.0352 -0.2946  0.9512
 7214TIP3    H243058   0.772   1.596  14.160  1.3350  1.0641 -1.5593
 7215TIP3   OH243059   2.409   2.036  11.096 -0.2226 -0.2866  0.4360
 7215TIP3    H143060   2.437   1.981  11.170  1.1926 -1.8802 -1.1660
 7215TIP3    H243061   2.362   1.976  11.038 -1.1695  0.8956 -0.0684
 7216TIP3   OH243062   4.123   5.476   0.169  0.0362 -0.0703 -0.5430
 7216TIP3    H143063   4.211   5.492   0.137 -0.5929  1.5136 -1.6054
 7216TIP3    H243064   4.066   5.498   0.096 -1.3384  1.1571  0.8106
 7217TIP3   OH243065   6.707   1.189   4.812  0.2760  0.0204  0.5176
 7217TIP3    H143066   6.638   1.224   4.756  0.5823  2.3800  1.5072
 7217TIP3    H243067   6.722   1.257   4.878  4.6361  0.4341 -0.5504
 7218TIP3   OH243068   3.460   3.537   5.882  0.2209 -0.0922 -0.2039
 7218TIP3    H143069   3.542   3.518   5.838  0.1667 -2.1189  0.4513
 7218TIP3    H243070   3.485   3.587   5.960  0.9090 -1.0274  0.1969
 7219TIP3   OH243071   3.664   3.257   5.768 -0.1210  0.5818 -0.0223
 7219TIP3    H143072   3.717   3.202   5.710 -0.6087 -0.8696  0.8490
 7219TIP3    H243073   3.592   3.287   5.712  0.2270  0.4395 -0.5550
 7220TIP3   OH243074   3.756   0.136   4.000  0.0919 -0.1429 -0.2088
 7220TIP3    H143075   3.823   0.148   4.067 -0.1954 -0.6095  0.1678
 7220TIP3    H243076   3.680   0.183   4.033  0.1802  0.2589 -0.5644
 7221TIP3   OH243077   0.108   4.507  12.431 -0.0943  0.6811 -0.1707
 7221TIP3    H143078   0.164   4.550  12.367 -0.5439  0.8508 -0.4525
 7221TIP3    H243079   0.099   4.571  12.502 -0.6072  0.9833 -0.5024
 7222TIP3   OH243080   0.919   5.452   0.011  0.1577  0.5984  0.5545
 7222TIP3    H143081   0.840   5.400   0.026  1.0850 -1.2862 -0.7872
 7222TIP3    H243082   0.981   5.420   0.076  0.5967  0.3616  0.0162
 7223TIP3   OH243083   6.405   5.756   2.287 -0.0406  0.0943 -0.3209
 7223TIP3    H143084   6.415   5.798   2.373 -0.4539  2.1303 -1.2180
 7223TIP3    H243085   6.316   5.719   2.289  0.9643 -2.5793  1.1649
 7224TIP3   OH243086   4.557   5.363  11.615  0.2062  0.2781  0.5511
 7224TIP3    H143087   4.578   5.319  11.697 -0.1672  0.3759  0.7015
 7224TIP3    H243088   4.634   5.415  11.594  0.4694 -0.0799  0.6163
 7225TIP3   OH243089   0.585   0.470  15.983 -0.2508  0.2555 -0.3465
 7225TIP3    H143090   0.673   0.482  16.018 -0.9010 -1.6216  2.2397
 7225TIP3    H243091   0.546   0.557  15.985  0.8283  0.7370  0.6568
 7226TIP3   OH243092   1.695   3.747  12.368  0.2632  0.1445  0.1530
 7226TIP3    H143093   1.766   3.789  12.416  1.5039 -0.4871 -1.0750
 7226TIP3    H243094   1.634   3.717  12.437  0.9615  1.0536  1.1980
 7227TIP3   OH243095   3.598   5.993   5.060  0.1161  0.2873  0.3024
 7227TIP3    H143096   3.692   5.982   5.046 -0.1200 -1.0481 -0.3952
 7227TIP3    H243097   3.571   6.057   4.993  0.7227  1.6844  1.3506
 7228TIP3   OH243098   5.945   0.867  13.535  0.1141  0.1277  0.6903
 7228TIP3    H143099   5.952   0.905  13.622 -1.1484 -0.2193  0.9552
 7228TIP3    H243100   5.854   0.881  13.509 -0.2537 -2.1157  0.5587
 7229TIP3   OH243101   2.845   3.285  14.992 -0.4237 -0.6937 -0.7575
 7229TIP3    H143102   2.771   3.225  15.000 -1.0146  0.2484  1.5518
 7229TIP3    H243103   2.808   3.365  14.956 -1.1005  0.5278  2.3487
 7230TIP3   OH243104   0.972   5.208  16.013 -0.6749 -0.4542  0.5783
 7230TIP3    H143105   0.998   5.157  15.936 -0.7597 -0.6347  0.6695
 7230TIP3    H243106   0.879   5.190  16.023 -0.7170 -0.2434  0.5837
 7231TIP3   OH243107   3.822   4.285   6.383 -0.3753  0.1286 -0.1160
 7231TIP3    H143108   3.743   4.313   6.429 -1.0832  1.3454 -1.9334
 7231TIP3    H243109   3.894   4.318   6.437 -1.0930 -0.5189  1.2862
 7232TIP3   OH243110   2.827   1.602  12.945 -0.1122 -0.6965 -0.0790
 7232TIP3    H143111   2.870   1.517  12.938  1.4769  0.0891 -0.3478
 7232TIP3    H243112   2.812   1.630  12.855  0.0812 -0.3536 -0.0084
 7233TIP3   OH243113   0.615   5.127   0.367  0.0261 -0.1183  0.2341
 7233TIP3    H143114   0.663   5.199   0.409  0.2402  0.4014 -0.8732
 7233TIP3    H243115   0.547   5.171   0.316  0.6719 -0.6214 -1.1145
 7234TIP3   OH243116   1.315   6.320  16.011  0.0065 -0.4449  0.2877
 7234TIP3    H143117   1.346   6.262  15.940  1.2849 -0.9673  1.2319
 7234TIP3    H243118   1.383   6.313  16.078 -0.8215  0.6238  1.2600
 7235TIP3   OH243119   1.990   6.517   1.570 -0.4553 -0.2021 -0.6263
 7235TIP3    H143120   1.993   6.574   1.493 -2.6239  1.3396  0.3396
 7235TIP3    H243121   1.926   6.450   1.547 -1.6577  0.6753  0.0200
 7236TIP3   OH243122   0.190   2.880   2.066  0.1467  0.1311 -0.2126
 7236TIP3    H143123   0.165   2.903   2.156 -0.5728  2.1556 -0.8745
 7236TIP3    H243124   0.110   2.843   2.028  0.4048 -0.5697 -0.0913
 7237TIP3   OH243125   6.212   0.092   2.786  0.2016  0.0009 -0.0248
 7237TIP3    H143126   6.120   0.096   2.761  0.1574 -0.0289  0.1343
 7237TIP3    H243127   6.259   0.124   2.709  0.2645 -2.9904 -1.3929
 7238TIP3   OH243128   2.331   1.613  15.408 -0.3715  0.0358 -0.3033
 7238TIP3    H143129   2.394   1.549  15.440  2.7196  1.7804 -2.3785
 7238TIP3    H243130   2.357   1.695  15.448 -2.4607  0.5780  0.0782
 7239TIP3   OH243131   1.293   2.044  11.609 -0.0466 -0.0396 -0.2594
 7239TIP3    H143132   1.383   2.014  11.623 -0.2450 -0.7160 -0.4072
 7239TIP3    H243133   1.244   1.965  11.591 -0.9724  0.1420  1.2706
 7240TIP3   OH243134   0.645   3.181   4.622 -0.4311  0.1536 -0.8122
 7240TIP3    H143135   0.731   3.140   4.612 -0.5009 -0.2674  0.2361
 7240TIP3    H243136   0.664   3.266   4.661 -0.5812 -0.5542  0.8763
 7241TIP3   OH243137   0.677   1.209  11.628 -0.6802 -1.1349 -0.0340
 7241TIP3    H143138   0.623   1.133  11.605 -1.8256 -0.4704  0.4044
 7241TIP3    H243139   0.698   1.197  11.721 -0.9055 -0.8919  0.0493
 7242TIP3   OH243140   3.055   2.203  13.330  0.5584  0.5035  0.2213
 7242TIP3    H143141   3.019   2.123  13.292  0.4384  1.1098 -0.9751
 7242TIP3    H243142   3.001   2.219  13.407 -0.7873  0.5914 -0.7172
 7243TIP3   OH243143   1.646   1.407  12.360 -0.0266  0.5714  0.1592
 7243TIP3    H143144   1.569   1.349  12.359 -1.0495  1.8787  0.3527
 7243TIP3    H243145   1.695   1.383  12.281 -1.8295  1.2174 -1.2230
 7244TIP3   OH243146   0.140   4.875  13.293  0.3238 -0.5379  0.5702
 7244TIP3    H143147   0.097   4.960  13.304  0.6123 -0.1109 -1.2410
 7244TIP3    H243148   0.116   4.848  13.205 -1.1417 -3.1730  1.6614
 7245TIP3   OH243149   1.531   3.124  15.850 -0.7697 -0.0086  0.2178
 7245TIP3    H143150   1.438   3.120  15.873 -0.8376 -0.6464 -0.1117
 7245TIP3    H243151   1.541   3.207  15.804 -1.4724 -0.5128 -0.9085
 7246TIP3   OH243152   3.655   3.782  10.870 -0.3291  0.7205  0.4857
 7246TIP3    H143153   3.720   3.834  10.917  0.1568 -0.3116  0.9742
 7246TIP3    H243154   3.701   3.749  10.793  0.3011 -1.4304  1.7013
 7247TIP3   OH243155   1.909   6.623  15.045 -0.1472  0.2633 -0.1343
 7247TIP3    H143156   1.972   6.582  15.103 -1.5297 -1.1795  0.4272
 7247TIP3    H243157   1.901   6.562  14.971  0.1323  1.1170 -0.8852
 7248TIP3   OH243158   2.638   0.660  15.135 -0.4518  0.0363 -0.0766
 7248TIP3    H143159   2.713   0.653  15.076 -1.8960  1.3479 -2.2223
 7248TIP3    H243160   2.563   0.669  15.077 -2.4384 -2.0314  1.9498
 7249TIP3   OH243161   1.115   0.569  13.392 -0.1003  0.4841 -0.4193
 7249TIP3    H143162   1.171   0.573  13.315 -0.5766  1.2867 -0.7360
 7249TIP3    H243163   1.034   0.529  13.361 -0.6661  1.7134 -0.5898
 7250TIP3   OH243164   4.180   2.912  12.170 -0.9771  0.4721 -0.3154
 7250TIP3    H143165   4.234   2.901  12.248 -0.4642  0.1734 -0.7070
 7250TIP3    H243166   4.092   2.928  12.204 -1.2625 -2.0699  0.3449
 7251TIP3   OH243167   6.548   6.463  12.222  0.0254  0.0069 -0.0084
 7251TIP3    H143168   6.491   6.393  12.190  0.6585 -0.4451 -0.1610
 7251TIP3    H243169   6.540   6.532  12.157  1.8947 -1.2016 -1.6313
 7252TIP3   OH243170   3.897   1.053   4.203 -0.6378 -0.1977 -0.2107
 7252TIP3    H143171   3.935   0.990   4.143 -0.7203  0.8662 -1.4291
 7252TIP3    H243172   3.969   1.113   4.223 -0.7923 -0.1477  0.2087
 7253TIP3   OH243173   0.770   3.861  11.368  0.3487 -0.0759 -0.6746
 7253TIP3    H143174   0.720   3.785  11.397  3.2735 -2.0027 -0.2543
 7253TIP3    H243175   0.800   3.902  11.449  1.7663 -0.6744 -0.8581
 7254TIP3   OH243176   0.225   2.613   1.192  0.1659 -0.3005 -0.0930
 7254TIP3    H143177   0.272   2.656   1.121  0.5652  1.9516  1.4325
 7254TIP3    H243178   0.277   2.630   1.270 -1.3462 -0.8320  1.0931
 7255TIP3   OH243179   6.623   4.341  15.191  0.0419 -0.0163  0.3147
 7255TIP3    H143180   6.553   4.312  15.134 -0.8268  2.6650 -0.1284
 7255TIP3    H243181   6.699   4.353  15.133 -0.0315  0.0387  0.2306
 7256TIP3   OH243182   4.861   6.444   5.739  0.1450 -0.1787  0.0088
 7256TIP3    H143183   4.766   6.458   5.732  0.0700 -0.5085  0.3463
 7256TIP3    H243184   4.896   6.529   5.765  0.1167  0.3574 -1.6048
 7257TIP3   OH243185   2.979   6.380  14.293 -0.2127 -0.0120 -0.5229
 7257TIP3    H143186   2.986   6.439  14.218  0.8307 -1.2692 -1.4519
 7257TIP3    H243187   3.040   6.309  14.274 -1.2471 -1.2750  0.6745
 7258TIP3   OH243188   0.116   0.835   5.022  0.7164 -0.1598  0.4159
 7258TIP3    H143189   0.101   0.741   5.011 -1.8192  0.3171 -0.9854
 7258TIP3    H243190   0.191   0.854   4.965 -1.2858 -0.7460 -2.6631
 7259TIP3   OH243191   0.813   2.102  15.176  0.0315 -0.1440  0.7923
 7259TIP3    H143192   0.820   2.156  15.255 -1.2494 -0.3048  1.0391
 7259TIP3    H243193   0.730   2.128  15.136 -1.4194 -2.9218  1.7218
 7260TIP3   OH243194   6.429   4.614  16.251  0.2784  0.7201 -0.0581
 7260TIP3    H143195   6.453   4.706  16.262 -3.3986  1.8415  0.2298
 7260TIP3    H243196   6.402   4.607  16.159 -1.6810  0.6331  0.4839
 7261TIP3   OH243197   6.137   4.577  12.958 -0.3988 -0.5599 -0.8129
 7261TIP3    H143198   6.195   4.619  12.895  1.0528  0.6534  1.2220
 7261TIP3    H243199   6.185   4.499  12.987 -0.4677 -0.3928 -0.2428
 7262TIP3   OH243200   1.516   6.489   3.969  0.2873 -0.0847  0.5130
 7262TIP3    H143201   1.533   6.454   4.057 -0.1754  0.2881  0.7530
 7262TIP3    H243202   1.430   6.531   3.976 -0.7381 -1.8705 -0.6579
 7263TIP3   OH243203   4.277   1.426  14.884 -0.4313  0.1106 -0.2618
 7263TIP3    H143204   4.331   1.350  14.860 -0.6105  0.1618 -0.8394
 7263TIP3    H243205   4.313   1.455  14.968 -0.0987 -0.3662 -0.2319
 7264TIP3   OH243206   0.442   4.269  14.250  0.7754 -0.2809  0.3085
 7264TIP3    H143207   0.429   4.314  14.166  0.7361  1.0150  0.9784
 7264TIP3    H243208   0.438   4.339  14.315  1.7118 -1.1356  1.3243
 7265TIP3   OH243209   4.518   3.809   2.799  0.5907 -0.0664  0.0520
 7265TIP3    H143210   4.481   3.721   2.804 -0.0216  0.0443 -1.5980
 7265TIP3    H243211   4.474   3.858   2.869 -1.2246 -0.3743 -0.8157
 7266TIP3   OH243212   4.502   1.700   5.038 -0.2715  0.1175  0.4496
 7266TIP3    H143213   4.505   1.749   5.120 -1.8421  0.5216  0.2995
 7266TIP3    H243214   4.498   1.608   5.065  2.0945  0.0235  0.7382
 7267TIP3   OH243215   4.265   1.342  11.609 -0.1256  0.1163  0.3917
 7267TIP3    H143216   4.255   1.298  11.524 -0.4911 -1.2784  1.1304
 7267TIP3    H243217   4.338   1.402  11.596  0.1192 -0.4056 -0.7739
 7268TIP3   OH243218   0.222   4.127   3.600 -0.5326 -0.1115 -0.0333
 7268TIP3    H143219   0.211   4.145   3.693  1.4091 -0.0468  0.2176
 7268TIP3    H243220   0.225   4.213   3.559 -1.3464 -0.1393 -0.1686
 7269TIP3   OH243221   0.452   4.359   4.899  0.1976 -0.5600  0.2977
 7269TIP3    H143222   0.435   4.286   4.959  1.1486 -0.6210  0.5094
 7269TIP3    H243223   0.512   4.416   4.948 -1.1408  0.7849  0.4583
 7270TIP3   OH243224   5.347   0.813  13.124  0.0550 -0.2755 -0.0647
 7270TIP3    H143225   5.420   0.858  13.083  0.7276 -0.5354  0.8281
 7270TIP3    H243226   5.341   0.852  13.212  0.2739 -1.4871  0.5103
 7271TIP3   OH243227   5.883   0.467  16.363  0.2064  0.4786  0.4019
 7271TIP3    H143228   5.816   0.463  16.295 -0.7639 -0.6049  1.3600
 7271TIP3    H243229   5.892   0.560  16.382  2.1503  1.0576 -2.6869
 7272TIP3   OH243230   5.085   3.554   1.478 -0.2666 -0.7755  0.2192
 7272TIP3    H143231   5.004   3.606   1.485  0.0022 -0.3303  0.0631
 7272TIP3    H243232   5.139   3.584   1.550  0.6066  0.4571 -0.9004
 7273TIP3   OH243233   3.687   3.408   2.842  0.1158 -0.3240 -0.3263
 7273TIP3    H143234   3.619   3.351   2.878  1.3899 -2.7439 -1.4831
 7273TIP3    H243235   3.701   3.475   2.909 -1.9969 -0.9029  0.7803
 7274TIP3   OH243236   1.275   0.144  14.996 -0.2549 -0.2433 -0.2158
 7274TIP3    H143237   1.219   0.075  14.960  1.9947 -1.3425 -1.9410
 7274TIP3    H243238   1.357   0.099  15.018  0.4744  1.4984  0.8663
 7275TIP3   OH243239   2.959   2.983  13.352  0.4430  0.5795  0.3681
 7275TIP3    H143240   2.942   3.000  13.445  2.5604 -0.7615  1.0817
 7275TIP3    H243241   3.054   2.970  13.347  0.1495 -1.5353 -1.5944
 7276TIP3   OH243242   0.558   1.151   4.692  0.3122 -0.2882 -0.3043
 7276TIP3    H143243   0.536   1.230   4.641  2.7250  1.1179  0.6788
 7276TIP3    H243244   0.592   1.090   4.627  2.1957  1.0242 -0.6481
 7277TIP3   OH243245   4.777   0.903  12.337  0.7112  0.0309  0.2908
 7277TIP3    H143246   4.714   0.832  12.321  1.0689  0.2126 -2.3817
 7277TIP3    H243247   4.727   0.968  12.387 -0.5774 -0.7187  0.0399
 7278TIP3   OH243248   4.542   2.134   0.264  0.7402 -0.0911  0.0410
 7278TIP3    H143249   4.454   2.139   0.227  0.3275  1.2191  1.1507
 7278TIP3    H243250   4.600   2.154   0.190  0.0532  0.2958 -0.4034
 7279TIP3   OH243251   5.025   1.600   3.797  0.1348 -0.3079 -0.3740
 7279TIP3    H143252   4.968   1.671   3.767  0.2049 -0.5041 -0.9876
 7279TIP3    H243253   4.971   1.522   3.792  0.3720 -0.4531 -0.6886
 7280TIP3   OH243254   1.285   3.029   0.366 -0.4317 -0.4054  0.0714
 7280TIP3    H143255   1.219   2.990   0.309  0.3431 -1.3022 -0.2207
 7280TIP3    H243256   1.234   3.081   0.429 -1.3365 -0.0634 -0.9199
 7281TIP3   OH243257   0.382   1.862  13.928 -0.9774  0.0127  0.0464
 7281TIP3    H143258   0.407   1.770  13.934 -1.1770 -0.2526 -2.2464
 7281TIP3    H243259   0.420   1.892  13.846  0.9099  2.6299  1.7138
 7282TIP3   OH243260   3.651   4.930   4.964 -0.4951 -0.3864 -0.2108
 7282TIP3    H143261   3.568   4.952   4.921 -2.0020 -1.0178  2.2016
 7282TIP3    H243262   3.671   5.007   5.017  0.3993 -0.3079 -0.6536
 7283TIP3   OH243263   0.450   4.791   3.467  0.7474  0.1725  0.1702
 7283TIP3    H143264   0.370   4.768   3.514  1.6068  0.5534  1.9183
 7283TIP3    H243265   0.425   4.791   3.375 -0.8036 -1.4814  0.5424
 7284TIP3   OH243266   3.165   1.074   4.241 -0.0640  0.3479 -1.3353
 7284TIP3    H143267   3.234   1.007   4.240 -0.0955  0.2692 -0.2053
 7284TIP3    H243268   3.108   1.047   4.313 -0.8174  0.8698 -1.7316
 7285TIP3   OH243269   3.809   3.936  13.431 -0.5231  0.0447  0.2459
 7285TIP3    H143270   3.801   4.013  13.488 -1.2882  1.0763 -1.1920
 7285TIP3    H243271   3.895   3.900  13.451 -0.7241  0.4125  1.9746
 7286TIP3   OH243272   3.524   3.185   0.268 -0.3074  0.3311  0.3303
 7286TIP3    H143273   3.504   3.196   0.361 -1.6168  0.0644  0.1001
 7286TIP3    H243274   3.448   3.139   0.232  1.2105 -1.7018 -0.4307
 7287TIP3   OH243275   1.846   4.359   3.509 -0.1138  0.2296 -0.5798
 7287TIP3    H143276   1.919   4.421   3.514  0.0138  0.0112  1.5023
 7287TIP3    H243277   1.823   4.343   3.601 -3.9311  1.6017 -1.0988
 7288TIP3   OH243278   5.014   0.777  12.247  0.6032 -0.0905  0.2393
 7288TIP3    H143279   5.055   0.815  12.170 -0.4069 -0.5719 -0.5697
 7288TIP3    H243280   4.928   0.820  12.253 -0.3589 -1.8121 -0.4062
 7289TIP3   OH243281   0.299   2.731   4.735  0.5583 -0.4168  0.4710
 7289TIP3    H143282   0.254   2.769   4.659  1.8745 -1.1654 -0.7350
 7289TIP3    H243283   0.300   2.802   4.800 -0.8218  0.1579 -0.0982
 7290TIP3   OH243284   5.065   4.194   6.014  0.3986  0.5491 -0.1077
 7290TIP3    H143285   5.036   4.143   6.089 -0.8052 -0.8760 -1.4594
 7290TIP3    H243286   5.158   4.213   6.030  0.6783 -1.4496  0.7929
 7291TIP3   OH243287   0.446   3.060  14.069  0.2480 -0.2457 -0.0100
 7291TIP3    H143288   0.433   3.076  13.975  1.1604 -1.6404 -0.4127
 7291TIP3    H243289   0.534   3.021  14.074 -0.6787 -2.3536  1.1370
 7292TIP3   OH243290   5.793   3.671  16.321 -0.1913  0.1535  0.1040
 7292TIP3    H143291   5.755   3.583  16.320 -0.2235  0.1406  1.2921
 7292TIP3    H243292   5.874   3.662  16.371  0.9084  0.3882 -1.5495
 7293TIP3   OH243293   3.583   5.961  14.778  0.1648 -0.0632  0.1588
 7293TIP3    H143294   3.520   5.996  14.840  0.4172  0.1672  0.2875
 7293TIP3    H243295   3.650   5.918  14.832  1.4029  1.7743  0.1817
 7294TIP3   OH243296   4.477   6.170  11.569 -0.2837  0.2335  0.0484
 7294TIP3    H143297   4.453   6.085  11.603  0.6229 -0.1713 -0.2911
 7294TIP3    H243298   4.447   6.233  11.635 -1.1587 -0.3267  0.1870
 7295TIP3   OH243299   3.582   2.836   1.767  0.1955 -1.1344 -0.1408
 7295TIP3    H143300   3.642   2.774   1.808  2.5568  1.4462  0.5954
 7295TIP3    H243301   3.596   2.825   1.673  0.7776 -1.5103 -0.0089
 7296TIP3   OH243302   2.499   1.582   2.064  0.5676  0.2937  0.7291
 7296TIP3    H143303   2.424   1.532   2.097  0.3781 -0.4719 -0.8084
 7296TIP3    H243304   2.539   1.618   2.143  0.4103 -1.8485  1.8711
 7297TIP3   OH243305   4.117   2.559   0.358  0.1674 -0.0845  0.2786
 7297TIP3    H143306   4.073   2.532   0.439  0.6553 -1.9475 -0.0338
 7297TIP3    H243307   4.049   2.604   0.309  0.4314  3.2499  2.6270
 7298TIP3   OH243308   6.282   4.653   0.609 -0.4925  0.2343  0.0950
 7298TIP3    H143309   6.205   4.615   0.653  0.1641 -0.4957  0.6356
 7298TIP3    H243310   6.264   4.642   0.516 -1.7080  1.4129  0.1532
 7299TIP3   OH243311   6.316   6.080   3.062 -0.0896 -0.8701  0.2484
 7299TIP3    H143312   6.321   6.005   3.004  1.3973 -0.9155  0.4071
 7299TIP3    H243313   6.406   6.109   3.074 -0.5583  0.5203  0.7475
 7300TIP3   OH243314   2.482   2.789  11.378  0.0854  0.0338  0.1427
 7300TIP3    H143315   2.537   2.786  11.300 -0.5687  0.0165 -0.3339
 7300TIP3    H243316   2.501   2.874  11.418 -1.4413  1.2431 -1.4800
 7301TIP3   OH243317   5.047   2.342  16.746  0.0498  0.0252  0.2945
 7301TIP3    H143318   5.035   2.404  16.818  0.4134  2.2768 -1.4566
 7301TIP3    H243319   4.980   2.366  16.682 -0.5820 -2.2327  0.0334
 7302TIP3   OH243320   1.129   5.438   4.805  0.9564 -0.0443  0.0738
 7302TIP3    H143321   1.143   5.422   4.712 -0.1615 -2.6486  0.2555
 7302TIP3    H243322   1.050   5.492   4.809  1.1566  0.2916 -0.4856
 7303TIP3   OH243323   1.268   6.436   3.453 -0.9242 -0.5377  0.3469
 7303TIP3    H143324   1.178   6.466   3.465 -0.6400  0.6206 -0.2719
 7303TIP3    H243325   1.295   6.404   3.540 -1.4624  0.4388  0.8859
 7304TIP3   OH243326   5.101   2.446  14.975  0.3506 -0.5984 -0.1659
 7304TIP3    H143327   5.190   2.414  14.982  0.3385 -1.0196 -1.6026
 7304TIP3    H243328   5.046   2.368  14.976 -0.0196 -0.3391  0.7906
 7305TIP3   OH243329   1.721   3.210   0.197 -0.0510  0.7344 -0.3900
 7305TIP3    H143330   1.670   3.132   0.219  0.7067 -0.2740 -1.9955
 7305TIP3    H243331   1.686   3.239   0.112  0.1755  1.7100 -0.1705
 7306TIP3   OH243332   4.182   5.511  12.382 -0.2008  0.3619  0.2817
 7306TIP3    H143333   4.162   5.423  12.416  0.2259  0.5818  1.1410
 7306TIP3    H243334   4.179   5.501  12.287  0.1405 -0.6662  0.3619
 7307TIP3   OH243335   2.508   4.429  14.880  0.1975 -0.2664 -0.1602
 7307TIP3    H143336   2.420   4.404  14.853 -0.1424  0.5316  0.1974
 7307TIP3    H243337   2.506   4.524  14.885  0.9558 -0.2659  0.3061
 7308TIP3   OH243338   6.514   2.760  12.688 -0.1105 -0.1177 -0.0251
 7308TIP3    H143339   6.445   2.768  12.623  0.3764 -0.3732 -0.5847
 7308TIP3    H243340   6.490   2.682  12.739  0.6864 -1.2922 -1.3742
 7309TIP3   OH243341   4.720   5.842   0.181 -0.0798 -0.1551 -0.7718
 7309TIP3    H143342   4.778   5.917   0.168 -0.0980  0.1159  0.5641
 7309TIP3    H243343   4.749   5.778   0.116 -0.1272  1.0249 -2.0038
 7310TIP3   OH243344   1.240   1.385   0.136  0.1354  0.3462 -0.1131
 7310TIP3    H143345   1.312   1.368   0.075  0.2093 -0.8244  0.2584
 7310TIP3    H243346   1.188   1.453   0.095  0.9600  0.5637 -0.8182
 7311TIP3   OH243347   4.538   6.274   1.665  0.3475 -0.3019 -0.0533
 7311TIP3    H143348   4.458   6.221   1.666  1.0265 -1.3699 -0.5839
 7311TIP3    H243349   4.517   6.347   1.605 -1.1165  0.9477  1.8540
 7312TIP3   OH243350   5.141   3.191   5.417 -0.0835  0.4107  0.2497
 7312TIP3    H143351   5.196   3.170   5.342  1.0020 -2.9905  1.8261
 7312TIP3    H243352   5.053   3.166   5.391  0.5098 -2.1362  0.5044
 7313TIP3   OH243353   0.581   1.673  13.635 -0.3505  0.1951  0.4326
 7313TIP3    H143354   0.529   1.751  13.615  1.7011  1.5763  0.0971
 7313TIP3    H243355   0.541   1.603  13.585 -3.2221  0.6010  1.9440
 7314TIP3   OH243356   0.170   3.305  17.218 -0.1257 -0.2942 -1.0044
 7314TIP3    H143357   0.247   3.344  17.177  0.8090  1.2700  1.9293
 7314TIP3    H243358   0.099   3.365  17.197 -0.0864 -0.5039 -1.7858
 7315TIP3   OH243359   1.761   3.624  15.752  0.3921 -0.1777 -0.2032
 7315TIP3    H143360   1.699   3.693  15.775 -0.4410  0.0322 -2.7143
 7315TIP3    H243361   1.824   3.668  15.695  0.4697 -1.2343 -0.9568
 7316TIP3   OH243362   6.389   3.283   3.164  0.0852  0.0196 -0.0805
 7316TIP3    H143363   6.465   3.287   3.221  0.3002 -0.6108 -0.3235
 7316TIP3    H243364   6.321   3.333   3.212  0.2834 -0.4283  0.6843
 7317TIP3   OH243365   0.317   3.327   2.013  0.9334  0.5939 -0.5265
 7317TIP3    H143366   0.395   3.364   1.970  1.2641  0.4268 -0.0797
 7317TIP3    H243367   0.319   3.234   1.990  1.1341  0.4971 -0.1117
 7318TIP3   OH243368   0.713   0.197  14.310  0.4388 -0.6232  0.1227
 7318TIP3    H143369   0.716   0.290  14.333  0.4370 -0.1950 -1.5021
 7318TIP3    H243370   0.620   0.180  14.295  0.5822 -0.5571 -0.8503
 7319TIP3   OH243371   5.174   5.745  12.502  0.7143 -0.4006  0.2294
 7319TIP3    H143372   5.232   5.689  12.553  0.3424 -1.3502 -0.3544
 7319TIP3    H243373   5.181   5.832  12.543  1.1135 -0.9243  1.3022
 7320TIP3   OH243374   6.148   2.751   6.022 -0.3672 -0.1134  0.2305
 7320TIP3    H143375   6.153   2.693   6.098 -0.5350  0.4954  0.7105
 7320TIP3    H243376   6.143   2.691   5.947 -0.5130 -0.7216  0.7153
 7321TIP3   OH243377   0.673   2.103  11.281  0.6715  0.2944 -0.5673
 7321TIP3    H143378   0.631   2.020  11.302  1.6846 -0.2211 -0.5245
 7321TIP3    H243379   0.760   2.079  11.249  0.3516  1.2385 -2.2975
 7322TIP3   OH243380   2.961   2.991   0.499 -0.1761 -0.0835 -0.4303
 7322TIP3    H143381   2.943   2.897   0.486 -0.7716  0.0726 -0.8096
 7322TIP3    H243382   2.878   3.034   0.477  0.4217  0.6227 -1.3852
 7323TIP3   OH243383   5.945   6.673  15.481 -0.4471  0.4789 -0.2632
 7323TIP3    H143384   5.997   6.620  15.421  0.4242  0.5961  0.3802
 7323TIP3    H243385   5.856   6.666  15.447  0.0496  0.6597 -1.6491
 7324TIP3   OH243386   3.782   4.568  13.995  0.1551  0.4520 -0.3826
 7324TIP3    H143387   3.799   4.586  13.902 -2.2028 -1.5123 -1.2984
 7324TIP3    H243388   3.866   4.585  14.038  1.6473  0.3644 -3.0145
 7325TIP3   OH243389   6.160   5.635  14.049 -0.6221  0.2419 -0.0619
 7325TIP3    H143390   6.234   5.583  14.019 -0.5332  1.5849 -2.4400
 7325TIP3    H243391   6.134   5.595  14.132  1.1257 -1.8327 -0.4343
 7326TIP3   OH243392   2.903   1.182   1.343 -0.7577 -0.4506  0.6375
 7326TIP3    H143393   2.847   1.105   1.354 -1.7470  0.2706  0.7763
 7326TIP3    H243394   2.884   1.236   1.420 -1.0863  0.5421 -0.1155
 7327TIP3   OH243395   2.694   0.529  11.367 -0.6680  0.5035 -0.4038
 7327TIP3    H143396   2.692   0.433  11.364 -0.4830  0.5277 -1.3436
 7327TIP3    H243397   2.694   0.549  11.461  1.3685 -0.4542 -0.1535
 7328TIP3   OH243398   1.096   3.389  11.877 -0.4747  0.0256 -0.3565
 7328TIP3    H143399   1.160   3.430  11.818 -0.2755 -0.3936 -0.4402
 7328TIP3    H243400   1.119   3.423  11.964 -0.1249 -0.1346 -0.3836
 7329TIP3   OH243401   3.696   4.804   2.076 -0.0555 -0.2530  0.2927
 7329TIP3    H143402   3.739   4.815   2.161 -1.2722 -1.4609  1.1214
 7329TIP3    H243403   3.617   4.858   2.082 -0.0623 -0.2131 -0.1405
 7330TIP3   OH243404   5.347   0.931  16.008  0.0962 -0.0067 -0.4434
 7330TIP3    H143405   5.418   0.902  16.065 -0.4390  0.9006  0.7221
 7330TIP3    H243406   5.327   0.855  15.953 -0.1106 -1.2779  1.3172
 7331TIP3   OH243407   3.456   0.690  12.905 -0.8278 -0.2915 -0.9902
 7331TIP3    H143408   3.515   0.702  12.979 -0.9173  0.0362 -0.9717
 7331TIP3    H243409   3.484   0.608  12.865 -0.0294  0.1200 -1.2892
 7332TIP3   OH243410   0.583   0.822  12.967 -0.4617  0.5645  0.6121
 7332TIP3    H143411   0.520   0.797  12.899  0.9389  0.0279 -0.5369
 7332TIP3    H243412   0.546   0.788  13.048 -1.0263 -0.8946 -0.2231
 7333TIP3   OH243413   1.790   0.340   6.764 -0.4048  0.6257  0.1659
 7333TIP3    H143414   1.788   0.357   6.670 -1.2501  0.6881  0.1889
 7333TIP3    H243415   1.809   0.425   6.804  1.5491  0.3201 -0.0009
 7334TIP3   OH243416   1.372   6.640  15.999 -0.3885 -0.5318 -0.4762
 7334TIP3    H143417   1.395   6.621  16.089  0.5330 -0.6465 -0.7291
 7334TIP3    H243418   1.287   6.683  16.004 -0.1337 -0.1356  0.4785
 7335TIP3   OH243419   3.007   2.166  12.565 -0.6851  0.8458  0.3027
 7335TIP3    H143420   3.061   2.087  12.557 -1.0579  0.6137  0.0731
 7335TIP3    H243421   3.069   2.238  12.552 -0.6161  0.5591 -1.1083
 7336TIP3   OH243422   3.381   5.532  14.934 -0.9976 -0.0684 -0.1564
 7336TIP3    H143423   3.431   5.456  14.962 -1.8105 -0.6924 -0.3594
 7336TIP3    H243424   3.446   5.600  14.919 -0.2573 -0.7358 -0.0053
 7337TIP3   OH243425   5.370   6.462  14.601  0.4575  0.3938  0.5313
 7337TIP3    H143426   5.318   6.459  14.520  0.4239  0.2383  0.5575
 7337TIP3    H243427   5.452   6.418  14.578 -0.0176 -0.7294  0.9076
 7338TIP3   OH243428   3.047   5.260  15.130  0.1266  0.0184  0.3886
 7338TIP3    H143429   3.000   5.328  15.178  0.0815 -0.0890  0.4952
 7338TIP3    H243430   3.138   5.270  15.156 -0.0330 -0.6824  1.2697
 7339TIP3   OH243431   1.791   5.721   4.382  0.3054  0.1608 -0.1672
 7339TIP3    H143432   1.753   5.650   4.433  2.7531 -1.1420 -0.0185
 7339TIP3    H243433   1.848   5.767   4.444  1.9617 -0.3661 -1.2401
 7340TIP3   OH243434   5.080   1.121  16.467 -0.2704 -0.0191 -0.5351
 7340TIP3    H143435   5.083   1.091  16.376  1.1977  0.3410 -0.6211
 7340TIP3    H243436   5.050   1.212  16.461  1.1502  0.4459 -0.7881
 7341TIP3   OH243437   6.410   6.459  10.630  0.0959  0.4261 -0.2742
 7341TIP3    H143438   6.361   6.535  10.662  1.2736  0.1340  2.5460
 7341TIP3    H243439   6.472   6.495  10.567 -1.4267  1.2865 -1.3275
 7342TIP3   OH243440   0.869   6.340  16.734  0.0439 -0.0526  0.0442
 7342TIP3    H143441   0.963   6.325  16.724  0.2038  0.4525  0.6909
 7342TIP3    H243442   0.851   6.319  16.826 -0.4101  0.1709  0.0087
 7343TIP3   OH243443   6.360   0.118  16.405  0.1585  0.3315 -0.5313
 7343TIP3    H143444   6.362   0.077  16.318 -0.6457  1.0304 -0.8880
 7343TIP3    H243445   6.297   0.066  16.454 -1.5605  1.6240 -1.2654
 7344TIP3   OH243446   4.289   2.482   1.438  0.2009 -0.6199 -0.3315
 7344TIP3    H143447   4.357   2.533   1.394  1.4616 -1.8999  0.0512
 7344TIP3    H243448   4.308   2.391   1.414  0.0894 -1.2295  1.6857
 7345TIP3   OH243449   4.182   5.373  17.008  0.2049 -0.3768 -0.4100
 7345TIP3    H143450   4.155   5.284  17.030  0.8630 -0.5859 -0.3984
 7345TIP3    H243451   4.102   5.418  16.981  0.0481 -1.3253 -1.5879
 7346TIP3   OH243452   5.786   5.351   6.144  0.7708  0.0485 -0.0434
 7346TIP3    H143453   5.748   5.293   6.078 -1.5131 -0.5224  1.6440
 7346TIP3    H243454   5.868   5.308   6.170 -0.5238 -2.1473  0.6725
 7347TIP3   OH243455   4.896   5.465   5.329 -0.6495  0.2567 -0.4362
 7347TIP3    H143456   4.911   5.527   5.258 -4.6274 -0.7976 -2.4524
 7347TIP3    H243457   4.820   5.501   5.376  0.1316 -0.5665  1.5504
 7348TIP3   OH243458   5.053   5.595  12.841 -0.7442  0.0444 -0.4380
 7348TIP3    H143459   5.008   5.669  12.882 -1.1851 -0.7426  0.5779
 7348TIP3    H243460   5.104   5.556  12.913  0.6006  0.1953 -1.2899
 7349TIP3   OH243461   1.181   3.542  16.069 -0.0533  0.5455 -0.2212
 7349TIP3    H143462   1.186   3.447  16.080 -0.1710  0.5395 -0.2169
 7349TIP3    H243463   1.104   3.556  16.013  0.9462  0.5319 -1.6672
 7350TIP3   OH243464   3.581   4.255   5.177 -0.4450 -0.1980  0.4761
 7350TIP3    H143465   3.545   4.320   5.116 -0.5931 -2.0911 -1.5739
 7350TIP3    H243466   3.676   4.262   5.164 -0.5019 -1.1168 -0.6159
 7351TIP3   OH243467   5.560   3.869  13.129 -0.9361  0.3651 -0.0945
 7351TIP3    H143468   5.596   3.820  13.056 -0.1336 -0.4017  0.7828
 7351TIP3    H243469   5.624   3.857  13.200 -1.5328  1.3359  0.6363
 7352TIP3   OH243470   6.244   6.250  10.704 -0.1212 -0.2579  0.2332
 7352TIP3    H143471   6.288   6.334  10.692  0.5970 -0.3266  2.0716
 7352TIP3    H243472   6.296   6.188  10.654  1.0033 -0.0665  1.1266
 7353TIP3   OH243473   3.349   1.774  13.193 -0.2708  0.0928 -0.0761
 7353TIP3    H143474   3.306   1.840  13.139  1.4632  1.1016 -0.3001
 7353TIP3    H243475   3.297   1.695  13.180 -1.1790  0.8765 -1.4709
 7354TIP3   OH243476   3.510   1.636  16.015  0.6695 -0.1517  0.6437
 7354TIP3    H143477   3.532   1.571  16.081 -0.2049  0.2843  1.3836
 7354TIP3    H243478   3.559   1.715  16.041  2.6039 -0.7739 -0.8605
 7355TIP3   OH243479   5.448   4.959  13.022 -0.2688 -0.4840 -0.4609
 7355TIP3    H143480   5.516   4.998  13.077  0.2039  1.0453 -2.0389
 7355TIP3    H243481   5.403   5.034  12.984 -2.9714 -1.4475  0.6052
 7356TIP3   OH243482   0.388   6.534   6.033  0.0244 -0.0158  0.3132
 7356TIP3    H143483   0.376   6.628   6.019  1.3966  0.3023  1.0726
 7356TIP3    H243484   0.420   6.527   6.123  0.6982 -1.1509  0.0060
 7357TIP3   OH243485   6.372   5.841  15.373 -0.6824 -0.9949  0.4304
 7357TIP3    H143486   6.432   5.768  15.359  0.9627  0.4127 -0.3611
 7357TIP3    H243487   6.411   5.890  15.445  0.6756  1.3340 -1.7113
 7358TIP3   OH243488   5.266   3.003   2.644 -0.4708 -0.2556 -0.4703
 7358TIP3    H143489   5.243   3.077   2.701 -0.0762  0.3045 -1.0211
 7358TIP3    H243490   5.346   2.968   2.682 -0.4603 -0.1743 -0.4154
 7359TIP3   OH243491   4.910   0.632   5.128 -0.3163  0.5725  0.0428
 7359TIP3    H143492   4.955   0.556   5.164  0.4403  1.6968  1.6300
 7359TIP3    H243493   4.980   0.690   5.099 -0.8750  0.7710 -0.9832
 7360TIP3   OH243494   1.285   3.957  15.170 -0.0449  0.3760 -0.2963
 7360TIP3    H143495   1.198   3.978  15.203 -0.8046 -0.6185 -1.5379
 7360TIP3    H243496   1.331   4.041  15.166 -1.0666  0.9606  0.0620
 7361TIP3   OH243497   0.081   0.664   5.426 -0.3057 -0.0511  0.0145
 7361TIP3    H143498   0.049   0.754   5.431 -0.2180  0.2776 -3.4127
 7361TIP3    H243499   0.019   0.618   5.370  2.1030 -0.8332 -2.2034
 7362TIP3   OH243500   4.344   1.138   5.610  0.5062 -0.3775 -0.1266
 7362TIP3    H143501   4.402   1.208   5.581 -0.7239  0.9378  0.4570
 7362TIP3    H243502   4.300   1.108   5.531  1.3467 -0.8074 -0.4412
 7363TIP3   OH243503   2.286   6.413   0.899  0.2306  0.4074  0.0712
 7363TIP3    H143504   2.362   6.450   0.855  1.5797  1.6083  3.1284
 7363TIP3    H243505   2.314   6.325   0.926 -0.0912  0.2025 -0.2546
 7364TIP3   OH243506   4.639   6.594   5.672  0.3378  0.1428 -0.4557
 7364TIP3    H143507   4.691   6.649   5.613 -0.7283  1.2909 -0.3647
 7364TIP3    H243508   4.572   6.652   5.706  1.0669 -0.4074  2.1205
 7365TIP3   OH243509   0.583   4.827  11.731  0.2459  0.5082 -0.0338
 7365TIP3    H143510   0.634   4.887  11.787 -1.2125  2.1730 -0.4041
 7365TIP3    H243511   0.525   4.884  11.682 -1.2103 -1.2469 -0.4448
 7366TIP3   OH243512   5.685   6.541  12.991  0.2910 -0.1301  0.0647
 7366TIP3    H143513   5.640   6.462  12.963  0.8493 -0.3057 -0.3503
 7366TIP3    H243514   5.636   6.612  12.950  1.1421 -0.3869 -1.4730
 7367TIP3   OH243515   4.447   3.375  17.224  0.0786  0.2476 -0.2724
 7367TIP3    H143516   4.453   3.422  17.307 -0.5402 -0.6526  0.2986
 7367TIP3    H243517   4.538   3.353  17.203  0.0900 -1.6516  1.4466
 7368TIP3   OH243518   5.899   4.443   0.975  0.2528 -0.2543  0.3901
 7368TIP3    H143519   5.849   4.377   1.023  0.2998  0.4555  1.4637
 7368TIP3    H243520   5.834   4.499   0.934  0.1905 -0.1852  0.5830
 7369TIP3   OH243521   1.961   2.608   0.662  1.0855  0.4158  0.6823
 7369TIP3    H143522   1.900   2.677   0.691  1.5661  0.2613  2.1637
 7369TIP3    H243523   1.938   2.532   0.715  1.9617  0.0869  0.6135
 7370TIP3   OH243524   0.879   5.060  13.609  0.4407  0.2373  0.2044
 7370TIP3    H143525   0.942   5.090  13.675  1.1281 -1.7217  0.5259
 7370TIP3    H243526   0.826   4.995  13.655 -0.8640  0.7749 -0.4852
 7371TIP3   OH243527   2.837   4.492  15.311  0.3928  0.1850 -0.0826
 7371TIP3    H143528   2.924   4.530  15.326 -0.0621  0.5567  1.8399
 7371TIP3    H243529   2.776   4.559  15.342 -0.6562  0.2621 -2.1143
 7372TIP3   OH243530   5.841   6.369  15.241 -0.1930  0.4150 -0.0087
 7372TIP3    H143531   5.927   6.371  15.198  0.3759  0.8212  1.1241
 7372TIP3    H243532   5.821   6.461  15.258 -0.2297  0.2346  0.9430
 7373TIP3   OH243533   6.381   4.551  11.863  0.2400 -0.1705 -0.1884
 7373TIP3    H143534   6.437   4.531  11.788  0.5330  0.6202 -0.1907
 7373TIP3    H243535   6.323   4.476  11.870  1.3603 -1.0534 -0.1199
 7374TIP3   OH243536   5.059   5.494   2.892 -0.0287 -0.3610  0.3310
 7374TIP3    H143537   5.011   5.473   2.812 -2.0382  1.0140  1.0711
 7374TIP3    H243538   5.108   5.573   2.870 -1.2863  0.5486  0.6355
 7375TIP3   OH243539   5.011   1.971  13.547  0.1755 -0.4246  0.1980
 7375TIP3    H143540   4.959   1.895  13.521  0.5251 -0.8818  0.7846
 7375TIP3    H243541   5.021   2.022  13.467  0.2555 -1.1973 -0.2975
 7376TIP3   OH243542   0.323   4.556  11.569  0.4024  0.0434 -0.6287
 7376TIP3    H143543   0.317   4.648  11.544  1.9072  0.8417  1.6689
 7376TIP3    H243544   0.279   4.551  11.654  2.7225 -0.7065  0.6110
 7377TIP3   OH243545   1.284   1.945  16.097 -0.3760 -0.3242  0.1422
 7377TIP3    H143546   1.247   2.032  16.110 -1.0381 -0.7661  1.4012
 7377TIP3    H243547   1.240   1.912  16.018 -1.3316 -0.1259  0.5696
 7378TIP3   OH243548   0.494   1.022   1.125 -0.0946  0.4437  0.3135
 7378TIP3    H143549   0.488   1.106   1.172  1.6129  0.7292  0.0811
 7378TIP3    H243550   0.574   1.029   1.073 -0.0838 -1.2138  0.0467
 7379TIP3   OH243551   4.475   0.949  11.597 -0.0491 -0.0388 -0.0049
 7379TIP3    H143552   4.457   0.964  11.504  2.6350  0.6317 -0.4906
 7379TIP3    H243553   4.568   0.967  11.606  0.0907 -1.6627  2.5314
 7380TIP3   OH243554   6.760   0.345  15.525  0.1167  0.1084  0.0444
 7380TIP3    H143555   6.747   0.439  15.533  0.2661  0.0845  0.6159
 7380TIP3    H243556   6.839   0.337  15.471 -0.1449  0.3029 -0.3691
 7381TIP3   OH243557   1.264   5.190   4.878  0.4628  0.0509  0.0749
 7381TIP3    H143558   1.359   5.197   4.873  0.3413  1.1427 -1.9100
 7381TIP3    H243559   1.233   5.278   4.858 -0.9787 -0.3416  0.4875
 7382TIP3   OH243560   6.658   4.636  17.050 -0.1061 -0.0172 -0.1747
 7382TIP3    H143561   6.739   4.585  17.053  0.7726  1.3378 -0.2059
 7382TIP3    H243562   6.680   4.713  16.999 -1.6206  0.0603 -0.7679
 7383TIP3   OH243563   0.737   5.520  16.129 -0.1534 -0.7053  0.2150
 7383TIP3    H143564   0.661   5.579  16.130 -0.2334 -0.8153  0.6000
 7383TIP3    H243565   0.729   5.472  16.046  0.8710  1.0577 -0.9664
 7384TIP3   OH243566   3.920   1.694  13.037 -0.1796 -0.1833  0.7203
 7384TIP3    H143567   3.983   1.729  13.100  0.6655  1.5416 -0.9677
 7384TIP3    H243568   3.953   1.608  13.014  0.3699 -0.1686  1.4347
 7385TIP3   OH243569   4.584   4.312   1.363 -0.4527  0.0151 -0.3722
 7385TIP3    H143570   4.580   4.318   1.459  0.1478  1.7820 -0.4194
 7385TIP3    H243571   4.671   4.275   1.346 -0.7149 -0.6796 -0.2429
 7386TIP3   OH243572   1.188   3.847  14.670 -0.4270 -0.0506 -0.1026
 7386TIP3    H143573   1.196   3.926  14.723  1.0823  1.1894 -2.0627
 7386TIP3    H243574   1.265   3.795  14.693  0.3696  0.6081 -1.2180
 7387TIP3   OH243575   6.116   0.240   1.096 -0.8687 -0.4251  0.0300
 7387TIP3    H143576   6.142   0.175   1.031 -0.3551 -0.3278  0.1312
 7387TIP3    H243577   6.199   0.276   1.129 -1.0961 -0.9331  1.1995
 7388TIP3   OH243578   2.393   4.725   5.437 -0.0050  0.5704  0.4262
 7388TIP3    H143579   2.319   4.733   5.497 -1.3652  1.1225 -1.2561
 7388TIP3    H243580   2.440   4.808   5.445  0.3094  0.3134  1.3193
 7389TIP3   OH243581   5.469   1.116  13.579  0.1583  0.1320  0.1134
 7389TIP3    H143582   5.404   1.088  13.643  0.2240 -0.2126  0.0328
 7389TIP3    H243583   5.552   1.080  13.611  0.2544  0.2892  0.0427
 7390TIP3   OH243584   5.285   2.967  13.969 -0.4562 -0.1416  0.1645
 7390TIP3    H143585   5.259   3.033  13.905 -0.0448  0.4252  0.5725
 7390TIP3    H243586   5.204   2.944  14.015 -0.2121  2.1945  1.9719
 7391TIP3   OH243587   4.588   6.531  13.497 -0.1866 -0.0550 -0.1766
 7391TIP3    H143588   4.492   6.526  13.496 -0.1569 -0.5125 -0.8219
 7391TIP3    H243589   4.607   6.595  13.565 -0.9716  0.5551 -0.5159
 7392TIP3   OH243590   3.470   6.239  13.384 -0.1489  0.1512  0.2401
 7392TIP3    H143591   3.513   6.254  13.300 -0.3982  1.4142  0.3182
 7392TIP3    H243592   3.424   6.156  13.373  0.1983  0.0710 -0.7062
 7393TIP3   OH243593   5.392   0.183   2.818  0.8430  0.2708 -0.7883
 7393TIP3    H143594   5.301   0.198   2.844 -0.1212 -0.9805 -3.1753
 7393TIP3    H243595   5.423   0.117   2.880 -0.5146 -0.6915 -1.0803
 7394TIP3   OH243596   5.930   4.785  13.700 -0.8681 -0.2183 -0.6570
 7394TIP3    H143597   5.847   4.740  13.687 -0.0218 -1.2598 -3.2219
 7394TIP3    H243598   5.992   4.736  13.645  1.5464  0.2481  1.4820
 7395TIP3   OH243599   2.767   3.031   3.347  0.0404  0.3378 -0.2204
 7395TIP3    H143600   2.789   3.020   3.255  0.3089  0.0021 -0.1189
 7395TIP3    H243601   2.782   3.124   3.365 -1.6723  0.7905 -0.9431
 7396TIP3   OH243602   3.402   6.522   3.876 -0.0665 -0.1078 -0.4233
 7396TIP3    H143603   3.433   6.496   3.963  2.7667 -0.3496 -1.4134
 7396TIP3    H243604   3.389   6.439   3.830  3.0236 -0.0409 -1.6342
 7397TIP3   OH243605   4.011   6.428  15.102  0.4654 -0.0153  0.7577
 7397TIP3    H143606   4.070   6.360  15.071  0.3929  0.5806 -0.8203
 7397TIP3    H243607   4.022   6.500  15.039  0.3861  1.3496  2.2415
 7398TIP3   OH243608   4.209   0.431  11.647  0.3664  0.4512 -0.1828
 7398TIP3    H143609   4.269   0.426  11.572 -0.0018 -0.0801 -0.4533
 7398TIP3    H243610   4.127   0.394  11.614  0.3805 -0.3841  0.6631
 7399TIP3   OH243611   0.582   2.510  11.174  0.7678  0.8568 -0.6824
 7399TIP3    H143612   0.502   2.466  11.203  0.0221  1.4895 -1.7427
 7399TIP3    H243613   0.600   2.575  11.242  1.1424 -0.1698  0.2264
 7400TIP3   OH243614   1.496   4.159  13.276 -0.1102  0.1139  0.3474
 7400TIP3    H143615   1.574   4.103  13.282 -1.0034 -1.0688  1.1358
 7400TIP3    H243616   1.429   4.103  13.238 -1.2610  0.3765  1.8975
 7401TIP3   OH243617   3.937   1.220  14.136  0.5257  0.3396 -0.2080
 7401TIP3    H143618   3.923   1.251  14.226 -0.1024  2.0681 -0.8526
 7401TIP3    H243619   4.022   1.256  14.111  1.3076 -1.1967  0.0674
 7402TIP3   OH243620   4.733   4.573   4.304  0.5238 -0.2003 -0.1893
 7402TIP3    H143621   4.704   4.665   4.296  1.1519 -0.0634 -1.0881
 7402TIP3    H243622   4.747   4.545   4.213  1.1599 -0.9254  0.1283
 7403TIP3   OH243623   0.134   5.985  13.054 -0.8512  0.5401 -0.2702
 7403TIP3    H143624   0.150   6.073  13.087  0.4030  0.0340  0.5661
 7403TIP3    H243625   0.109   5.935  13.131  0.5672 -0.3028 -0.3196
 7404TIP3   OH243626   2.426   2.088  11.788 -0.5600 -0.7091  0.6907
 7404TIP3    H143627   2.424   2.025  11.716  0.5469 -0.0534  0.0542
 7404TIP3    H243628   2.463   2.168  11.749  1.0775 -0.6676  2.2103
 7405TIP3   OH243629   5.839   2.153  11.853  0.5102  0.2783 -0.4570
 7405TIP3    H143630   5.904   2.203  11.904 -1.3698  2.7557 -0.2957
 7405TIP3    H243631   5.876   2.149  11.765  0.9031  1.7016 -0.3824
 7406TIP3   OH243632   3.525   5.716  17.195 -0.3696 -0.2509 -0.3154
 7406TIP3    H143633   3.487   5.804  17.193 -0.4435 -0.2819 -2.6480
 7406TIP3    H243634   3.618   5.730  17.177 -0.1576 -0.5706  0.5053
 7407TIP3   OH243635   3.586   3.706  16.433 -0.5543 -0.1856 -0.5310
 7407TIP3    H143636   3.661   3.681  16.487 -0.0229  0.4122 -0.9804
 7407TIP3    H243637   3.585   3.802  16.435 -0.3366 -0.1278 -1.8002
 7408TIP3   OH243638   2.889   2.098   4.173 -0.4553  0.2391 -0.3474
 7408TIP3    H143639   2.969   2.054   4.145 -0.8280 -0.6136 -0.0987
 7408TIP3    H243640   2.920   2.173   4.224  0.1869  0.2841 -0.7977
 7409TIP3   OH243641   4.072   4.451  16.649 -0.2473  0.3993  0.0163
 7409TIP3    H143642   3.992   4.409  16.617 -1.2610  2.6387 -0.5287
 7409TIP3    H243643   4.056   4.463  16.743  0.3459 -0.9818  0.3252
 7410TIP3   OH243644   1.974   5.060  15.169 -0.0107  0.2010  0.5346
 7410TIP3    H143645   2.061   5.098  15.179  0.4191 -0.3675 -0.7856
 7410TIP3    H243646   1.990   4.974  15.130 -1.0737 -0.6570  1.9048
 7411TIP3   OH243647   6.422   6.482   3.732 -0.2579  0.4503 -0.1448
 7411TIP3    H143648   6.363   6.408   3.718  0.7079  0.0560 -2.6058
 7411TIP3    H243649   6.366   6.559   3.728 -0.7729  0.0338 -1.4854
 7412TIP3   OH243650   4.560   0.681  17.107 -0.3774  0.1717 -0.2813
 7412TIP3    H143651   4.572   0.622  17.033  1.4133  0.7696 -0.5232
 7412TIP3    H243652   4.601   0.635  17.181 -0.9672  0.1520  0.0356
 7413TIP3   OH243653   5.759   5.783   4.736 -0.0878  0.7625 -0.4614
 7413TIP3    H143654   5.680   5.776   4.791  0.1278 -0.2336 -0.2541
 7413TIP3    H243655   5.744   5.861   4.682  0.7210  3.2320  2.6011
 7414TIP3   OH243656   5.927   1.902   1.366  0.3086 -0.2982 -0.5934
 7414TIP3    H143657   5.991   1.935   1.304  1.4659 -2.3621 -0.5770
 7414TIP3    H243658   5.975   1.839   1.420 -0.8785  0.7503  1.8228
 7415TIP3   OH243659   3.919   0.582  13.245  0.1171 -0.3715  0.2302
 7415TIP3    H143660   3.872   0.504  13.216 -0.4401 -0.6291  1.7404
 7415TIP3    H243661   3.857   0.628  13.302  0.8364  0.5723  0.2847
 7416TIP3   OH243662   0.514   3.053  11.717  0.6217  0.2617 -0.2854
 7416TIP3    H143663   0.563   3.133  11.737  0.0756  0.8027 -1.0660
 7416TIP3    H243664   0.564   3.011  11.648  0.5676  0.2522 -0.3187
 7417TIP3   OH243665   2.355   3.108   6.053  0.1903 -0.4678 -0.2492
 7417TIP3    H143666   2.276   3.078   6.097  0.9442 -0.3408  1.2612
 7417TIP3    H243667   2.415   3.131   6.124  0.6188  2.0908 -1.3122
 7418TIP3   OH243668   2.441   2.818  10.674  0.5701 -0.0592 -0.5310
 7418TIP3    H143669   2.395   2.875  10.737 -0.7576  0.0832 -1.5791
 7418TIP3    H243670   2.506   2.875  10.634  1.4840 -0.1715  0.7433
 7419TIP3   OH243671   0.353   2.042   0.870 -0.2231  0.4824  0.0781
 7419TIP3    H143672   0.440   2.006   0.885  0.7878  2.0645 -1.6061
 7419TIP3    H243673   0.326   2.007   0.785 -0.6699  1.0433 -0.0181
 7420TIP3   OH243674   1.737   6.003  15.390  0.2983 -1.0199  0.5508
 7420TIP3    H143675   1.769   5.953  15.315 -1.9227  0.5813 -1.6267
 7420TIP3    H243676   1.797   5.981  15.461  2.9018 -2.1607 -1.8163
 7421TIP3   OH243677   2.393   4.150   5.991 -0.4005 -0.6588 -0.3823
 7421TIP3    H143678   2.460   4.147   6.060 -0.9191 -0.2702  0.1473
 7421TIP3    H243679   2.364   4.242   5.991 -0.7252 -0.7617 -0.8063
 7422TIP3   OH243680   5.148   0.654   5.876  0.4872  0.1938  0.4937
 7422TIP3    H143681   5.065   0.627   5.916 -0.2029  0.7070 -0.5384
 7422TIP3    H243682   5.152   0.606   5.794  0.4372  1.3372 -0.2015
 7423TIP3   OH243683   3.270   4.725  11.385 -0.0874  0.4818 -0.0718
 7423TIP3    H143684   3.200   4.672  11.422  1.1943 -0.6074  0.9157
 7423TIP3    H243685   3.240   4.816  11.395  0.0196  0.2523  3.4178
 7424TIP3   OH243686   5.893   6.336   3.128  0.0241 -0.2421  0.2571
 7424TIP3    H143687   5.850   6.274   3.068  1.0370 -1.1084  0.4050
 7424TIP3    H243688   5.980   6.348   3.091  0.4889 -0.3976  1.2821
 7425TIP3   OH243689   5.379   2.034  17.297 -0.1407  0.3106 -0.1550
 7425TIP3    H143690   5.411   2.060  17.384 -0.0920  1.0712 -0.3941
 7425TIP3    H243691   5.458   2.030  17.243 -0.3758  1.7445 -0.6340
 7426TIP3   OH243692   6.404   4.513  17.043 -0.0543  0.3624 -0.1474
 7426TIP3    H143693   6.473   4.573  17.016 -1.7781  2.7601  0.4141
 7426TIP3    H243694   6.324   4.552  17.006 -1.3086 -1.3539  0.6565
 7427TIP3   OH243695   6.336   2.530  13.901  0.2235  0.3944 -0.0885
 7427TIP3    H143696   6.241   2.532  13.907  0.2680 -0.0356  0.9396
 7427TIP3    H243697   6.362   2.622  13.890 -0.4691  0.3009 -4.0806
 7428TIP3   OH243698   0.027   1.740  15.252  0.0566 -0.4336  0.4647
 7428TIP3    H143699   0.098   1.757  15.314 -0.1625  1.6226  0.2271
 7428TIP3    H243700  -0.053   1.764  15.300 -0.2766 -0.5860 -0.0008
 7429TIP3   OH243701   5.352   4.578   0.734  0.0281  0.0072 -0.1158
 7429TIP3    H143702   5.274   4.538   0.695 -0.0704 -0.9469  0.9854
 7429TIP3    H243703   5.414   4.506   0.743  1.0426  0.7535 -0.9404
 7430TIP3   OH243704   3.649   1.844   3.516 -0.2608 -0.0698 -0.0278
 7430TIP3    H143705   3.674   1.909   3.450  0.6443  0.7561  1.0929
 7430TIP3    H243706   3.596   1.780   3.468  0.4289  0.4675 -1.5633
 7431TIP3   OH243707   0.018   5.037   5.032 -0.2767  0.0384 -0.3750
 7431TIP3    H143708  -0.046   5.029   4.961  0.0351  2.3966 -1.0094
 7431TIP3    H243709   0.093   4.986   5.001  0.1400  1.6085 -2.1695
 7432TIP3   OH243710   1.389   4.545  15.604 -0.0532 -0.4959  0.7038
 7432TIP3    H143711   1.470   4.494  15.610  0.7234  0.7010  0.9418
 7432TIP3    H243712   1.387   4.575  15.513 -0.9265 -1.5816  0.3483
 7433TIP3   OH243713   2.384   5.595  12.910  0.7208 -0.1032  0.1386
 7433TIP3    H143714   2.468   5.553  12.928  1.0181 -0.2305 -1.3526
 7433TIP3    H243715   2.329   5.523  12.878 -0.0119 -0.0421  1.2075
 7434TIP3   OH243716   3.939   4.590   0.211 -0.0797  0.2087 -0.5750
 7434TIP3    H143717   4.008   4.634   0.162 -2.1151  1.7090 -2.2688
 7434TIP3    H243718   3.975   4.504   0.232  2.1995  0.8585 -1.5370
 7435TIP3   OH243719   6.267   0.394   4.701  0.3777  0.0276 -0.2541
 7435TIP3    H143720   6.300   0.311   4.668 -0.0705 -0.7269  1.1013
 7435TIP3    H243721   6.276   0.455   4.628  0.6697 -1.2236 -1.2911
 7436TIP3   OH243722   2.927   2.776  16.275 -0.3277 -0.2892  0.1017
 7436TIP3    H143723   3.010   2.762  16.319 -0.9183 -0.7969  1.0825
 7436TIP3    H243724   2.938   2.736  16.189  0.2972 -0.7297  0.3786
 7437TIP3   OH243725   0.316   1.237  11.452 -0.1508 -0.4774  0.3541
 7437TIP3    H143726   0.363   1.155  11.441 -0.6429 -0.4954 -2.2531
 7437TIP3    H243727   0.224   1.214  11.441 -0.6052 -0.0226  2.7702
 7438TIP3   OH243728   5.142   5.286   2.742 -0.9586  0.2755 -0.2106
 7438TIP3    H143729   5.134   5.341   2.819  3.7811  1.4414 -0.2427
 7438TIP3    H243730   5.233   5.298   2.713 -0.9301 -4.1881 -2.8781
 7439TIP3   OH243731   1.316   1.357   4.441  0.5438  0.1603 -0.1981
 7439TIP3    H143732   1.323   1.326   4.351 -0.7730 -0.0197 -0.2621
 7439TIP3    H243733   1.384   1.310   4.489  1.8467  0.9110 -1.2478
 7440TIP3   OH243734   5.297   5.590   0.830  0.6295  0.1362 -0.6896
 7440TIP3    H143735   5.218   5.537   0.840  0.8257  0.2701  3.2134
 7440TIP3    H243736   5.365   5.527   0.807 -0.3428 -0.0807 -3.3852
 7441TIP3   OH243737   5.198   1.481   1.731 -0.1813  0.8494  0.5278
 7441TIP3    H143738   5.215   1.529   1.812 -0.9451 -1.2807  2.0447
 7441TIP3    H243739   5.121   1.427   1.751  1.3211 -1.9041 -0.6163
 7442TIP3   OH243740   4.552   1.118   1.267  0.5475 -0.3026  0.0890
 7442TIP3    H143741   4.518   1.090   1.352  2.0699  1.2631  1.2764
 7442TIP3    H243742   4.482   1.171   1.230 -1.5548 -3.6927 -1.3030
 7443TIP3   OH243743   1.483   0.221  11.933  0.0068  0.1903  0.2950
 7443TIP3    H143744   1.552   0.196  11.871 -0.7462 -0.5501 -0.2670
 7443TIP3    H243745   1.408   0.168  11.907 -1.4875  2.5723 -0.5383
 7444TIP3   OH243746   0.084   1.308  16.723 -0.5349  0.3895 -0.0741
 7444TIP3    H143747   0.028   1.386  16.716 -0.9061  0.2220  0.9454
 7444TIP3    H243748   0.067   1.274  16.810  0.6961 -0.0385  0.0093
 7445TIP3   OH243749   1.869   1.515  11.959 -0.6365  0.2258 -0.4724
 7445TIP3    H143750   1.959   1.545  11.976 -0.0812 -0.5817 -1.7676
 7445TIP3    H243751   1.856   1.535  11.866 -1.3819 -0.6954 -0.5714
 7446TIP3   OH243752   3.964   3.619   3.210  0.4624  0.2467 -0.3366
 7446TIP3    H143753   4.036   3.582   3.261  0.4383 -1.3147 -1.3693
 7446TIP3    H243754   3.885   3.584   3.252  0.3738  0.4006 -0.3735
 7447TIP3   OH243755   6.342   5.170   3.355 -1.0113  0.1767 -0.6637
 7447TIP3    H143756   6.417   5.115   3.332 -0.2308  1.1151 -0.4578
 7447TIP3    H243757   6.373   5.260   3.341 -1.1803  0.7336  1.9489
 7448TIP3   OH243758   3.835   1.145  13.457 -0.3794  0.1588  0.4388
 7448TIP3    H143759   3.929   1.140  13.474 -0.5108 -0.1205  1.0912
 7448TIP3    H243760   3.794   1.109  13.535 -0.9651 -2.9000 -1.1220
 7449TIP3   OH243761   5.920   4.922  16.628  0.5618  0.1979  0.4984
 7449TIP3    H143762   5.911   5.018  16.631 -0.1511  0.3098 -2.5247
 7449TIP3    H243763   6.007   4.908  16.592 -0.2914 -0.1732 -1.5366
 7450TIP3   OH243764   1.475   1.204  17.251 -0.0516  0.3802  0.1307
 7450TIP3    H143765   1.465   1.158  17.334 -0.7484  1.0018  0.4014
 7450TIP3    H243766   1.493   1.295  17.276 -0.4353  0.6056 -0.3855
 7451TIP3   OH243767   5.509   5.501  14.564 -0.1956  0.5988 -0.3847
 7451TIP3    H143768   5.419   5.473  14.580  0.2362  0.1502  1.5104
 7451TIP3    H243769   5.508   5.535  14.475 -1.9723 -0.4632 -0.8259
 7452TIP3   OH243770   6.637   0.261  12.806 -0.6925 -0.0439 -0.6280
 7452TIP3    H143771   6.550   0.225  12.825 -1.0030  2.0551  2.9389
 7452TIP3    H243772   6.634   0.285  12.714 -3.7231 -0.5638 -0.7644
 7453TIP3   OH243773   0.477   2.899  12.099  0.2146 -0.2355  0.1089
 7453TIP3    H143774   0.566   2.884  12.131  0.6299  1.3994 -0.1597
 7453TIP3    H243775   0.424   2.908  12.178  0.7801  1.2993  0.3600
 7454TIP3   OH243776   0.109   2.916  16.729  0.0318  0.3940  0.0614
 7454TIP3    H143777   0.072   2.829  16.745 -0.0564  0.4129 -0.0415
 7454TIP3    H243778   0.099   2.961  16.812 -0.4566  0.5026 -0.0534
 7455TIP3   OH243779   0.341   2.027  11.347 -0.6846  0.1003  0.1466
 7455TIP3    H143780   0.398   1.950  11.348  0.3881  0.8715  1.1021
 7455TIP3    H243781   0.342   2.055  11.256  0.8116  0.3132  0.1935
 7456TIP3   OH243782   3.323   4.988  12.979  0.7559  0.8321  0.0210
 7456TIP3    H143783   3.353   5.075  12.953 -1.1278  1.1021 -1.5115
 7456TIP3    H243784   3.288   4.951  12.899  1.0426 -1.1642  0.7749
 7457TIP3   OH243785   0.734   2.591   4.326 -0.2043  0.2683  0.0653
 7457TIP3    H143786   0.666   2.529   4.352 -0.6126  0.9327  0.6188
 7457TIP3    H243787   0.691   2.646   4.261 -0.2685  0.8205  0.5685
 7458TIP3   OH243788   0.199   2.658  13.105 -0.1345  0.2018 -0.3711
 7458TIP3    H143789   0.173   2.727  13.045  1.2261  0.8817 -0.2273
 7458TIP3    H243790   0.128   2.652  13.168 -0.2577  1.5141 -0.3597
 7459TIP3   OH243791   3.414   6.511  15.054  0.0551  0.2124  0.5420
 7459TIP3    H143792   3.456   6.511  15.140  1.7996  0.0513 -0.2517
 7459TIP3    H243793   3.350   6.441  15.058 -0.7899  1.0086  2.0909
 7460TIP3   OH243794   5.048   1.182   1.775 -0.0778  0.4088  0.5865
 7460TIP3    H143795   5.134   1.192   1.815  1.0361 -1.2776 -1.2607
 7460TIP3    H243796   5.001   1.262   1.801  1.1058  0.2500  3.7028
 7461TIP3   OH243797   6.132   5.881   5.789 -0.1194  0.3139 -0.3215
 7461TIP3    H143798   6.065   5.921   5.845  1.4817  0.9459  1.2366
 7461TIP3    H243799   6.176   5.956   5.748  0.7261 -0.0007 -0.0034
 7462TIP3   OH243800   6.511   3.593  14.824 -0.0003  0.0938 -0.1817
 7462TIP3    H143801   6.418   3.583  14.841  0.1102 -1.4008 -0.3373
 7462TIP3    H243802   6.549   3.619  14.908 -0.5047  0.4242 -0.0504
 7463TIP3   OH243803   1.339   1.408   4.031  0.0683  0.1847  0.0355
 7463TIP3    H143804   1.289   1.483   3.998  0.8737  0.8469  0.2781
 7463TIP3    H243805   1.401   1.387   3.960  0.1200  0.0153  0.1302
 7464TIP3   OH243806   6.102   6.592  10.729 -0.5432  0.3295  0.0984
 7464TIP3    H143807   6.079   6.556  10.643  1.3676 -0.7794 -0.0121
 7464TIP3    H243808   6.060   6.534  10.792 -3.9674  2.4808  0.0698
 7465TIP3   OH243809   0.272   3.829  12.691  0.1021 -0.3761  0.2044
 7465TIP3    H143810   0.333   3.831  12.765 -1.7177 -1.2183  1.8323
 7465TIP3    H243811   0.252   3.921  12.674  0.6981 -0.1608  0.6197
 7466TIP3   OH243812   3.130   4.662   5.013 -0.1910 -0.3772  0.1178
 7466TIP3    H143813   3.166   4.727   5.074 -0.9541 -0.0638  0.2482
 7466TIP3    H243814   3.062   4.618   5.064 -0.2752 -0.6734 -0.2530
 7467TIP3   OH243815   1.072   5.343  15.152  0.1161 -0.0239 -0.3457
 7467TIP3    H143816   1.101   5.430  15.178  1.5717 -0.7462  0.5463
 7467TIP3    H243817   1.002   5.322  15.214  1.5508 -0.5312  1.1433
 7468TIP3   OH243818   2.542   2.609  14.771  0.0271 -0.2651  0.8469
 7468TIP3    H143819   2.511   2.630  14.683 -1.0730  0.6265  1.4274
 7468TIP3    H243820   2.573   2.692  14.807 -0.3069 -0.4502  1.5891
 7469TIP3   OH243821   0.751   0.442   0.297 -0.2007 -0.2310 -0.1648
 7469TIP3    H143822   0.772   0.353   0.271 -0.9799 -0.2258 -0.8576
 7469TIP3    H243823   0.761   0.494   0.216 -2.3320 -0.1564 -0.4475
 7470TIP3   OH243824   5.881   0.991   1.058 -0.4506  0.4964 -0.2399
 7470TIP3    H143825   5.875   0.946   1.142 -0.9676  2.0463  0.5960
 7470TIP3    H243826   5.975   0.998   1.041 -0.3226  0.6450  0.4866
 7471TIP3   OH243827   0.922   3.550  11.669 -0.0502  0.2761 -0.2085
 7471TIP3    H143828   0.948   3.468  11.627  1.0234  1.2961 -1.6333
 7471TIP3    H243829   0.959   3.618  11.613 -0.2254  1.7314  1.3692
 7472TIP3   OH243830   2.667   3.820  15.162  0.3446 -0.1559 -0.1936
 7472TIP3    H143831   2.614   3.820  15.241  1.2292  1.1661  0.4282
 7472TIP3    H243832   2.617   3.767  15.100 -2.1773  1.7196  0.0525
 7473TIP3   OH243833   0.550   1.237  10.651 -0.3684  0.0731 -0.0665
 7473TIP3    H143834   0.538   1.329  10.675  1.8472  0.7585 -1.2834
 7473TIP3    H243835   0.489   1.222  10.580 -1.2313  0.3827  0.5902
 7474TIP3   OH243836   0.287   1.573   4.369  0.2223  0.2314  0.4473
 7474TIP3    H143837   0.260   1.494   4.416  1.2255  1.1852  2.7568
 7474TIP3    H243838   0.227   1.641   4.400  0.3259  0.6968 -0.3563
 7475TIP3   OH243839   5.209   6.659  11.813 -0.0772  0.2212 -0.1787
 7475TIP3    H143840   5.212   6.589  11.748 -1.2032 -0.7049  0.7263
 7475TIP3    H243841   5.209   6.740  11.762 -0.2398 -0.4655 -1.2953
 7476TIP3   OH243842   3.312   2.712   2.202  0.3092  0.2854 -0.5292
 7476TIP3    H143843   3.360   2.636   2.169 -2.1009 -1.4264 -0.2819
 7476TIP3    H243844   3.258   2.740   2.128 -1.4628 -0.5210  0.3964
 7477TIP3   OH243845   0.518   4.071  11.315 -0.1656  0.2930 -0.7171
 7477TIP3    H143846   0.497   4.088  11.223 -0.4314  0.1133 -0.6917
 7477TIP3    H243847   0.589   4.007  11.312  0.7287  1.2489 -0.8115
 7478TIP3   OH243848   3.231   4.374   4.679 -0.0086 -0.0830  0.6258
 7478TIP3    H143849   3.277   4.450   4.716  0.1015  0.2822 -0.2321
 7478TIP3    H243850   3.294   4.303   4.687  0.5628  0.3224 -0.1632
 7479TIP3   OH243851   5.371   1.589  11.871  0.0869  0.4011 -0.2912
 7479TIP3    H143852   5.296   1.561  11.819 -0.1537 -0.5081  0.5232
 7479TIP3    H243853   5.408   1.663  11.822 -0.5151 -0.0134 -1.4016
 7480TIP3   OH243854   5.121   5.479   1.611 -0.2262 -0.0759 -0.1388
 7480TIP3    H143855   5.153   5.479   1.701 -0.1480  1.0104 -0.1490
 7480TIP3    H243856   5.040   5.429   1.614 -0.4533  0.3177  0.6325
 7481TIP3   OH243857   2.838   2.767  12.957  0.3790  0.6329 -0.0527
 7481TIP3    H143858   2.921   2.724  12.940  0.8071  0.6707  1.7603
 7481TIP3    H243859   2.817   2.812  12.875  2.0741  0.5271 -0.5818
 7482TIP3   OH243860   6.140   1.271  16.502  0.0951  0.2760 -0.1191
 7482TIP3    H143861   6.148   1.238  16.592  1.0769 -1.1640 -0.6946
 7482TIP3    H243862   6.217   1.237  16.457 -1.0361 -0.1483 -1.8383
 7483TIP3   OH243863   3.735   1.076   0.435  0.4765 -0.0362  0.1264
 7483TIP3    H143864   3.804   1.082   0.369  0.0140  0.2661 -0.3319
 7483TIP3    H243865   3.744   0.988   0.471  1.2720  0.0918  0.2588
 7484TIP3   OH243866   3.248   2.224  14.074  0.0840 -0.4765 -0.1707
 7484TIP3    H143867   3.153   2.233  14.082  0.1901  0.4442  0.3129
 7484TIP3    H243868   3.280   2.313  14.087  0.9426 -0.5634 -1.5668
 7485TIP3   OH243869   2.451   5.235  16.857 -0.1686 -0.0021 -0.2411
 7485TIP3    H143870   2.471   5.239  16.951  0.0397  0.3812 -0.3025
 7485TIP3    H243871   2.421   5.145  16.843 -1.9601  0.4148  0.5473
 7486TIP3   OH243872   4.818   4.853   4.991  0.1111  0.5029 -0.1863
 7486TIP3    H143873   4.833   4.838   5.084 -0.5035 -0.7192 -0.2581
 7486TIP3    H243874   4.762   4.780   4.964 -0.3667  1.2713 -1.3401
 7487TIP3   OH243875   0.563   1.663   1.703 -0.2627  0.4357 -0.1093
 7487TIP3    H143876   0.580   1.689   1.612  1.9396  0.3952  0.2222
 7487TIP3    H243877   0.485   1.608   1.698 -0.6012  1.0023 -1.8722
 7488TIP3   OH243878   1.305   4.197  12.232 -0.2655 -0.3849  0.3412
 7488TIP3    H143879   1.226   4.197  12.178 -1.0162 -0.1485  1.4038
 7488TIP3    H243880   1.272   4.195  12.322  0.9038  1.1361  0.8437
 7489TIP3   OH243881   5.094   4.192   2.346  0.3415  0.1533  0.1183
 7489TIP3    H143882   5.118   4.101   2.327 -0.9985  0.2805 -2.5861
 7489TIP3    H243883   5.139   4.244   2.280 -0.1788  1.3017  0.6363
 7490TIP3   OH243884   3.858   1.813  11.801  0.5201  0.1893 -0.4275
 7490TIP3    H143885   3.790   1.764  11.754 -2.2380  2.0693  1.3409
 7490TIP3    H243886   3.865   1.896  11.754  0.9571  0.3683 -0.0549
 7491TIP3   OH243887   3.879   0.057  14.597 -0.5780  0.1260 -0.0062
 7491TIP3    H143888   3.860   0.095  14.682 -0.1329 -1.5483  0.8821
 7491TIP3    H243889   3.795   0.020  14.568 -0.4519 -0.4057  0.2968
 7492TIP3   OH243890   3.832   1.087  16.770 -0.4751 -0.3701  0.3027
 7492TIP3    H143891   3.828   1.105  16.676  0.3807 -1.0031  0.1307
 7492TIP3    H243892   3.776   1.010  16.782 -1.2804  0.2376  0.4544
 7493TIP3   OH243893   6.079   6.163   4.257 -0.6069  0.0649 -0.1850
 7493TIP3    H143894   6.044   6.118   4.333 -1.1405  0.2206 -0.3391
 7493TIP3    H243895   6.053   6.255   4.268 -0.1739  0.2015 -0.2541
 7494TIP3   OH243896   1.454   5.974  12.469  0.2594 -0.2175  0.0989
 7494TIP3    H143897   1.456   6.066  12.442  0.5453 -0.4380 -0.6466
 7494TIP3    H243898   1.361   5.954  12.480  0.1394 -0.1045 -0.6707
 7495TIP3   OH243899   3.551   1.295   2.709 -0.3331  0.5442 -0.5578
 7495TIP3    H143900   3.535   1.387   2.686  0.6396  0.9983  0.4474
 7495TIP3    H243901   3.480   1.272   2.769  1.1066  1.6770  1.7088
 7496TIP3   OH243902   1.675   2.195  16.689 -0.4404 -0.1514  0.4059
 7496TIP3    H143903   1.732   2.120  16.674  0.8858  1.0563 -0.7926
 7496TIP3    H243904   1.603   2.184  16.627  0.5840  0.3717 -0.9069
 7497TIP3   OH243905   1.138   1.362   0.409  1.2337 -0.2681  0.4560
 7497TIP3    H143906   1.159   1.388   0.320  0.3483  0.4387  0.4427
 7497TIP3    H243907   1.223   1.356   0.453  1.5375  2.1161  0.3047
 7498TIP3   OH243908   6.392   5.360  12.822 -0.1764 -0.2549  0.3467
 7498TIP3    H143909   6.388   5.294  12.891  0.3825  0.9985  1.6231
 7498TIP3    H243910   6.406   5.309  12.742  1.9094 -1.6421  1.4765
 7499TIP3   OH243911   5.037   2.381   2.472 -1.0847 -0.4397 -0.1870
 7499TIP3    H143912   5.118   2.353   2.516 -0.9186  1.1163  0.5572
 7499TIP3    H243913   5.027   2.319   2.400  1.2668 -0.1686 -0.8492
 7500TIP3   OH243914   0.322   2.886  16.394  0.2731  0.2634  0.3279
 7500TIP3    H143915   0.377   2.924  16.462  0.5331 -0.3665  0.4815
 7500TIP3    H243916   0.308   2.956  16.331  1.7642  0.2598 -0.0242
 7501TIP3   OH243917   2.197   4.614  14.562  0.0040 -0.2053 -0.2551
 7501TIP3    H143918   2.120   4.616  14.620  0.6275 -1.4731  0.6740
 7501TIP3    H243919   2.164   4.644  14.478 -1.7497 -1.5312 -0.1066
 7502TIP3   OH243920   4.349   2.154   5.360 -0.3656  0.6667  0.0905
 7502TIP3    H143921   4.333   2.083   5.298  1.3008 -1.7209  2.1982
 7502TIP3    H243922   4.282   2.142   5.428  0.9177  0.0086  1.2906
 7503TIP3   OH243923   5.644   1.821   6.679 -0.1740  0.0830 -0.0345
 7503TIP3    H143924   5.597   1.772   6.746  1.1691 -1.0101  0.1392
 7503TIP3    H243925   5.587   1.815   6.602 -1.2601  0.5115  0.7082
 7504TIP3   OH243926   3.273   1.854   2.594 -0.1600 -0.1248 -0.3262
 7504TIP3    H143927   3.290   1.939   2.633  0.3579  0.3348 -1.5097
 7504TIP3    H243928   3.343   1.842   2.530 -1.6350 -0.2976 -1.9816
 7505TIP3   OH243929   4.884   5.442   0.990 -0.2650 -0.4165  0.3923
 7505TIP3    H143930   4.967   5.426   0.945 -0.6339 -0.4506 -0.2917
 7505TIP3    H243931   4.821   5.454   0.920 -0.9916 -1.1738  0.8880
 7506TIP3   OH243932   4.162   5.427  15.222 -0.4460  0.6011  0.6054
 7506TIP3    H143933   4.148   5.350  15.167  2.2917  1.0171 -0.8329
 7506TIP3    H243934   4.212   5.395  15.296  0.0457  0.8577  0.3877
 7507TIP3   OH243935   1.392   5.907  16.835 -0.4294 -0.0559  0.0601
 7507TIP3    H143936   1.329   5.962  16.789 -0.2537 -1.0548 -1.4299
 7507TIP3    H243937   1.355   5.819  16.831  1.0117 -0.6579 -0.8134
 7508TIP3   OH243938   2.045   6.460   6.145  0.0215 -0.1500  0.3216
 7508TIP3    H143939   2.082   6.423   6.225 -0.2360  0.0023  0.5144
 7508TIP3    H243940   1.952   6.471   6.165 -0.9739 -3.8905 -1.3536
 7509TIP3   OH243941   5.833   3.201   2.155  0.5070  0.0176 -0.3465
 7509TIP3    H143942   5.812   3.109   2.174 -0.7480  0.5554  1.0679
 7509TIP3    H243943   5.770   3.227   2.089 -0.0596  0.2377  0.2718
 7510TIP3   OH243944   3.203   2.816  15.829  0.0256  0.4103  0.1830
 7510TIP3    H143945   3.238   2.784  15.746 -1.7847  2.5427 -1.5438
 7510TIP3    H243946   3.270   2.876  15.862  0.4141  0.1580 -0.1461
 7511TIP3   OH243947   1.900   1.811  15.452 -0.0219  0.3289 -0.6493
 7511TIP3    H143948   1.938   1.847  15.532  1.9870  0.0577 -1.4138
 7511TIP3    H243949   1.897   1.884  15.391  3.2523 -0.4147 -1.9190
 7512TIP3   OH243950   6.392   2.382   0.071 -0.0028 -0.1531 -0.2803
 7512TIP3    H143951   6.328   2.343   0.130 -2.5610  1.2576 -1.9411
 7512TIP3    H243952   6.449   2.432   0.129 -1.0428 -0.5834  1.1925
 7513TIP3   OH243953   3.865   5.017  12.274 -0.8557  0.7060  0.3539
 7513TIP3    H143954   3.777   4.986  12.256 -1.3221  2.5252 -0.8210
 7513TIP3    H243955   3.897   5.048  12.190  1.0287 -0.1384  0.7057
 7514TIP3   OH243956   3.586   1.897  13.372  0.7467 -0.2937 -0.3744
 7514TIP3    H143957   3.551   1.864  13.289  0.7226 -0.0544 -0.4617
 7514TIP3    H243958   3.651   1.962  13.346  0.6378 -0.1160 -0.2059
 7515TIP3   OH243959   5.387   1.758   0.262  1.0318  0.1632  0.3107
 7515TIP3    H143960   5.443   1.814   0.316  0.0783  1.1098  0.3559
 7515TIP3    H243961   5.325   1.720   0.324  1.7953 -1.1538  0.3159
 7516TIP3   OH243962   2.302   4.700   5.119 -0.3270 -0.2601 -0.7815
 7516TIP3    H143963   2.393   4.730   5.129  0.6176 -3.4084  1.9460
 7516TIP3    H243964   2.251   4.781   5.111  2.4017  1.8048  0.8970
 7517TIP3   OH243965   4.863   2.718   1.762  0.4236 -0.3139 -0.0092
 7517TIP3    H143966   4.908   2.798   1.736  3.0854 -1.7332 -0.0632
 7517TIP3    H243967   4.875   2.658   1.689 -2.6086 -0.4626 -0.5096
 7518TIP3   OH243968   2.163   6.352  16.705  0.1754 -0.0979 -0.4402
 7518TIP3    H143969   2.157   6.373  16.798 -3.2449 -0.3074 -0.4810
 7518TIP3    H243970   2.197   6.432  16.665 -0.6408  0.9144  0.7746
 7519TIP3   OH243971   6.463   0.317   5.837  0.4092  0.2675 -0.9414
 7519TIP3    H143972   6.549   0.279   5.823  1.0707  1.0133  0.7859
 7519TIP3    H243973   6.406   0.243   5.855  0.7559 -0.2091 -1.7815
 7520TIP3   OH243974   4.649   2.744  14.657 -0.6793 -0.1579  0.2591
 7520TIP3    H143975   4.563   2.726  14.618 -0.8835  0.2204  0.5297
 7520TIP3    H243976   4.711   2.699  14.599 -0.9225  0.8525 -0.8177
 7521TIP3   OH243977   6.693   0.502  12.979  0.1862  0.3859 -0.3978
 7521TIP3    H143978   6.716   0.478  13.069 -3.6282  2.0237  1.2418
 7521TIP3    H243979   6.668   0.419  12.938  0.8463 -0.2408  0.4260
 7522TIP3   OH243980   1.294   3.472   5.106  0.5513 -0.0592 -0.3246
 7522TIP3    H143981   1.261   3.561   5.094 -0.8134 -0.1811  1.9006
 7522TIP3    H243982   1.216   3.421   5.127  1.6600 -1.1796  1.2802
 7523TIP3   OH243983   1.548   0.319   5.528  0.0531  0.6563  0.0763
 7523TIP3    H143984   1.520   0.266   5.603  1.0734 -1.4627 -0.9574
 7523TIP3    H243985   1.473   0.321   5.470 -0.0528  0.5115  0.2079
 7524TIP3   OH243986   5.405   5.151   1.939  0.6224 -0.2640 -0.0495
 7524TIP3    H143987   5.454   5.088   1.992  1.2186  0.7766  0.6535
 7524TIP3    H243988   5.418   5.122   1.849  1.4573 -0.7463  0.2185
 7525TIP3   OH243989   1.053   5.863  15.756  0.2950  0.0331  0.4305
 7525TIP3    H143990   1.050   5.903  15.669  1.9450 -1.1537 -0.2499
 7525TIP3    H243991   0.961   5.846  15.778 -0.1473 -2.0918 -2.3417
 7526TIP3   OH243992   2.611   5.139   4.157 -1.0237 -0.1353  0.3135
 7526TIP3    H143993   2.567   5.127   4.073  1.2256 -0.9453 -0.8184
 7526TIP3    H243994   2.589   5.229   4.182 -0.5223  0.6692 -1.9017
 7527TIP3   OH243995   5.168   2.216   5.361 -0.3369  0.4891  0.2125
 7527TIP3    H143996   5.091   2.269   5.383 -0.1915  0.8671 -0.1801
 7527TIP3    H243997   5.139   2.160   5.288 -0.3853  0.2799  0.3917
 7528TIP3   OH243998   1.828   3.008  13.969 -0.2181  0.3458  0.8300
 7528TIP3    H143999   1.843   2.924  14.011 -1.0360 -0.9156 -1.2442
 7528TIP3    H244000   1.761   3.050  14.022 -2.1450 -1.7335  0.2056
 7529TIP3   OH244001   2.706   4.993  13.636  0.2703 -0.3677  0.0936
 7529TIP3    H144002   2.794   5.025  13.617  0.4222 -1.9723 -2.1805
 7529TIP3    H244003   2.677   4.952  13.555 -1.9918 -1.2222  1.2647
 7530TIP3   OH244004   1.229   1.963   3.184 -0.9118 -0.2571 -0.2002
 7530TIP3    H144005   1.315   2.002   3.167 -0.7449 -0.3208  0.5056
 7530TIP3    H244006   1.172   2.002   3.117 -0.5608  0.5642 -0.0298
 7531TIP3   OH244007   1.336   3.746  11.895 -0.2458 -0.3539 -0.4178
 7531TIP3    H144008   1.405   3.801  11.858 -0.0138 -0.4152 -0.0824
 7531TIP3    H244009   1.281   3.807  11.945  0.2142 -0.4838  0.2435
 7532TIP3   OH244010   5.400   5.842  16.762 -0.2118 -0.0088  0.7093
 7532TIP3    H144011   5.432   5.930  16.780  0.2928  0.0209 -0.2327
 7532TIP3    H244012   5.320   5.855  16.711  1.1986 -0.0408 -1.6637
 7533TIP3   OH244013   4.502   0.749   1.576  0.1959  0.6097  0.3822
 7533TIP3    H144014   4.524   0.777   1.487  1.3514  0.6279  0.6584
 7533TIP3    H244015   4.549   0.667   1.588  0.4040  0.8260  1.1192
 7534TIP3   OH244016   5.458   6.294   5.500  0.1668 -0.1425 -0.6187
 7534TIP3    H144017   5.478   6.262   5.588 -1.7274 -2.1634 -0.8441
 7534TIP3    H244018   5.512   6.240   5.442  1.2008  0.9969 -0.7609
 7535TIP3   OH244019   6.316   1.578  14.255 -0.1906 -0.2859  0.2575
 7535TIP3    H144020   6.377   1.507  14.235  1.0680  0.7514  0.2184
 7535TIP3    H244021   6.315   1.583  14.351 -0.7256 -0.7131  0.2780
 7536TIP3   OH244022   2.176   1.834  15.719  0.5056 -0.6232  0.0377
 7536TIP3    H144023   2.211   1.870  15.638 -0.1250 -1.7575 -0.7694
 7536TIP3    H244024   2.224   1.752  15.731  1.9114  0.3947  1.8324
 7537TIP3   OH244025   1.182   1.694   4.278 -0.3842  0.2639 -0.4395
 7537TIP3    H144026   1.101   1.731   4.312  0.3195  1.6466 -0.2170
 7537TIP3    H244027   1.191   1.730   4.191 -1.0716 -1.5825 -1.3355
 7538TIP3   OH244028   0.782   3.072  16.234  0.6991  0.3671 -0.7944
 7538TIP3    H144029   0.774   2.987  16.189 -3.3235  0.1908 -0.0943
 7538TIP3    H244030   0.789   3.049  16.327 -1.3092  0.6985 -0.5157
 7539TIP3   OH244031   1.091   1.924  11.861  0.0997 -0.5915  0.5480
 7539TIP3    H144032   1.077   1.957  11.950 -0.0177  0.4528  0.1486
 7539TIP3    H244033   1.006   1.933  11.819  0.4043 -0.1384  0.0235
 7540TIP3   OH244034   0.703   2.804  13.037  0.1395 -0.2894  0.2387
 7540TIP3    H144035   0.623   2.798  13.088  0.2739 -0.6212  0.4119
 7540TIP3    H244036   0.732   2.895  13.047 -1.3980  0.4743 -1.6157
 7541TIP3   OH244037   4.991   2.608  11.294 -0.4813 -0.1556  0.1955
 7541TIP3    H144038   4.912   2.612  11.241  0.3947  1.4258 -1.1021
 7541TIP3    H244039   5.055   2.660  11.245  0.6660  0.6093  2.3515
 7542TIP3   OH244040   5.539   0.118   0.342  0.0246  0.7512 -0.1209
 7542TIP3    H144041   5.523   0.175   0.417  2.8204  0.7706  0.5845
 7542TIP3    H244042   5.519   0.172   0.266  0.5679  1.9528  0.5736
 7543TIP3   OH244043   6.276   1.351   4.804  0.2448 -0.0834 -0.2346
 7543TIP3    H144044   6.321   1.428   4.841 -2.1403  0.6756  1.3064
 7543TIP3    H244045   6.304   1.279   4.859  0.0695  0.2716  0.3314
 7544TIP3   OH244046   4.839   0.972   6.002 -0.0792  0.1388 -0.0768
 7544TIP3    H144047   4.855   0.922   5.922  0.0729  0.7756 -0.4480
 7544TIP3    H244048   4.927   0.997   6.032  0.1004 -2.2914  1.7409
 7545TIP3   OH244049   2.161   6.725  14.614 -0.3466  0.1903  0.0304
 7545TIP3    H144050   2.170   6.687  14.701 -0.0708  0.6278  0.1957
 7545TIP3    H244051   2.217   6.670  14.558  0.2443  0.4873  0.3152
 7546TIP3   OH244052   4.861   6.023  15.891  0.5979 -0.1269  0.1228
 7546TIP3    H144053   4.779   6.019  15.842  0.3612  1.4505  0.3207
 7546TIP3    H244054   4.839   6.075  15.969  1.2187 -1.6996  1.4011
 7547TIP3   OH244055   1.570   4.396   1.971 -0.4420 -0.0648  0.0763
 7547TIP3    H144056   1.600   4.345   2.046 -1.0019 -2.1392 -1.0171
 7547TIP3    H244057   1.647   4.447   1.945  0.2523 -0.5754  1.0408
 7548TIP3   OH244058   3.161   2.657  14.273  0.2109  0.2011  0.1765
 7548TIP3    H144059   3.107   2.602  14.216  0.2803 -0.1033  0.4043
 7548TIP3    H244060   3.209   2.714  14.213 -1.0403  1.1110 -0.0009
 7549TIP3   OH244061   4.701   6.034   3.760 -0.0738 -0.5429 -0.4405
 7549TIP3    H144062   4.672   6.116   3.720  1.5178 -0.8819 -2.5361
 7549TIP3    H244063   4.697   6.049   3.854 -1.5826  1.2684 -0.7500
 7550TIP3   OH244064   2.421   5.202   0.580 -0.1533  0.1971 -0.0491
 7550TIP3    H144065   2.490   5.159   0.632 -0.9820 -1.9040 -0.5561
 7550TIP3    H244066   2.352   5.220   0.643 -1.2987 -2.6596 -0.3259
 7551TIP3   OH244067   1.328   1.653  15.359  0.0617 -0.1182  0.6868
 7551TIP3    H144068   1.286   1.709  15.293 -1.0184 -1.8363 -0.1494
 7551TIP3    H244069   1.417   1.639  15.325 -0.1282 -0.0965  0.1713
 7552TIP3   OH244070   5.432   4.688  14.684  0.4019 -0.2410  0.0959
 7552TIP3    H144071   5.517   4.732  14.673  0.1021  0.3480  0.0769
 7552TIP3    H244072   5.381   4.749  14.737 -0.3450 -0.1245 -0.7254
 7553TIP3   OH244073   5.533   0.215  11.864  0.3042 -0.2149 -0.3465
 7553TIP3    H144074   5.451   0.226  11.815 -0.2578 -1.4134  0.2702
 7553TIP3    H244075   5.509   0.234  11.955  0.6366 -0.8492 -0.1197
 7554TIP3   OH244076   3.942   6.244   2.313 -0.3017 -0.2028  0.6230
 7554TIP3    H144077   4.019   6.275   2.360  0.3558  0.1527 -0.6681
 7554TIP3    H244078   3.868   6.276   2.366  0.3942  1.2580  0.7713
 7555TIP3   OH244079   5.632   5.447  11.503  0.3955  0.6904 -0.7903
 7555TIP3    H144080   5.602   5.535  11.482  1.7876  1.1443 -0.9872
 7555TIP3    H244081   5.623   5.441  11.598 -2.6244 -0.1129 -1.0360
 7556TIP3   OH244082   1.684   0.785   6.740  0.2379 -0.2528  0.2727
 7556TIP3    H144083   1.618   0.780   6.671 -1.8147  0.0228  2.1232
 7556TIP3    H244084   1.759   0.829   6.698 -0.2656 -1.5652 -2.1967
 7557TIP3   OH244085   0.064   5.594  14.555  0.2871  0.4807 -0.1004
 7557TIP3    H144086  -0.026   5.569  14.534  0.0736  1.6710 -0.6830
 7557TIP3    H244087   0.073   5.683  14.522  0.6409  1.6660  2.9060
 7558TIP3   OH244088   4.936   1.560   4.695 -0.7205  0.4848  0.4793
 7558TIP3    H144089   5.025   1.537   4.722 -0.5547 -0.3725 -0.6933
 7558TIP3    H244090   4.930   1.654   4.708 -0.0590  0.3773  1.7236
 7559TIP3   OH244091   5.006   1.154   4.088  0.1813 -0.0169  0.2207
 7559TIP3    H144092   5.101   1.168   4.086  0.0081  1.7091  1.6668
 7559TIP3    H244093   4.980   1.179   4.176 -1.6805 -0.1464 -0.2579
 7560TIP3   OH244094   2.298   4.727   6.018  0.2881  0.4937  0.1390
 7560TIP3    H144095   2.235   4.669   6.060  2.1842 -1.3090  0.6537
 7560TIP3    H244096   2.366   4.742   6.084  0.5641  2.1607 -0.4660
 7561TIP3   OH244097   2.706   2.350   2.025 -0.2047 -0.2298  0.1925
 7561TIP3    H144098   2.791   2.383   1.993 -0.0506 -0.5575  0.2565
 7561TIP3    H244099   2.695   2.390   2.111 -1.6144  2.3607 -1.0935
 7562TIP3   OH244100   1.385   1.973  16.370  0.7925  1.1502  0.0001
 7562TIP3    H144101   1.337   1.949  16.290  0.2073 -0.0263  0.6735
 7562TIP3    H244102   1.475   1.946  16.353  0.5939  0.5566 -0.1257
 7563TIP3   OH244103   3.602   3.264  11.448 -0.0071  0.3953  0.6509
 7563TIP3    H144104   3.559   3.337  11.493 -0.2461  0.9019 -0.3698
 7563TIP3    H244105   3.693   3.268  11.479  0.1115  1.4683  0.2022
 7564TIP3   OH244106   2.478   1.115  17.284  0.1415  0.5071 -0.3749
 7564TIP3    H144107   2.494   1.209  17.281 -2.1720  0.9470 -2.0702
 7564TIP3    H244108   2.394   1.104  17.239 -0.6772 -2.1588  1.5971
 7565TIP3   OH244109   5.818   6.082  13.967  0.3684  0.1544  0.0184
 7565TIP3    H144110   5.804   6.145  14.038  3.6829  2.4336 -1.1390
 7565TIP3    H244111   5.891   6.028  13.997 -0.1918 -0.8938 -0.4484
 7566TIP3   OH244112   1.595   3.351  12.675  0.0389  0.0227  0.1655
 7566TIP3    H144113   1.584   3.309  12.589  0.2353  0.5664 -0.1316
 7566TIP3    H244114   1.688   3.373  12.678  0.5536 -2.0117  1.4693
 7567TIP3   OH244115   5.174   6.451   1.864 -0.2591 -1.2371 -0.4445
 7567TIP3    H144116   5.126   6.496   1.934 -0.1795 -0.1448 -1.0802
 7567TIP3    H244117   5.158   6.358   1.881 -0.1743 -1.0091  1.0798
 7568TIP3   OH244118   1.042   1.967   6.059  0.0229 -0.2094 -0.1151
 7568TIP3    H144119   0.959   1.959   6.012  0.0957  0.1416 -0.3071
 7568TIP3    H244120   1.048   2.060   6.081 -0.5117 -0.5212  1.5235
 7569TIP3   OH244121   1.785   0.479   3.742  0.2008  0.4194  0.3760
 7569TIP3    H144122   1.871   0.452   3.711 -0.0593  0.1616 -0.1411
 7569TIP3    H244123   1.779   0.445   3.831  0.4798  0.1054  0.2760
 7570TIP3   OH244124   2.582   5.945   2.940 -0.1168 -0.2158  0.9250
 7570TIP3    H144125   2.515   5.878   2.955  1.1448 -1.7281  0.1018
 7570TIP3    H244126   2.664   5.903   2.968  0.8098  0.6966 -0.3395
 7571TIP3   OH244127   2.744   4.890  13.148  0.2372  0.1855  0.1038
 7571TIP3    H144128   2.668   4.933  13.110 -0.5891 -1.5439 -0.2841
 7571TIP3    H244129   2.810   4.959  13.155 -0.0796  0.9429 -3.0200
 7572TIP3   OH244130   0.697   5.960  11.814  0.5783 -0.3298 -0.2274
 7572TIP3    H144131   0.669   5.988  11.901  0.2656 -1.0146 -0.1040
 7572TIP3    H244132   0.789   5.987  11.810  0.3370  0.5536 -0.0530
 7573TIP3   OH244133   6.526   1.791   1.092  0.5739  0.0558 -0.3538
 7573TIP3    H144134   6.509   1.882   1.115  4.0968  0.7567  0.0833
 7573TIP3    H244135   6.562   1.752   1.172 -1.7739 -2.1035 -0.2058
 7574TIP3   OH244136   1.008   3.240  13.158  0.3582 -0.4581 -0.3135
 7574TIP3    H144137   1.013   3.154  13.114  0.7479 -0.7831  0.3509
 7574TIP3    H244138   0.940   3.229  13.224 -0.1231 -0.0148 -0.7337
 7575TIP3   OH244139   6.689   0.580  15.685 -0.5568 -0.1964 -0.0716
 7575TIP3    H144140   6.626   0.638  15.728 -0.4472 -0.9243  1.1216
 7575TIP3    H244141   6.665   0.492  15.714 -0.7495 -0.7862 -1.8899
 7576TIP3   OH244142   1.947   1.571  16.401  0.1381 -0.5380  0.0776
 7576TIP3    H144143   1.949   1.566  16.496  1.0731 -1.4502  0.0311
 7576TIP3    H244144   1.871   1.519  16.375 -0.1921 -0.1811  0.3250
 7577TIP3   OH244145   3.419   2.946  13.682 -0.3316  0.0908 -0.4038
 7577TIP3    H144146   3.467   3.017  13.641 -0.7798  0.3355 -0.5091
 7577TIP3    H244147   3.481   2.909  13.745  1.1089 -1.5552 -2.6092
 7578TIP3   OH244148   1.537   0.643  12.256  0.5701  0.0214  0.0852
 7578TIP3    H144149   1.560   0.732  12.230  3.3745 -1.0497 -1.5111
 7578TIP3    H244150   1.621   0.601  12.275 -0.4644 -2.8181 -1.0679
 7579TIP3   OH244151   0.723   2.825   3.029 -0.3668 -0.2658  0.1412
 7579TIP3    H144152   0.791   2.796   3.089 -1.4602 -1.8965  0.6754
 7579TIP3    H244153   0.692   2.908   3.065 -0.0704 -0.5463  1.0624
 7580TIP3   OH244154   0.774   5.920   2.696  0.2392 -0.2732  0.2632
 7580TIP3    H144155   0.729   5.888   2.618 -2.7875  0.2164  1.6706
 7580TIP3    H244156   0.764   5.850   2.760  1.2724 -0.0196  0.7243
 7581TIP3   OH244157   5.441   1.787  16.617 -0.0592  0.3159  0.1737
 7581TIP3    H144158   5.482   1.845  16.552  0.7332  0.8429  1.1274
 7581TIP3    H244159   5.367   1.838  16.650 -0.7261 -0.1198 -0.5916
 7582TIP3   OH244160   0.120   0.363   5.575  0.2203 -0.8059  0.1113
 7582TIP3    H144161   0.135   0.375   5.669  1.4952 -1.9215  0.0903
 7582TIP3    H244162   0.105   0.451   5.541  1.5885 -0.1592  1.0734
 7583TIP3   OH244163   5.370   5.141   0.041  0.2379 -0.1936 -1.0463
 7583TIP3    H144164   5.407   5.170   0.125 -4.5796 -0.8783  1.6887
 7583TIP3    H244165   5.364   5.221  -0.011  0.0806  1.0231  0.7460
 7584TIP3   OH244166   1.260   6.114   5.861  0.2915 -0.3438 -0.0462
 7584TIP3    H144167   1.173   6.138   5.830 -0.7468 -0.1387  2.7958
 7584TIP3    H244168   1.296   6.060   5.791 -1.6555  0.4589 -1.7727
 7585TIP3   OH244169   3.288   6.063   1.221  0.2470 -0.3544 -0.3407
 7585TIP3    H144170   3.214   6.121   1.202  0.2207 -0.4159 -0.4238
 7585TIP3    H244171   3.356   6.122   1.256 -0.5036 -0.5563  1.5573
 7586TIP3   OH244172   0.391   0.083  11.474  0.9212 -0.1101 -0.7044
 7586TIP3    H144173   0.391   0.120  11.562  0.8673  0.9038 -1.1207
 7586TIP3    H244174   0.298   0.083  11.448  1.0817  1.0486 -1.3421
 7587TIP3   OH244175   2.697   5.219  16.073  0.0260 -0.2134 -0.3136
 7587TIP3    H144176   2.653   5.267  16.143  1.8640  2.0650 -0.6035
 7587TIP3    H244177   2.677   5.268  15.993  1.4967 -0.2426 -0.7236
 7588TIP3   OH244178   4.843   1.812   4.672 -0.3363  0.1399  0.2289
 7588TIP3    H144179   4.770   1.839   4.727 -0.3181  0.6594  0.0055
 7588TIP3    H244180   4.872   1.893   4.629  0.7568  0.0584  0.7755
 7589TIP3   OH244181   2.135   3.755  14.981 -0.3828 -0.3358  0.0848
 7589TIP3    H144182   2.092   3.669  14.984  1.8220 -1.4740  1.9851
 7589TIP3    H244183   2.175   3.758  14.894 -0.6085 -1.1607 -0.0602
 7590TIP3   OH244184   3.647   1.912  10.469  0.6237  0.2210  0.3607
 7590TIP3    H144185   3.562   1.905  10.513  0.3566 -0.5159 -0.2664
 7590TIP3    H244186   3.675   2.002  10.487  0.1290  0.2018  1.3155
 7591TIP3   OH244187   4.444   4.474   1.782 -0.2897  0.0106  0.4612
 7591TIP3    H144188   4.463   4.566   1.803 -0.0149  0.2120 -0.6142
 7591TIP3    H244189   4.410   4.438   1.864 -1.7402  1.4207  0.5400
 7592TIP3   OH244190   5.525   4.067   2.884 -0.2296  0.4793  0.4128
 7592TIP3    H144191   5.446   4.102   2.844 -1.7284 -3.0350 -0.0156
 7592TIP3    H244192   5.573   4.027   2.811  0.4812  0.0175  1.1175
 7593TIP3   OH244193   4.411   2.060   2.285  0.2691  0.6632 -0.1944
 7593TIP3    H144194   4.331   2.075   2.235 -0.0680 -0.0846  0.1085
 7593TIP3    H244195   4.476   2.117   2.243  0.1662 -0.4172 -1.9313
 7594TIP3   OH244196   3.975   4.910  12.485 -0.3551  0.3564 -0.2519
 7594TIP3    H144197   3.915   4.958  12.427  1.2931  0.9567 -1.5681
 7594TIP3    H244198   4.060   4.914  12.439  0.7338 -0.2853  1.6088
 7595TIP3   OH244199   3.274   2.442   0.639 -0.1702  0.4763 -0.3028
 7595TIP3    H144200   3.339   2.377   0.668 -0.4304  0.2869 -0.1357
 7595TIP3    H244201   3.203   2.390   0.601 -0.2800  0.6750 -0.3717
 7596TIP3   OH244202   6.181   5.374  11.711 -0.4952 -0.3509 -0.5208
 7596TIP3    H144203   6.263   5.405  11.673  0.3021 -1.7603 -0.0154
 7596TIP3    H244204   6.155   5.300  11.655 -0.9980 -0.4197 -0.2049
 7597TIP3   OH244205   5.029   5.629   2.585  0.0180 -0.0607  0.6082
 7597TIP3    H144206   4.981   5.712   2.585  0.5699  0.2746 -0.2719
 7597TIP3    H244207   4.978   5.572   2.527  1.2252  0.6553 -1.2450
 7598TIP3   OH244208   6.625   0.735   3.961 -0.4501 -0.4908 -0.0597
 7598TIP3    H144209   6.721   0.738   3.965 -0.3831  0.6773 -1.6068
 7598TIP3    H244210   6.598   0.822   3.993 -0.9698 -0.6135 -0.1598
 7599TIP3   OH244211   0.874   6.463  13.062 -0.2554  0.4821 -0.0006
 7599TIP3    H144212   0.885   6.374  13.094  1.0974  0.1454 -1.2935
 7599TIP3    H244213   0.931   6.516  13.118 -0.6584  0.4590  0.4340
 7600TIP3   OH244214   6.004   5.092  13.119 -0.1511  0.4113 -0.1138
 7600TIP3    H144215   6.055   5.041  13.182  0.2924  1.8718  0.7557
 7600TIP3    H244216   5.915   5.090  13.152  0.5388  3.7050  2.4204
 7601TIP3   OH244217   5.245   0.655   5.415  0.0334 -0.6647 -0.4551
 7601TIP3    H144218   5.192   0.611   5.348 -0.1119  1.4166 -1.8195
 7601TIP3    H244219   5.335   0.636   5.390 -0.0382 -1.0607 -0.4099
 7602TIP3   OH244220   1.989   0.129  15.655 -0.0417 -0.2724  0.0938
 7602TIP3    H144221   2.080   0.150  15.632  0.1919 -1.6459 -0.3392
 7602TIP3    H244222   1.984   0.146  15.749  0.7707 -0.5174  0.1951
 7603TIP3   OH244223   1.405   6.070   5.573 -0.0088 -0.0379  0.4018
 7603TIP3    H144224   1.499   6.056   5.568  0.2696  0.3479  3.0754
 7603TIP3    H244225   1.382   6.111   5.490  2.6960  2.5098  0.7748
 7604TIP3   OH244226   2.567   3.225   1.313  0.1886 -0.2085  0.5070
 7604TIP3    H144227   2.611   3.289   1.369  1.0573 -0.3123 -0.0326
 7604TIP3    H244228   2.626   3.150   1.311 -0.9114 -1.1274  1.2834
 7605TIP3   OH244229   3.249   1.433   5.514  0.1726  0.5172  0.3188
 7605TIP3    H144230   3.167   1.432   5.563  0.3016 -0.8936  0.5702
 7605TIP3    H244231   3.231   1.486   5.436 -1.0943 -0.0743  0.1855
 7606TIP3   OH244232   3.466   1.823   0.519 -0.4379 -0.8845 -0.0255
 7606TIP3    H144233   3.530   1.839   0.450 -1.0113  1.4249 -0.1019
 7606TIP3    H244234   3.381   1.828   0.474 -0.8253  0.8274  0.7990
 7607TIP3   OH244235   2.907   0.739  11.961  0.4821  0.2535  0.2831
 7607TIP3    H144236   2.949   0.808  11.909 -3.3876  2.1781 -0.6337
 7607TIP3    H244237   2.898   0.665  11.901  0.1773  0.8015 -0.3607
 7608TIP3   OH244238   2.839   2.540  16.765 -0.1634 -0.0020  0.4229
 7608TIP3    H144239   2.921   2.491  16.779  0.6074  1.5646  1.6566
 7608TIP3    H244240   2.844   2.568  16.673  0.6822  0.0564  0.4741
 7609TIP3   OH244241   0.072   0.735  10.568  0.5749  0.3543  0.5589
 7609TIP3    H144242   0.140   0.683  10.525  1.1773  1.8050 -0.3005
 7609TIP3    H244243   0.046   0.799  10.502 -0.3875  0.9399  1.4838
 7610TIP3   OH244244   1.559   5.401   2.100 -0.3992 -0.6442 -0.3014
 7610TIP3    H144245   1.557   5.369   2.190  3.4819  0.9566  0.5314
 7610TIP3    H244246   1.513   5.485   2.103 -1.5713 -1.2531 -0.2407
 7611TIP3   OH244247   0.345   3.130   4.254 -0.1806  0.5815  0.1848
 7611TIP3    H144248   0.341   3.149   4.348  0.4397  1.6707  0.0032
 7611TIP3    H244249   0.283   3.059   4.242  0.0732  0.1139  1.4975
 7612TIP3   OH244250   4.581   5.060  16.662  0.1569  0.2048  0.3314
 7612TIP3    H144251   4.636   5.065  16.740  0.9413  0.3601 -0.2097
 7612TIP3    H244252   4.492   5.048  16.695  0.2219  1.9937  1.2949
 7613TIP3   OH244253   3.931   3.977   0.474  0.4067  0.0116  0.0461
 7613TIP3    H144254   3.967   4.059   0.509  0.7752 -0.3717  0.5840
 7613TIP3    H244255   3.836   3.993   0.469  0.5402  0.6987 -0.4817
 7614TIP3   OH244256   4.351   5.797   3.277 -0.0351  0.1926  0.3483
 7614TIP3    H144257   4.283   5.853   3.240  1.5067  1.4645 -0.7104
 7614TIP3    H244258   4.421   5.857   3.303  1.1452 -1.1348  0.4004
 7615TIP3   OH244259   0.873   4.907   5.271  0.4807 -0.6739  0.6470
 7615TIP3    H144260   0.905   4.892   5.182 -1.5065 -1.7220  0.0270
 7615TIP3    H244261   0.951   4.912   5.325  1.6908 -2.4288 -0.8209
 7616TIP3   OH244262   6.073   5.378  12.280  0.2170  0.4099 -0.0924
 7616TIP3    H144263   6.116   5.297  12.309  1.1293  1.0349  0.3378
 7616TIP3    H244264   5.985   5.372  12.317  0.6105  0.0947  0.8277
 7617TIP3   OH244265   1.904   2.876   2.676 -0.2555  0.1516  0.1150
 7617TIP3    H144266   1.901   2.781   2.690 -1.6915  0.1752  0.0983
 7617TIP3    H244267   1.957   2.909   2.749  3.0874 -0.9122 -1.5964
 7618TIP3   OH244268   5.570   5.280  12.087 -0.5099  0.0705  0.0542
 7618TIP3    H144269   5.648   5.251  12.040  0.9889  0.1327  2.3441
 7618TIP3    H244270   5.593   5.367  12.119 -1.7067  0.2709  0.4109
 7619TIP3   OH244271   2.936   6.544  16.256  0.2673  0.8470 -0.3562
 7619TIP3    H144272   2.917   6.469  16.198 -0.8737  2.5869 -2.3892
 7619TIP3    H244273   2.850   6.584  16.271  0.0523 -0.8673  4.7659
 7620TIP3   OH244274   0.048   5.581   3.645  0.3341 -0.4712  0.0996
 7620TIP3    H144275   0.091   5.504   3.608  0.2502  0.0630 -1.1512
 7620TIP3    H244276  -0.038   5.583   3.604  0.2292  0.1170  0.3350
 7621TIP3   OH244277   1.041   2.449   3.907  0.0195  0.2609 -0.8492
 7621TIP3    H144278   0.949   2.429   3.889  0.3018 -0.1936 -1.9031
 7621TIP3    H244279   1.082   2.364   3.922  0.1866  0.4992  0.0732
 7622TIP3   OH244280   3.050   0.630   4.606  0.0685 -0.1441  0.2344
 7622TIP3    H144281   3.137   0.669   4.615  0.0706 -0.6421  3.2755
 7622TIP3    H244282   3.067   0.537   4.588  0.2754 -0.6093  2.5652
 7623TIP3   OH244283   6.489   3.665  17.268  0.1504 -0.2291 -0.4112
 7623TIP3    H144284   6.416   3.713  17.228  0.9232  1.0841 -0.2938
 7623TIP3    H244285   6.555   3.660  17.199  0.5744  0.0056 -0.0268
 7624TIP3   OH244286   5.974   3.623   4.167  0.1932 -0.2595  0.4445
 7624TIP3    H144287   6.038   3.585   4.228  0.1644  0.4631  0.9423
 7624TIP3    H244288   5.953   3.552   4.107  2.9065 -0.0023 -0.9396
 7625TIP3   OH244289   2.045   6.272  11.142 -0.4178  0.0075 -0.2717
 7625TIP3    H144290   2.037   6.367  11.137 -0.1457  0.2214  2.1175
 7625TIP3    H244291   2.030   6.242  11.053  1.7044  2.4216 -1.5954
 7626TIP3   OH244292   4.046   3.066   2.008 -0.1661  0.0640 -0.3830
 7626TIP3    H144293   3.960   3.100   1.985 -0.9158 -0.2837  1.7776
 7626TIP3    H244294   4.076   3.121   2.079  0.3114 -1.3246  0.5300
 7627TIP3   OH244295   4.479   6.719  16.322 -0.0941 -0.5338  0.4062
 7627TIP3    H144296   4.520   6.777  16.386 -0.1234 -2.3788  2.2320
 7627TIP3    H244297   4.401   6.765  16.293  0.8697  1.1110  0.3444
 7628TIP3   OH244298   3.390   2.783   1.213 -0.0313 -0.0566 -0.1428
 7628TIP3    H144299   3.383   2.698   1.171 -0.6654  0.2016 -0.5717
 7628TIP3    H244300   3.368   2.767   1.305 -0.9245 -0.2225 -0.3780
 7629TIP3   OH244301   1.304   3.183  11.915  0.6596  0.1481  0.3370
 7629TIP3    H144302   1.257   3.266  11.923 -0.4275 -0.3972 -0.2578
 7629TIP3    H244303   1.394   3.209  11.897  0.3563  1.1980  0.2558
 7630TIP3   OH244304   6.471   4.862  14.449 -0.1052  0.1449 -0.1681
 7630TIP3    H144305   6.385   4.851  14.489 -0.1614  2.0425  0.3360
 7630TIP3    H244306   6.482   4.957  14.442  2.5128  0.0083  1.0456
 7631TIP3   OH244307   4.662   1.935  12.391 -0.0398  0.2622 -0.2209
 7631TIP3    H144308   4.638   2.005  12.331  0.4628  0.2503 -0.4443
 7631TIP3    H244309   4.645   1.855  12.342 -1.4165  0.1835  0.3324
 7632TIP3   OH244310   3.736   4.316  11.710  0.2254  0.2779  0.2299
 7632TIP3    H144311   3.759   4.408  11.725  2.4826 -0.3681  1.1141
 7632TIP3    H244312   3.714   4.312  11.616 -1.2356  1.9177  0.4442
 7633TIP3   OH244313   2.807   2.934   6.206 -0.2079 -0.2907 -0.1497
 7633TIP3    H144314   2.732   2.911   6.152 -1.2990  0.3516  1.0333
 7633TIP3    H244315   2.879   2.881   6.171 -1.5983 -2.2502 -0.2286
 7634TIP3   OH244316   3.079   5.473   0.123 -0.3109  0.6773  0.0408
 7634TIP3    H144317   3.129   5.472   0.205  2.6264 -0.3521 -1.6008
 7634TIP3    H244318   3.086   5.563   0.091  0.6582  0.5294 -0.2094
 7635TIP3   OH244319   3.991   4.239  12.495 -0.0912  0.0010 -0.2204
 7635TIP3    H144320   4.040   4.247  12.413 -3.2148  1.0000 -2.1809
 7635TIP3    H244321   3.927   4.310  12.491 -2.9952 -2.3137  1.1111
 7636TIP3   OH244322   2.193   0.892  10.729  0.3341 -0.3950  0.1359
 7636TIP3    H144323   2.130   0.836  10.684  0.2259 -1.3563  1.4284
 7636TIP3    H244324   2.239   0.833  10.788  1.6768  0.5040  0.0386
 7637TIP3   OH244325   6.753   4.462   2.348 -0.0573 -0.1095  0.0799
 7637TIP3    H144326   6.734   4.539   2.401 -0.4505  3.1472 -4.2676
 7637TIP3    H244327   6.846   4.471   2.324 -0.1205 -0.9487 -0.5542
 7638TIP3   OH244328   6.711   5.191  10.689 -0.2982  0.1095 -0.3299
 7638TIP3    H144329   6.668   5.121  10.739  1.6114 -1.0338 -0.2042
 7638TIP3    H244330   6.670   5.272  10.721 -0.9788 -0.7913  1.1731
 7639TIP3   OH244331   6.248   3.614   3.295 -0.4610  0.0697 -0.0273
 7639TIP3    H144332   6.294   3.549   3.348  0.2994  1.1694  0.6913
 7639TIP3    H244333   6.183   3.653   3.355 -2.6583 -1.6851 -1.0998
 7640TIP3   OH244334   2.813   3.060  11.714 -0.0653  0.1877 -0.2569
 7640TIP3    H144335   2.826   2.977  11.759 -0.2598  0.5237  0.4396
 7640TIP3    H244336   2.727   3.091  11.745 -0.8578 -0.2392 -1.9431
 7641TIP3   OH244337   2.323   1.980   3.237  0.0138 -0.0885 -0.2458
 7641TIP3    H144338   2.272   2.056   3.266  0.0873  0.0690 -0.5268
 7641TIP3    H244339   2.352   2.003   3.149  1.0544  0.0702  0.1225
 7642TIP3   OH244340   1.341   3.582  14.952 -0.2191  1.0653 -0.6495
 7642TIP3    H144341   1.314   3.510  14.897 -0.5648  1.4830 -1.0358
 7642TIP3    H244342   1.391   3.640  14.894  0.3101  0.9923 -0.2749
 7643TIP3   OH244343   4.881   0.426  11.143 -0.1623 -0.3468  0.3509
 7643TIP3    H144344   4.813   0.492  11.125 -1.4949 -0.6564  3.4815
 7643TIP3    H244345   4.862   0.355  11.082  1.4808  2.0844 -3.3287
 7644TIP3   OH244346   5.268   2.420   3.776 -0.1420 -0.1669 -0.2262
 7644TIP3    H144347   5.244   2.445   3.865 -0.9829 -2.2271  0.1784
 7644TIP3    H244348   5.330   2.487   3.748 -1.0412  1.3921  1.3205
 7645TIP3   OH244349   0.569   6.756   4.795 -0.1743 -0.1953 -0.1788
 7645TIP3    H144350   0.626   6.683   4.771 -1.2170 -0.0953 -3.2969
 7645TIP3    H244351   0.616   6.834   4.766  0.1027  0.2994  1.4717
 7646TIP3   OH244352   3.779   2.154   2.653 -0.6666  0.8461  0.4160
 7646TIP3    H144353   3.839   2.221   2.686  0.8573  1.1266 -2.5594
 7646TIP3    H244354   3.820   2.124   2.572 -3.0602 -1.2175 -0.1381
 7647TIP3   OH244355   0.271   5.752   3.433 -0.1819  0.0753  0.2304
 7647TIP3    H144356   0.238   5.756   3.522  0.4658  1.5204  0.4347
 7647TIP3    H244357   0.335   5.823   3.428  0.6659 -0.7361 -1.0350
 7648TIP3   OH244358   0.865   2.177  17.033  0.4714  0.6814  0.1650
 7648TIP3    H144359   0.880   2.111  16.965 -1.1843  0.2579  0.1829
 7648TIP3    H244360   0.827   2.251  16.986 -0.5393  0.4449  0.5956
 7649TIP3   OH244361   1.646   5.892   3.198 -0.3424 -0.3841  0.3895
 7649TIP3    H144362   1.652   5.812   3.146 -1.3221 -1.1149  1.3439
 7649TIP3    H244363   1.555   5.920   3.189  0.2182  1.2198 -0.7466
 7650TIP3   OH244364   5.773   4.639  11.776  0.2801  0.1845  0.0076
 7650TIP3    H144365   5.805   4.550  11.760  1.7161  0.9947 -1.9340
 7650TIP3    H244366   5.780   4.649  11.871  3.2458 -0.6992  0.0040
 7651TIP3   OH244367   1.517   6.149   3.048 -0.0822  0.5402  0.1581
 7651TIP3    H144368   1.474   6.079   2.998  0.2902  0.2360  0.2633
 7651TIP3    H244369   1.457   6.166   3.121  0.2716 -0.3180  0.6546
 7652TIP3   OH244370   2.983   3.143  10.897  0.1406  0.2666 -0.2028
 7652TIP3    H144371   3.062   3.090  10.893  0.5109  0.7437  0.6491
 7652TIP3    H244372   2.912   3.079  10.901  0.2637 -0.2351 -3.1834
 7653TIP3   OH244373   4.475   2.708  15.427 -0.0648 -0.1455  0.2317
 7653TIP3    H144374   4.521   2.764  15.490 -0.8603  0.3036  0.4324
 7653TIP3    H244375   4.391   2.689  15.468 -0.4707 -0.1108 -0.5562
 7654TIP3   OH244376   0.303   2.931  12.325  0.0752 -0.0804  0.2419
 7654TIP3    H144377   0.277   2.934  12.418  0.9150 -0.2582  0.4854
 7654TIP3    H244378   0.244   2.994  12.283 -0.2642  0.0654  0.9043
 7655TIP3   OH244379   0.061   5.093   1.782 -0.5442  0.2145  0.2012
 7655TIP3    H144380   0.107   5.031   1.726  1.3434  2.1692 -0.5556
 7655TIP3    H244381   0.041   5.045   1.862 -0.0493 -1.6093 -0.7318
 7656TIP3   OH244382   2.520   6.314  16.785 -0.4391 -0.2582  0.2438
 7656TIP3    H144383   2.601   6.310  16.836 -1.6668  0.1616  2.3427
 7656TIP3    H244384   2.474   6.232  16.806 -0.3864 -0.7273 -1.3212
 7657TIP3   OH244385   1.337   4.470  16.037  0.0166  0.1882  0.1368
 7657TIP3    H144386   1.290   4.488  16.119  3.1288 -0.8567  2.3706
 7657TIP3    H244387   1.357   4.556  16.001  0.4385  0.7627  1.6779
 7658TIP3   OH244388   2.301   2.004   5.395 -1.0662  0.0090 -0.1502
 7658TIP3    H144389   2.351   2.068   5.343 -0.3207 -1.7394 -1.7235
 7658TIP3    H244390   2.237   1.969   5.333 -1.5443 -0.6610  0.7089
 7659TIP3   OH244391   1.285   1.193  16.582  0.2325 -0.4000 -0.0509
 7659TIP3    H144392   1.377   1.165  16.575  0.0001 -1.3822  0.5689
 7659TIP3    H244393   1.289   1.288  16.577  1.0417 -0.4781 -2.5464
 7660TIP3   OH244394   6.400   2.072  14.156  0.1889 -0.0386  0.2676
 7660TIP3    H144395   6.392   1.991  14.106 -1.5247 -0.1344  0.6122
 7660TIP3    H244396   6.391   2.045  14.247 -3.7256  0.7077  0.3208
 7661TIP3   OH244397   0.134   4.105   1.431  0.6501  0.5465 -0.7342
 7661TIP3    H144398   0.191   4.113   1.355 -0.4934 -1.8780 -1.9554
 7661TIP3    H244399   0.156   4.019   1.468  1.8916  2.0215  2.3949
 7662TIP3   OH244400   1.324   4.066   2.430 -0.3208  0.5655 -0.5830
 7662TIP3    H144401   1.292   4.022   2.351 -2.3396  0.1965  0.3609
 7662TIP3    H244402   1.405   4.020   2.452 -0.9268 -0.8642 -1.1882
 7663TIP3   OH244403   1.351   1.905  13.216 -0.2405 -0.0048  0.3590
 7663TIP3    H144404   1.325   1.996  13.205 -0.4653 -0.0271  0.6817
 7663TIP3    H244405   1.441   1.909  13.248 -0.2649  0.1031  0.4144
 7664TIP3   OH244406   0.042   1.840  14.975 -0.2476 -0.2077  0.3641
 7664TIP3    H144407  -0.014   1.831  15.052  1.2546 -2.1786  1.3356
 7664TIP3    H244408  -0.017   1.863  14.904 -1.7339  1.3051  2.0079
 7665TIP3   OH244409   2.122   3.355  17.037  0.1303 -0.3654 -0.0538
 7665TIP3    H144410   2.155   3.344  17.126 -0.6369 -0.9438  0.1711
 7665TIP3    H244411   2.127   3.268  16.999  0.8990 -0.0290 -0.7462
 7666TIP3   OH244412   1.631   3.175  14.077 -0.4314  0.0995 -0.5451
 7666TIP3    H144413   1.545   3.139  14.095 -0.2348  0.3263  1.0037
 7666TIP3    H244414   1.618   3.234  14.002 -1.7340  0.5423  0.0076
 7667TIP3   OH244415   4.742   1.733  14.657  0.0650 -0.1644  0.4804
 7667TIP3    H144416   4.719   1.825  14.651  2.0359  0.3377 -0.0325
 7667TIP3    H244417   4.659   1.688  14.674 -0.9502  1.6648  0.5447
 7668TIP3   OH244418   5.505   1.066   2.160 -0.1613 -0.2250  0.6063
 7668TIP3    H144419   5.556   1.130   2.109  0.6870 -1.4727 -0.1645
 7668TIP3    H244420   5.495   0.991   2.101 -2.6962 -0.1446  0.8315
 7669TIP3   OH244421   3.889   6.490   1.037  0.3595 -0.3709 -0.7696
 7669TIP3    H144422   3.884   6.397   1.059  1.4343 -0.0842  0.8382
 7669TIP3    H244423   3.907   6.492   0.943 -1.7797 -1.7157 -1.2767
 7670TIP3   OH244424   1.635   1.445   0.864  0.3317  0.7227  0.0347
 7670TIP3    H144425   1.699   1.379   0.838  2.6931  2.6213  0.6698
 7670TIP3    H244426   1.617   1.493   0.783 -1.0362 -0.3679 -0.3324
 7671TIP3   OH244427   2.156   3.200  13.688 -0.0283 -0.5678  0.0619
 7671TIP3    H144428   2.127   3.168  13.773  1.3803 -0.4614  0.6207
 7671TIP3    H244429   2.209   3.129  13.652  0.9325  0.0889  0.1294
 7672TIP3   OH244430   4.167   3.933  16.658  0.3836  0.2314 -0.5239
 7672TIP3    H144431   4.203   3.909  16.573  1.1216  1.1123 -0.4702
 7672TIP3    H244432   4.072   3.928  16.646  0.4735  0.6822 -1.5032
 7673TIP3   OH244433   5.962   2.204  13.803  0.4215 -0.1032  0.5009
 7673TIP3    H144434   6.024   2.249  13.746  0.4776 -0.9292 -0.1158
 7673TIP3    H244435   6.017   2.152  13.861  0.3258 -1.1693 -0.3270
 7674TIP3   OH244436   1.049   3.079   4.725 -0.1460 -0.0281 -0.5177
 7674TIP3    H144437   1.135   3.088   4.686  1.1079 -0.9307  1.8129
 7674TIP3    H244438   1.043   3.152   4.787 -0.6556 -0.4945  0.0030
 7675TIP3   OH244439   0.696   1.056  13.061 -0.3532  0.1749  0.2244
 7675TIP3    H144440   0.671   0.975  13.018  1.8894 -0.0899 -0.7539
 7675TIP3    H244441   0.651   1.125  13.012  0.6538 -0.2636 -1.3989
 7676TIP3   OH244442   1.302   6.327  12.222  0.4638  0.4349 -0.2313
 7676TIP3    H144443   1.309   6.420  12.200  0.3372  0.2077 -1.2957
 7676TIP3    H244444   1.349   6.318  12.305  0.1329  1.5180  0.0899
 7677TIP3   OH244445   2.678   5.060   4.422 -0.2491  0.0144  0.1196
 7677TIP3    H144446   2.679   5.069   4.327  0.7072  1.2875  0.2271
 7677TIP3    H244447   2.605   5.115   4.451 -0.1819  0.0804  0.1630
 7678TIP3   OH244448   4.070   5.819  16.006  0.1555 -0.0559 -0.7371
 7678TIP3    H144449   4.159   5.787  15.993  0.3219  0.5031 -0.9658
 7678TIP3    H244450   4.080   5.909  16.034 -0.3450  0.0743 -0.9601
 7679TIP3   OH244451   5.657   4.235   5.783 -0.3156  0.5750  0.0683
 7679TIP3    H144452   5.638   4.283   5.864 -0.2229 -0.0695  0.4763
 7679TIP3    H244453   5.572   4.226   5.741 -0.5239  0.0049  0.6031
 7680TIP3   OH244454   4.428   2.971  13.835  0.3982  0.2121 -0.4771
 7680TIP3    H144455   4.358   3.027  13.803 -0.8875 -0.9746  0.1471
 7680TIP3    H244456   4.502   2.989  13.776 -0.9724  0.1871 -2.2990
 7681TIP3   OH244457   5.499   4.542  15.361  0.2519 -0.7862 -0.0367
 7681TIP3    H144458   5.421   4.582  15.321  0.0972 -0.5467  0.4991
 7681TIP3    H244459   5.554   4.616  15.385  0.7019 -0.9610 -0.5170
 7682TIP3   OH244460   1.117   4.864   4.509  0.2560 -0.5708  0.3718
 7682TIP3    H144461   1.188   4.800   4.509  0.7731 -0.0033  0.0096
 7682TIP3    H244462   1.119   4.901   4.597  0.1359 -0.8468  0.4937
 7683TIP3   OH244463   2.055   2.330   4.923  0.5011 -0.0247  0.0230
 7683TIP3    H144464   2.010   2.246   4.922 -0.0413  0.2571 -0.7523
 7683TIP3    H244465   2.011   2.382   4.855  0.5963  1.0027  0.7185
 7684TIP3   OH244466   1.855   4.934  15.975 -0.0332  0.7541  0.0829
 7684TIP3    H144467   1.830   5.002  16.037 -0.1124 -0.1112  1.0435
 7684TIP3    H244468   1.786   4.868  15.983  1.5177 -0.8501  1.4664
 7685TIP3   OH244469   5.777   0.474  14.457 -0.6512  0.6817  0.5412
 7685TIP3    H144470   5.795   0.559  14.417  2.4902  0.6098  1.5308
 7685TIP3    H244471   5.834   0.471  14.534 -1.9697 -1.6447  1.5368
 7686TIP3   OH244472   2.622   0.283   6.066  0.1308  0.6471 -0.2737
 7686TIP3    H144473   2.681   0.264   5.993  1.5408  1.2418  0.6768
 7686TIP3    H244474   2.660   0.238   6.141 -0.8082  0.7742  0.2941
 7687TIP3   OH244475   6.282   6.608  14.435  0.2847  0.3439  0.0870
 7687TIP3    H144476   6.227   6.544  14.390  0.0152  0.1325  0.7068
 7687TIP3    H244477   6.364   6.608  14.386  0.8144 -1.5180  0.8610
 7688TIP3   OH244478   1.753   5.123  14.499 -0.0199 -0.3267  0.6555
 7688TIP3    H144479   1.737   5.178  14.423 -3.2114 -0.3790  1.1505
 7688TIP3    H244480   1.811   5.174  14.555  1.6040  0.0988 -1.3315
 7689TIP3   OH244481   0.671   2.616   1.409  0.7586 -0.1305 -0.1698
 7689TIP3    H144482   0.735   2.550   1.382  0.8735  0.3009 -0.9797
 7689TIP3    H244483   0.588   2.568   1.414  0.9135 -0.4235 -0.3515
 7690TIP3   OH244484   5.147   2.478   5.667  0.1326 -0.4146  0.1649
 7690TIP3    H144485   5.154   2.502   5.575 -0.9349  2.6271  0.7707
 7690TIP3    H244486   5.053   2.475   5.684  0.3006 -1.5468  1.0689
 7691TIP3   OH244487   5.358   2.463  15.409 -0.2553 -0.4226 -0.1099
 7691TIP3    H144488   5.335   2.370  15.406  0.1244 -0.5053 -0.7394
 7691TIP3    H244489   5.438   2.467  15.461  1.3761 -0.8386 -2.4153
 7692TIP3   OH244490   5.604   2.546   0.583 -0.2696 -0.2312 -0.2545
 7692TIP3    H144491   5.682   2.582   0.541 -1.8750  2.7181 -0.9904
 7692TIP3    H244492   5.580   2.471   0.529  0.4860  0.5183 -1.6900
 7693TIP3   OH244493   4.011   2.507  12.492 -0.0867  0.2148 -0.0209
 7693TIP3    H144494   4.072   2.475  12.557 -0.7248 -0.2464  0.3587
 7693TIP3    H244495   4.011   2.602  12.503 -1.4374  0.0551  1.8115
 7694TIP3   OH244496   5.583   0.921  14.242 -0.2149 -0.4415  0.1444
 7694TIP3    H144497   5.610   0.962  14.160  1.1483 -2.5962 -0.5501
 7694TIP3    H244498   5.586   0.992  14.306  0.0238  0.9909 -1.3741
 7695TIP3   OH244499   4.442   2.426  11.274  0.2201  0.2144 -0.9561
 7695TIP3    H144500   4.468   2.350  11.221  1.7495 -0.6989  0.9879
 7695TIP3    H244501   4.520   2.481  11.278  1.1256 -1.0877  2.4928
 7696TIP3   OH244502   1.434   3.298   1.214 -0.3837 -0.2996  0.0105
 7696TIP3    H144503   1.448   3.205   1.233  0.6105 -0.0995  0.3312
 7696TIP3    H244504   1.413   3.337   1.298  0.3030 -0.0552  0.0798
 7697TIP3   OH244505   4.382   5.535   3.972 -0.0304 -1.0432 -0.1191
 7697TIP3    H144506   4.290   5.522   3.997  0.4187 -1.3879  1.4684
 7697TIP3    H244507   4.421   5.578   4.048  0.6467  1.1831 -1.6338
 7698TIP3   OH244508   5.681   1.550  13.597  0.7344 -0.4578 -0.1056
 7698TIP3    H144509   5.703   1.640  13.571  0.5246  0.1697  1.7378
 7698TIP3    H244510   5.765   1.511  13.620  0.7030 -0.3197  0.2595
 7699TIP3   OH244511   4.203   5.448  12.990  0.3107  0.0539  0.1900
 7699TIP3    H144512   4.210   5.353  12.975  2.4580  0.1500  0.2326
 7699TIP3    H244513   4.177   5.484  12.905  0.6404 -0.4790 -0.1436
 7700TIP3   OH244514   4.680   4.795   2.884 -0.4140 -0.3793 -0.0912
 7700TIP3    H144515   4.717   4.708   2.872 -1.8242 -1.5325  2.8854
 7700TIP3    H244516   4.586   4.782   2.872 -0.6248  0.7489  0.2467
 7701TIP3   OH244517   1.897   1.289   6.306 -0.1176 -0.1389  0.6618
 7701TIP3    H144518   1.958   1.294   6.380  0.0189 -1.8908  0.6995
 7701TIP3    H244519   1.834   1.359   6.324  2.2525  2.2747  0.1991
 7702TIP3   OH244520   2.697   1.664  14.125 -0.1163  0.0369 -0.3077
 7702TIP3    H144521   2.676   1.748  14.084 -0.2504  0.2806  0.2635
 7702TIP3    H244522   2.621   1.609  14.105 -0.7544  0.5355  0.6691
 7703TIP3   OH244523   5.117   0.996   6.006  0.9351 -0.3220 -0.3514
 7703TIP3    H144524   5.133   0.919   6.061 -0.5663  1.3216  2.6568
 7703TIP3    H244525   5.192   1.053   6.023  0.1482  0.4677  0.6081
 7704TIP3   OH244526   6.535   2.242   3.616  0.2904  0.0202  0.0568
 7704TIP3    H144527   6.455   2.236   3.566  0.4207 -0.8645 -0.0646
 7704TIP3    H244528   6.558   2.151   3.636  0.0725  0.3461  1.9740
 7705TIP3   OH244529   3.875   6.521   2.121  0.4603 -0.0127 -0.5232
 7705TIP3    H144530   3.868   6.567   2.037  0.9650  2.0485  0.4843
 7705TIP3    H244531   3.836   6.435   2.105  0.2165  0.4477 -2.7520
 7706TIP3   OH244532   5.252   0.929   2.129  0.0255 -0.0639 -0.1400
 7706TIP3    H144533   5.309   0.890   2.062  0.5844 -0.2848  0.4597
 7706TIP3    H244534   5.312   0.962   2.196 -0.5630 -0.4770  0.6053
 7707TIP3   OH244535   4.222   2.943  15.116 -0.3203  0.4220  0.3348
 7707TIP3    H144536   4.254   2.956  15.027  0.0777  0.6581  0.5121
 7707TIP3    H244537   4.300   2.946  15.171 -0.6739  1.4026  0.8097
 7708TIP3   OH244538   0.203   6.390   3.278  0.0284 -1.0121  0.9388
 7708TIP3    H144539   0.199   6.323   3.210  0.6057 -1.8264  1.6803
 7708TIP3    H244540   0.225   6.342   3.358  2.8098  0.3098  1.0856
 7709TIP3   OH244541   4.925   4.978   0.900 -0.0976 -0.1510 -0.6625
 7709TIP3    H144542   5.013   4.985   0.936  0.2892 -0.7905 -1.4369
 7709TIP3    H244543   4.868   5.015   0.967  0.7439  0.1332 -0.0873
 7710TIP3   OH244544   1.374   3.418   5.794 -0.0972  0.6116 -0.4169
 7710TIP3    H144545   1.294   3.460   5.823  1.0273  1.5652  1.5335
 7710TIP3    H244546   1.368   3.329   5.828 -0.5992  0.4834 -0.8338
 7711TIP3   OH244547   0.834   3.564  13.767 -0.2948 -0.2318  0.7209
 7711TIP3    H144548   0.862   3.498  13.705 -1.6311 -1.8510  1.7367
 7711TIP3    H244549   0.771   3.618  13.719  1.7551  1.1985 -0.4955
 7712TIP3   OH244550   2.756   2.697  13.956 -0.0426  0.5227 -0.7756
 7712TIP3    H144551   2.830   2.756  13.973 -0.9153  1.2228  0.8587
 7712TIP3    H244552   2.796   2.610  13.949  1.0508  1.0312 -1.0662
 7713TIP3   OH244553   0.169   4.520   3.160  0.0978 -0.5601  0.5675
 7713TIP3    H144554   0.251   4.495   3.202  2.8299  1.9954 -2.7909
 7713TIP3    H244555   0.171   4.477   3.075 -1.5649  0.4140 -0.0139
 7714TIP3   OH244556   4.524   4.043  10.889 -0.1478 -0.1625  0.1889
 7714TIP3    H144557   4.467   4.042  10.965 -0.4607 -0.4212 -0.0433
 7714TIP3    H244558   4.480   3.986  10.825 -0.9035  1.5711 -0.9196
 7715TIP3   OH244559   6.463   4.891   0.537  0.4215 -0.0310  0.4009
 7715TIP3    H144560   6.419   4.972   0.561  0.6523  0.3309 -0.3790
 7715TIP3    H244561   6.417   4.823   0.587 -1.5250  0.2154 -0.9414
 7716TIP3   OH244562   0.897   1.754  11.497  0.4535 -0.3699 -0.4836
 7716TIP3    H144563   0.992   1.761  11.493  0.3901  1.1684  0.1752
 7716TIP3    H244564   0.865   1.842  11.476 -0.7279 -0.2496  1.5535
 7717TIP3   OH244565   5.810   4.625  16.589 -0.0350 -0.3425  0.5224
 7717TIP3    H144566   5.726   4.623  16.635  0.9905  1.7777  2.7037
 7717TIP3    H244567   5.876   4.629  16.658  1.6486  2.3927 -1.0079
 7718TIP3   OH244568   4.927   3.858   4.523 -0.6988  0.2961  0.5349
 7718TIP3    H144569   4.854   3.903   4.482 -2.0884  0.7503  3.2407
 7718TIP3    H244570   4.918   3.767   4.495 -1.0613  0.7254 -0.7785
 7719TIP3   OH244571   3.770   1.620  14.402  0.5997  0.3259  0.0321
 7719TIP3    H144572   3.677   1.597  14.397 -0.1177  3.0250 -2.1958
 7719TIP3    H244573   3.784   1.643  14.494 -0.8515 -0.4531  0.4770
 7720TIP3   OH244574   5.312   0.295   1.251 -0.1399 -0.1193 -0.5082
 7720TIP3    H144575   5.240   0.234   1.242  0.1886 -0.4489 -0.9419
 7720TIP3    H244576   5.391   0.243   1.237  0.2039  0.1714  0.2828
 7721TIP3   OH244577   3.615   0.886   3.022 -0.0746  0.1026  0.5532
 7721TIP3    H144578   3.598   0.826   3.094  0.4270 -2.4787 -1.3543
 7721TIP3    H244579   3.706   0.915   3.036  0.5497 -1.5726  0.2091
 7722TIP3   OH244580   0.101   1.095   6.143 -0.4693 -0.3695 -0.2015
 7722TIP3    H144581   0.034   1.038   6.104  1.3690 -2.3451 -0.6546
 7722TIP3    H244582   0.182   1.045   6.136  0.7063  0.9806  2.3929
 7723TIP3   OH244583   3.355   3.081   3.129  0.3760 -0.3309  0.1745
 7723TIP3    H144584   3.287   3.030   3.088  0.1319 -0.8190  1.1484
 7723TIP3    H244585   3.318   3.107   3.214  1.1534 -0.0597  0.4445
 7724TIP3   OH244586   3.684   5.675   4.501  0.1138  0.0132 -0.0017
 7724TIP3    H144587   3.682   5.703   4.593  0.8764  1.7043 -0.4536
 7724TIP3    H244588   3.599   5.701   4.466  0.1006  0.0359  0.0465
 7725TIP3   OH244589   0.812   5.046  16.477 -0.0802  0.1271 -0.0045
 7725TIP3    H144590   0.837   4.972  16.421 -0.1881  0.6060 -0.6940
 7725TIP3    H244591   0.810   5.121  16.418  1.1453  0.9052  0.8980
 7726TIP3   OH244592   6.426   3.151   2.743 -0.2259  0.3411  0.1739
 7726TIP3    H144593   6.504   3.119   2.790 -0.3103 -1.7698 -0.9867
 7726TIP3    H244594   6.424   3.245   2.761  2.2027  0.3453  0.8096
 7727TIP3   OH244595   1.611   5.121  17.235 -0.6057  0.1238 -0.3470
 7727TIP3    H144596   1.548   5.050  17.223  1.0091 -1.3593 -0.4829
 7727TIP3    H244597   1.676   5.107  17.167  1.0277  0.2778  1.1242
 7728TIP3   OH244598   1.140   4.081  16.163  0.4320 -0.3702 -0.2994
 7728TIP3    H144599   1.095   4.058  16.244  0.7649 -0.2030 -0.0682
 7728TIP3    H244600   1.179   3.999  16.133 -0.5317 -0.6528 -0.8229
 7729TIP3   OH244601   3.249   1.895  14.048 -0.2627 -0.0152  0.6085
 7729TIP3    H144602   3.167   1.912  14.094 -1.3887  1.4252 -1.7343
 7729TIP3    H244603   3.257   1.968  13.987  1.6937 -1.2387 -0.6878
 7730TIP3   OH244604   5.550   4.967   4.034 -0.5145  0.1256  0.1285
 7730TIP3    H144605   5.574   4.950   3.943 -1.9156 -0.7964 -0.1061
 7730TIP3    H244606   5.519   4.883   4.067  0.6039  0.2904  1.6841
 7731TIP3   OH244607   5.407   2.892  15.558  0.3048  0.2763 -0.3404
 7731TIP3    H144608   5.463   2.844  15.498  1.4218 -0.1903  1.0318
 7731TIP3    H244609   5.396   2.978  15.517  0.4648 -0.2568 -1.5296
 7732TIP3   OH244610   1.855   2.804   2.199 -0.0837 -0.2442  0.2078
 7732TIP3    H144611   1.922   2.826   2.135 -0.8557 -0.8358 -0.8329
 7732TIP3    H244612   1.883   2.847   2.280  2.1975 -1.4481  0.1470
 7733TIP3   OH244613   4.772   0.627   2.722  0.2181  0.0199  0.1614
 7733TIP3    H144614   4.801   0.678   2.798 -0.7068 -0.1395  0.6281
 7733TIP3    H244615   4.677   0.635   2.723  0.2354  0.6852 -1.4621
 7734TIP3   OH244616   6.062   2.388   3.130  0.3490 -0.6179  0.3847
 7734TIP3    H144617   6.145   2.409   3.088  0.2385 -1.2511 -0.1589
 7734TIP3    H244618   6.081   2.391   3.224  0.4526  1.4077  0.3411
 7735TIP3   OH244619   3.336   4.164  16.029 -0.9921 -0.0587  0.0655
 7735TIP3    H144620   3.377   4.129  15.950  2.6447  2.7877  0.4506
 7735TIP3    H244621   3.293   4.244  16.000 -2.5182 -0.6753  0.5126
 7736TIP3   OH244622   6.158   0.966   0.793  0.2828  0.1706 -0.4540
 7736TIP3    H144623   6.114   0.995   0.714  2.2060  2.1718 -0.8691
 7736TIP3    H244624   6.250   0.990   0.781  0.8819 -0.6383  1.8464
 7737TIP3   OH244625   1.749   6.756   1.233  0.5120  0.3536 -0.3670
 7737TIP3    H144626   1.838   6.735   1.263 -0.0667 -1.5872  0.1411
 7737TIP3    H244627   1.757   6.759   1.138  0.5428 -3.4596 -0.6415
 7738TIP3   OH244628   0.296   3.542  15.252 -0.4126  0.1120  0.0914
 7738TIP3    H144629   0.291   3.627  15.208  2.2091  0.4374  0.2927
 7738TIP3    H244630   0.264   3.559  15.341 -0.5592  0.7240 -0.0742
 7739TIP3   OH244631   5.214   0.730  11.647  0.1780 -0.1545 -0.1924
 7739TIP3    H144632   5.184   0.643  11.672  1.3057 -0.4288  0.2736
 7739TIP3    H244633   5.184   0.741  11.557  0.3773 -1.2079 -0.4012
 7740TIP3   OH244634   4.301   5.660  14.121  0.1054  0.0385  0.9513
 7740TIP3    H144635   4.359   5.735  14.104  0.7519 -0.5897  0.3031
 7740TIP3    H244636   4.361   5.587  14.134 -0.5333 -0.4567  1.1269
 7741TIP3   OH244637   6.480   5.016   1.657  0.1366 -0.4479 -0.1216
 7741TIP3    H144638   6.527   5.075   1.597  0.2835 -0.7817 -0.3402
 7741TIP3    H244639   6.419   4.969   1.600 -0.0955 -0.3893  0.0790
 7742TIP3   OH244640   1.587   2.398   1.468  0.4172  0.3294 -0.8585
 7742TIP3    H144641   1.623   2.321   1.512 -0.4411  1.0472  1.2611
 7742TIP3    H244642   1.661   2.436   1.420  1.4046 -0.5679 -0.0915
 7743TIP3   OH244643   6.423   1.528  14.850  0.3871 -0.3294 -0.0421
 7743TIP3    H144644   6.480   1.581  14.906  1.6361 -0.7679 -0.8631
 7743TIP3    H244645   6.480   1.498  14.779 -1.1370  0.1838 -1.5420
 7744TIP3   OH244646   6.592   3.916  15.064  0.8183 -0.1120 -0.1733
 7744TIP3    H144647   6.645   3.953  15.135  1.1182  0.4300 -0.6773
 7744TIP3    H244648   6.607   3.821  15.070  1.5891  0.0113 -0.1088
 7745TIP3   OH244649   2.493   4.215   4.838  0.4873 -0.0574  0.3028
 7745TIP3    H144650   2.569   4.269   4.818  0.0162  0.0991 -1.2084
 7745TIP3    H244651   2.496   4.144   4.773 -1.7799  1.1314 -1.2301
 7746TIP3   OH244652   1.940   0.679  13.643 -0.0276 -0.0977 -0.3387
 7746TIP3    H144653   2.030   0.651  13.625  0.0280  0.0774 -0.3317
 7746TIP3    H244654   1.892   0.656  13.563 -0.4086 -2.0164  0.3808
 7747TIP3   OH244655   6.545   6.399   6.494  0.3111 -0.6889  0.2943
 7747TIP3    H144656   6.551   6.329   6.429  1.9054 -0.5172  0.2088
 7747TIP3    H244657   6.528   6.478   6.443 -1.4572 -0.9705  0.3876
 7748TIP3   OH244658   5.951   4.562   4.515  0.5982  0.0687 -0.2239
 7748TIP3    H144659   6.007   4.543   4.590 -0.9126  0.7147  1.1313
 7748TIP3    H244660   6.002   4.623   4.462  2.5424 -1.9688 -0.8738
 7749TIP3   OH244661   2.087   6.143  11.392 -0.9940 -0.0231  0.1641
 7749TIP3    H144662   2.134   6.066  11.361 -0.2266  0.3761  0.3054
 7749TIP3    H244663   2.076   6.198  11.314 -0.7928  0.0936  0.2132
 7750TIP3   OH244664   6.520   2.234   2.942  0.8124  0.0064  0.3013
 7750TIP3    H144665   6.494   2.221   3.033 -0.5053 -0.8637 -0.1835
 7750TIP3    H244666   6.538   2.146   2.908  0.1669  0.2119 -0.6023
 7751TIP3   OH244667   2.699   0.041   0.094 -0.3447 -0.0126  0.5387
 7751TIP3    H144668   2.665   0.073   0.011 -1.9347 -0.9947  0.7601
 7751TIP3    H244669   2.719   0.120   0.145  1.2589  0.6115 -0.9560
 7752TIP3   OH244670   3.056   3.107   1.958  0.4973 -0.0985 -0.1134
 7752TIP3    H144671   3.035   3.195   1.988  0.6600  0.2738 -1.0744
 7752TIP3    H244672   3.005   3.049   2.015 -0.9272  0.6669 -0.5674
 7753TIP3   OH244673   4.357   2.215   1.105  0.2722  0.5683 -0.4746
 7753TIP3    H144674   4.336   2.198   1.014 -0.1575 -0.2841 -0.2285
 7753TIP3    H244675   4.415   2.291   1.103 -0.0190  0.7777 -1.4237
 7754TIP3   OH244676   4.141   3.263   4.731  0.5716  0.2531  0.9632
 7754TIP3    H144677   4.221   3.306   4.762  0.3330  1.4423  0.0036
 7754TIP3    H244678   4.159   3.242   4.640  0.6246 -1.6067  1.3676
 7755TIP3   OH244679   4.826   1.578  16.910 -0.5040 -0.2710 -0.3141
 7755TIP3    H144680   4.868   1.653  16.868  0.0608 -0.3252  0.1422
 7755TIP3    H244681   4.810   1.606  17.000  0.8652 -1.1078  0.2240
 7756TIP3   OH244682   4.157   2.996   4.845  0.1574  0.4193  0.3310
 7756TIP3    H144683   4.127   3.086   4.861  0.8913  0.7444 -0.0660
 7756TIP3    H244684   4.077   2.946   4.832 -0.2199  1.5226 -2.1687
 7757TIP3   OH244685   2.660   0.960  14.900  0.0868 -0.0765 -0.1959
 7757TIP3    H144686   2.652   0.912  14.818  1.3684 -0.7222  0.0322
 7757TIP3    H244687   2.570   0.974  14.928 -0.3550 -0.3476 -1.4243
 7758TIP3   OH244688   0.231   5.483  16.960 -0.0711 -0.6660 -0.2031
 7758TIP3    H144689   0.243   5.425  17.036 -1.0927 -1.3159 -0.5285
 7758TIP3    H244690   0.136   5.496  16.955  0.1547  1.6112  0.2778
 7759TIP3   OH244691   4.991   0.660  14.576  0.1215 -0.3704 -0.4365
 7759TIP3    H144692   5.048   0.601  14.625 -0.6520 -1.2829 -0.6002
 7759TIP3    H244693   5.027   0.660  14.487 -0.0137 -0.7970 -0.4934
 7760TIP3   OH244694   2.099   2.547   3.372 -0.1570  0.7887 -0.6308
 7760TIP3    H144695   2.178   2.574   3.325  0.3695 -0.9020 -0.7768
 7760TIP3    H244696   2.123   2.557   3.464  1.7256 -3.2186 -0.4680
 7761TIP3   OH244697   1.221   6.290  12.595  0.2300 -0.0134  0.0769
 7761TIP3    H144698   1.146   6.265  12.542  0.2865  0.0124 -0.0148
 7761TIP3    H244699   1.183   6.326  12.675  0.1464 -0.4792  0.2547
 7762TIP3   OH244700   5.520   5.164  13.910  0.4075  0.8575  0.0583
 7762TIP3    H144701   5.499   5.119  13.828  1.8980 -1.5747  0.8794
 7762TIP3    H244702   5.602   5.210  13.892  0.5610  0.5910  0.0603
 7763TIP3   OH244703   5.756   0.354  12.329 -0.4203 -0.2485 -0.4932
 7763TIP3    H144704   5.841   0.335  12.368 -0.6883 -1.9361 -0.6360
 7763TIP3    H244705   5.726   0.433  12.374  0.6017 -0.4198  0.5485
 7764TIP3   OH244706   3.722   5.023  12.020  0.4241 -0.2065 -0.0793
 7764TIP3    H144707   3.814   5.049  12.015  0.6579 -0.3491  2.4598
 7764TIP3    H244708   3.674   5.102  11.996  1.1751 -0.2333 -1.7890
 7765TIP3   OH244709   0.781   4.623  10.695 -0.7343 -0.0138 -1.1766
 7765TIP3    H144710   0.780   4.531  10.671 -0.4545 -0.2980 -0.1327
 7765TIP3    H244711   0.857   4.660  10.649  1.3992 -1.1182  1.2214
 7766TIP3   OH244712   0.463   6.294   4.782 -0.2262 -0.0190  0.2593
 7766TIP3    H144713   0.462   6.339   4.698 -1.4136 -1.5825 -0.6049
 7766TIP3    H244714   0.413   6.352   4.840  1.2319  1.4320  0.1356
 7767TIP3   OH244715   1.672   1.527   1.833 -0.4302 -0.5332 -0.4703
 7767TIP3    H144716   1.591   1.483   1.860 -1.5814  1.7165  0.0152
 7767TIP3    H244717   1.650   1.567   1.749  0.7774 -1.3692 -1.2037
 7768TIP3   OH244718   3.740   0.234   4.560  0.0885 -0.1719  0.3145
 7768TIP3    H144719   3.683   0.208   4.633 -1.2798  0.2188 -0.5849
 7768TIP3    H244720   3.793   0.157   4.542 -0.2653 -0.6012  1.0726
 7769TIP3   OH244721   5.366   0.516   5.099 -0.1931 -0.1928 -0.1020
 7769TIP3    H144722   5.401   0.455   5.035  0.9499  0.8266 -0.4930
 7769TIP3    H244723   5.318   0.580   5.047  0.7477  0.6436  0.0199
 7770TIP3   OH244724   4.828   3.546  12.288 -0.0280  0.4146  0.0768
 7770TIP3    H144725   4.875   3.569  12.208 -1.3611 -2.0109 -1.5488
 7770TIP3    H244726   4.866   3.463  12.316 -1.0510  0.1080  0.6372
 7771TIP3   OH244727   3.495   6.123   2.919 -0.1870  0.1694  0.0733
 7771TIP3    H144728   3.536   6.039   2.896 -0.4739 -0.2718  1.1280
 7771TIP3    H244729   3.556   6.164   2.980 -0.7737  0.0145  0.7781
 7772TIP3   OH244730   2.092   2.633  14.055 -0.2684 -0.1149  0.5028
 7772TIP3    H144731   2.057   2.543  14.060 -0.0117 -0.1541  3.2783
 7772TIP3    H244732   2.037   2.683  14.116  1.2914  0.9723  1.0698
 7773TIP3   OH244733   4.307   2.221   0.151 -0.1540 -0.6888  0.3313
 7773TIP3    H144734   4.255   2.299   0.133 -0.1048 -0.3814  1.4199
 7773TIP3    H244735   4.243   2.151   0.163 -0.2494 -0.6173  0.2332
 7774TIP3   OH244736   1.623   0.855   4.878 -0.7701  0.5068  0.2235
 7774TIP3    H144737   1.634   0.833   4.971  1.5110 -0.4265 -0.1968
 7774TIP3    H244738   1.696   0.914   4.859 -1.5103  1.1056 -0.8834
 7775TIP3   OH244739   0.077   1.098  17.199 -0.0134 -0.8878  0.0858
 7775TIP3    H144740   0.044   1.178  17.240  1.4005 -0.6482  0.8326
 7775TIP3    H244741   0.060   1.029  17.262 -1.1884 -1.1850 -0.5371
 7776TIP3   OH244742   6.219   2.272  11.390  0.2910  0.2385 -0.0723
 7776TIP3    H144743   6.140   2.274  11.336  1.1801  1.1836 -1.4070
 7776TIP3    H244744   6.238   2.179  11.401 -1.5882 -0.0466  1.2124
 7777TIP3   OH244745   2.633   6.408   5.876 -0.4308 -0.2279  0.2501
 7777TIP3    H144746   2.622   6.344   5.805 -3.1185 -0.7405  0.9992
 7777TIP3    H244747   2.601   6.363   5.954 -2.0859  1.8259  0.8618
 7778TIP3   OH244748   1.962   5.725  16.450  0.5690 -0.2146  0.2378
 7778TIP3    H144749   1.943   5.704  16.358  0.7896  1.0642 -0.1176
 7778TIP3    H244750   1.879   5.758  16.484  0.1241 -1.9149  0.8955
 7779TIP3   OH244751   4.232   6.416  15.575 -0.1017 -0.3294 -0.6007
 7779TIP3    H144752   4.229   6.417  15.670  1.6652  1.3152 -0.5054
 7779TIP3    H244753   4.154   6.367  15.549  0.5727 -2.9122  1.7125
 7780TIP3   OH244754   2.881   0.835  16.618 -0.0185  0.1567  0.0944
 7780TIP3    H144755   2.949   0.889  16.577  0.9693 -0.6878  0.5668
 7780TIP3    H244756   2.818   0.897  16.653 -0.1600  0.9428 -1.4459
 7781TIP3   OH244757   3.103   1.461   2.786 -0.4534  0.3720 -0.2403
 7781TIP3    H144758   3.015   1.423   2.783 -1.1261  1.7703  0.9518
 7781TIP3    H244759   3.118   1.492   2.696  0.3785 -3.0925 -1.4530
 7782TIP3   OH244760   4.544   0.366  16.607  0.1563 -0.5925  0.1657
 7782TIP3    H144761   4.475   0.398  16.665  0.9376  0.9927  0.2897
 7782TIP3    H244762   4.623   0.366  16.661  0.9413  1.1445 -0.8946
 7783TIP3   OH244763   4.490   1.279  12.325  0.0805  0.6254  0.1395
 7783TIP3    H144764   4.409   1.301  12.279  0.6210  0.1074 -1.0873
 7783TIP3    H244765   4.556   1.339  12.289  0.7391 -0.4715 -0.5556
 7784TIP3   OH244766   4.125   5.047  14.402 -0.9086  0.0910  0.0742
 7784TIP3    H144767   4.111   5.046  14.496 -0.4373  1.1010  0.1694
 7784TIP3    H244768   4.037   5.047  14.364 -1.1000  0.0231  0.5222
 7785TIP3   OH244769   0.612   4.825  10.824  0.6737  0.5032 -0.3603
 7785TIP3    H144770   0.641   4.777  10.746  0.2347 -2.1158  0.9581
 7785TIP3    H244771   0.556   4.763  10.871  1.4828  1.6850  2.3894
 7786TIP3   OH244772   1.277   4.821  15.656  0.4317  0.2524  0.1071
 7786TIP3    H144773   1.307   4.856  15.740  0.3528 -0.9603  0.6739
 7786TIP3    H244774   1.343   4.755  15.634 -0.3529 -0.4968 -0.0171
 7787TIP3   OH244775   5.186   5.010   2.052 -0.0240 -0.0876 -0.0817
 7787TIP3    H144776   5.135   4.959   1.990  0.5678 -0.6866 -0.0928
 7787TIP3    H244777   5.261   5.041   2.001 -0.6515  1.2865 -0.2250
 7788TIP3   OH244778   5.900   6.038   1.523  0.2522 -0.3512 -0.0790
 7788TIP3    H144779   5.902   5.966   1.586  1.2461 -0.7499 -0.5362
 7788TIP3    H244780   5.809   6.042   1.494 -0.2424 -0.0888  1.4449
 7789TIP3   OH244781   2.351   4.909   2.264 -0.2005 -0.9988  0.8457
 7789TIP3    H144782   2.412   4.839   2.289  0.2157 -0.9835 -0.0962
 7789TIP3    H244783   2.407   4.979   2.232 -0.7370 -1.3728 -0.9927
 7790TIP3   OH244784   4.185   0.092   0.390 -0.5746 -0.3372  0.0352
 7790TIP3    H144785   4.274   0.073   0.421  0.0801 -0.4434 -1.7885
 7790TIP3    H244786   4.183   0.188   0.381 -0.5025 -0.3672 -0.3108
 7791TIP3   OH244787   4.996   2.011   4.542  0.2129  0.9292 -0.1219
 7791TIP3    H144788   5.012   2.103   4.560  1.3487  1.4034 -3.0784
 7791TIP3    H244789   5.070   1.965   4.582 -0.9083  1.0749  2.3198
 7792TIP3   OH244790   2.992   0.837   1.990  0.6794 -0.1659  0.3697
 7792TIP3    H144791   3.050   0.909   1.963  0.5428  0.0730  0.7003
 7792TIP3    H244792   2.996   0.838   2.086 -1.0757  0.8659  0.4780
 7793TIP3   OH244793   3.380   1.652   3.934 -0.4576  0.0496  0.5114
 7793TIP3    H144794   3.423   1.599   3.868  0.2226 -1.0593  1.7977
 7793TIP3    H244795   3.290   1.661   3.903 -0.1107 -0.3092 -0.6223
 7794TIP3   OH244796   0.764   3.467   4.447 -0.3129  0.2166  0.9748
 7794TIP3    H144797   0.809   3.551   4.438  0.4468 -0.2278  0.5242
 7794TIP3    H244798   0.821   3.415   4.504  0.3431 -0.7442 -0.4972
 7795TIP3   OH244799   4.383   0.556   3.227  0.2283 -0.3794  0.4726
 7795TIP3    H144800   4.328   0.480   3.247  0.3109 -0.4918  0.2762
 7795TIP3    H244801   4.472   0.524   3.236  0.2719  0.1810  2.2106
 7796TIP3   OH244802   3.206   3.050   3.385  0.2803  0.6316  0.4802
 7796TIP3    H144803   3.180   3.072   3.474 -1.1697  2.6826 -0.3924
 7796TIP3    H244804   3.178   2.959   3.373  0.3331  0.3955  2.0265
 7797TIP3   OH244805   0.330   1.130  14.456 -0.6933  0.2617  0.1880
 7797TIP3    H144806   0.268   1.201  14.473 -0.3972  0.0983  2.1878
 7797TIP3    H244807   0.354   1.098  14.543  1.2679 -0.4965 -0.5850
 7798TIP3   OH244808   0.852   0.949   5.653  0.6757  0.8428 -0.5034
 7798TIP3    H144809   0.815   0.926   5.738  0.5842 -1.7077 -1.1594
 7798TIP3    H244810   0.940   0.982   5.674  0.6707  0.2258  0.5918
 7799TIP3   OH244811   6.041   6.695   5.915 -0.2205 -0.2046  0.3188
 7799TIP3    H144812   5.946   6.690   5.903 -0.4612  0.0367  1.9620
 7799TIP3    H244813   6.066   6.780   5.878 -0.5997 -0.3461 -0.2824
 7800TIP3   OH244814   2.549   4.853  14.636 -0.1128  0.0856 -0.2205
 7800TIP3    H144815   2.640   4.872  14.660  0.0524  0.1498 -0.8926
 7800TIP3    H244816   2.555   4.815  14.549 -0.6457 -0.9281  0.1758
 7801TIP3   OH244817   4.962   6.546  15.566 -0.1148 -0.0683  0.1036
 7801TIP3    H144818   5.057   6.561  15.560 -0.1624  1.1643  1.7059
 7801TIP3    H244819   4.954   6.464  15.614  0.1270 -0.7322 -0.9634
 7802TIP3   OH244820   4.529   6.755  13.917  0.0265  0.4486 -0.2001
 7802TIP3    H144821   4.523   6.690  13.987 -0.1855  0.4137 -0.2478
 7802TIP3    H244822   4.619   6.748  13.885  0.3597  1.0164  0.5959
 7803TIP3   OH244823   6.646   2.214   4.846  0.9170 -0.1491 -0.0659
 7803TIP3    H144824   6.640   2.289   4.906  1.4227 -0.8818  0.9189
 7803TIP3    H244825   6.555   2.200   4.818  0.8520  1.0157 -0.5100
 7804TIP3   OH244826   4.100   4.711  14.905  0.0672  0.4475  0.1339
 7804TIP3    H144827   4.097   4.677  14.815  0.2917 -1.8721  0.9310
 7804TIP3    H244828   4.012   4.697  14.939  0.7826 -1.8742  1.2688
 7805TIP3   OH244829   6.282   5.572  15.235  0.7034 -0.3024 -0.6204
 7805TIP3    H144830   6.247   5.659  15.214  0.5302 -0.2571 -0.1603
 7805TIP3    H244831   6.377   5.583  15.230  0.7241  0.2412  0.6475
 7806TIP3   OH244832   0.922   0.451   3.270  0.2667 -0.4329 -0.4825
 7806TIP3    H144833   0.875   0.527   3.302  1.3053 -0.0328  0.1330
 7806TIP3    H244834   1.015   0.473   3.281  0.6122 -2.4094  1.2995
 7807TIP3   OH244835   1.690   5.420  12.955  0.4676 -0.2810 -0.1982
 7807TIP3    H144836   1.718   5.334  12.925  0.8382  0.2546 -1.4215
 7807TIP3    H244837   1.738   5.434  13.037  1.2908 -0.7382 -0.6012
 7808TIP3   OH244838   4.462   0.176   5.979 -0.0968 -0.0689  0.0133
 7808TIP3    H144839   4.460   0.099   6.035 -2.2818 -0.6871 -0.8065
 7808TIP3    H244840   4.448   0.142   5.891  1.5039  1.0494 -0.7353
 7809TIP3   OH244841   0.358   0.615   0.819 -0.5608 -0.6275 -0.0463
 7809TIP3    H144842   0.369   0.648   0.908 -0.7406 -0.7522  0.0222
 7809TIP3    H244843   0.397   0.682   0.763  0.1143 -0.8428  0.1647
 7810TIP3   OH244844   1.385   0.184   1.288 -0.0063  0.3578 -0.2095
 7810TIP3    H144845   1.326   0.109   1.282  1.1496 -0.7183  1.2496
 7810TIP3    H244846   1.442   0.164   1.361  2.0078  1.4894 -1.3867
 7811TIP3   OH244847   1.815   6.739   0.972  0.1044  0.1250 -0.0351
 7811TIP3    H144848   1.903   6.758   0.942 -0.4463  1.9412 -0.6052
 7811TIP3    H244849   1.776   6.685   0.903  0.4893  0.0013 -0.1559
 7812TIP3   OH244850   4.375   4.237   4.331  0.0752  0.0699 -0.5027
 7812TIP3    H144851   4.309   4.212   4.267  0.4588 -0.6640 -0.6259
 7812TIP3    H244852   4.447   4.272   4.279 -0.3828  1.3030 -0.3417
 7813TIP3   OH244853   1.208   4.614  11.997  0.1596 -0.4345 -0.4536
 7813TIP3    H144854   1.169   4.592  11.912  0.1256  0.3575 -0.6604
 7813TIP3    H244855   1.299   4.637  11.975  0.2906 -0.7174 -0.2032
 7814TIP3   OH244856   3.913   0.886   3.510 -0.6318  0.2049  0.2275
 7814TIP3    H144857   3.982   0.819   3.510  0.0027  0.8502  1.0406
 7814TIP3    H244858   3.854   0.861   3.581 -0.9062  0.0067 -0.0635
 7815TIP3   OH244859   0.658   4.811  13.454  0.6800 -0.3175 -0.3619
 7815TIP3    H144860   0.630   4.899  13.479  0.6935 -0.1628 -0.8815
 7815TIP3    H244861   0.737   4.795  13.507  2.1570  0.9802 -2.0319
 7816TIP3   OH244862   6.488   5.936  16.922  0.3985 -0.4727 -0.2718
 7816TIP3    H144863   6.477   5.951  17.016  1.0318 -0.3074 -0.2224
 7816TIP3    H244864   6.411   5.977  16.882  1.8538  2.7379 -0.1238
 7817TIP3   OH244865   6.094   6.772   3.293  0.3199 -0.0383  0.3073
 7817TIP3    H144866   6.011   6.774   3.246  1.0353 -1.1204 -1.0558
 7817TIP3    H244867   6.079   6.713   3.367 -0.2359  0.0681  0.2786
 7818TIP3   OH244868   0.192   0.752  11.567  0.2645 -0.2096 -0.7898
 7818TIP3    H144869   0.149   0.832  11.597 -2.5408 -1.9855  0.3896
 7818TIP3    H244870   0.259   0.735  11.633  0.0834  0.5401 -0.3975
 7819TIP3   OH244871   1.229   5.033  14.416  0.6374  0.4465 -0.3298
 7819TIP3    H144872   1.249   4.979  14.340  0.9191  1.2639 -0.8483
 7819TIP3    H244873   1.150   4.995  14.453  0.2954  0.2545 -1.2445
 7820TIP3   OH244874   5.282   3.055  13.414  0.1331  0.9749  0.2978
 7820TIP3    H144875   5.353   3.087  13.358 -0.6166  2.4850  0.1671
 7820TIP3    H244876   5.304   3.087  13.501  1.3225 -1.4107  0.9766
 7821TIP3   OH244877   5.102   0.863   5.570 -0.1120  0.2077  0.0860
 7821TIP3    H144878   5.113   0.921   5.495  2.9522 -2.4729 -1.8106
 7821TIP3    H244879   5.094   0.775   5.532 -0.2090 -1.1179  2.8638
 7822TIP3   OH244880   5.635   2.140   0.053 -0.3169  0.8653 -0.2061
 7822TIP3    H144881   5.708   2.192   0.086  0.1739  0.8827 -1.2812
 7822TIP3    H244882   5.670   2.051   0.047 -0.8997  0.5475  0.8345
 7823TIP3   OH244883   5.520   5.715  17.250  0.5771 -0.6482 -0.0779
 7823TIP3    H144884   5.514   5.750  17.339  0.3537 -1.1279  0.1016
 7823TIP3    H244885   5.431   5.689  17.229  1.0195 -2.9360  0.5628
 7824TIP3   OH244886   0.222   2.470   5.202  0.0845 -0.2231 -0.4092
 7824TIP3    H144887   0.160   2.470   5.129  0.9927  0.6110 -1.2007
 7824TIP3    H244888   0.223   2.560   5.233 -0.7141 -0.6753  1.0348
 7825TIP3   OH244889   0.156   6.625   0.662 -0.7678 -0.2295 -0.4355
 7825TIP3    H144890   0.115   6.648   0.579  0.8308 -1.2485 -1.5681
 7825TIP3    H244891   0.222   6.559   0.639  0.0623 -0.1756  1.5692
 7826TIP3   OH244892   5.238   3.482  14.274  0.4073  0.7865  0.0239
 7826TIP3    H144893   5.288   3.509  14.351 -2.6385  1.3651  2.0083
 7826TIP3    H244894   5.228   3.561  14.222 -1.6206  1.7169  1.6658
 7827TIP3   OH244895   3.486   5.803   6.158  0.2358 -0.1647  0.3801
 7827TIP3    H144896   3.479   5.710   6.180 -0.5397 -0.2924 -0.3524
 7827TIP3    H244897   3.492   5.848   6.242  1.4943 -0.9390  0.7225
 7828TIP3   OH244898   0.275   4.325  13.519 -0.2567 -0.2317  0.4089
 7828TIP3    H144899   0.187   4.360  13.504  0.1924  0.6829 -0.1662
 7828TIP3    H244900   0.271   4.236  13.484 -0.3962  0.4830 -1.4850
 7829TIP3   OH244901   5.584   3.061  13.094  0.1699  0.1149  0.5024
 7829TIP3    H144902   5.496   3.033  13.068  0.4487  0.4334 -0.8591
 7829TIP3    H244903   5.584   3.055  13.189 -1.3515  0.1833  0.5294
 7830TIP3   OH244904   5.323   6.203  11.554 -0.2994  0.0646  0.3602
 7830TIP3    H144905   5.332   6.133  11.619  1.1841  0.3627  0.5013
 7830TIP3    H244906   5.273   6.271  11.600 -0.1472 -0.1462  0.8518
 7831TIP3   OH244907   6.763   1.839   5.866 -0.6877  0.2585  0.0693
 7831TIP3    H144908   6.841   1.797   5.831 -0.6128  1.3318 -1.0959
 7831TIP3    H244909   6.727   1.774   5.927  0.3069 -0.8256 -0.4566
 7832TIP3   OH244910   4.049   3.478   4.977 -0.2916 -0.3309 -0.2665
 7832TIP3    H144911   4.091   3.411   5.031 -2.2398 -0.2013  1.5397
 7832TIP3    H244912   4.080   3.561   5.012 -1.0841 -0.2551  0.2855
 7833TIP3   OH244913   3.370   1.581  15.547  0.0251 -0.2686 -0.0958
 7833TIP3    H144914   3.433   1.629  15.495 -1.7219  0.6030 -1.4943
 7833TIP3    H244915   3.285   1.605  15.512 -1.0864 -2.0781  1.1315
 7834TIP3   OH244916   6.424   5.680  16.844 -0.4532  0.3843  0.7668
 7834TIP3    H144917   6.485   5.753  16.857  0.8683 -0.6368  0.4607
 7834TIP3    H244918   6.422   5.668  16.749 -2.5439  1.5363  0.6050
 7835TIP3   OH244919   3.591   2.162  13.732  0.1818 -0.4567 -0.0741
 7835TIP3    H144920   3.513   2.134  13.683 -0.5270 -1.0829  1.3549
 7835TIP3    H244921   3.562   2.166  13.823  1.6522 -0.0118  0.3992
 7836TIP3   OH244922   0.337   5.633  15.551  0.0459 -0.2418 -0.3930
 7836TIP3    H144923   0.427   5.608  15.528  0.0834  0.3027 -0.8528
 7836TIP3    H244924   0.294   5.645  15.467  0.1401  1.6436 -0.2075
 7837TIP3   OH244925   0.912   6.320   1.827 -0.3567  0.2908  0.6347
 7837TIP3    H144926   0.954   6.354   1.748  0.2064  1.4558  1.4109
 7837TIP3    H244927   0.983   6.275   1.874 -0.7186 -0.5125  0.4203
 7838TIP3   OH244928   4.242   2.781  13.575  0.0458 -0.0800 -0.3925
 7838TIP3    H144929   4.157   2.812  13.607  0.2900 -0.3767  0.5870
 7838TIP3    H244930   4.256   2.828  13.493 -0.4771  0.9546  0.0916
 7839TIP3   OH244931   2.482   0.581   4.863 -0.4735  0.0453  0.2489
 7839TIP3    H144932   2.508   0.527   4.938 -1.7089  0.5634  1.0936
 7839TIP3    H244933   2.545   0.560   4.795 -0.1156 -1.4404  1.0005
 7840TIP3   OH244934   1.005   5.719   6.316  0.0080 -1.0531  0.1918
 7840TIP3    H144935   0.964   5.753   6.396 -1.9597  0.6264 -1.4067
 7840TIP3    H244936   1.095   5.752   6.319 -1.1067  2.4022 -0.0426
 7841TIP3   OH244937   3.356   2.301   4.841 -0.8952 -0.0574 -0.0261
 7841TIP3    H144938   3.306   2.366   4.890 -1.2961  0.1176 -0.6578
 7841TIP3    H244939   3.312   2.295   4.756 -1.2665 -1.6071  0.2328
 7842TIP3   OH244940   2.709   1.349   3.188  0.1410  0.1511 -0.0003
 7842TIP3    H144941   2.626   1.378   3.225 -0.6143 -1.0356 -0.6787
 7842TIP3    H244942   2.776   1.386   3.246 -0.8519  1.0874  0.5850
 7843TIP3   OH244943   1.113   2.790   2.882 -0.8321  0.3377 -0.2403
 7843TIP3    H144944   1.080   2.767   2.795  0.0417  0.5562 -0.6342
 7843TIP3    H244945   1.071   2.873   2.903 -0.6994  0.5114 -0.6534
 7844TIP3   OH244946   3.122   1.144  14.153  0.1309  0.3765  0.0375
 7844TIP3    H144947   3.215   1.139  14.174  0.6143  1.2192 -1.7115
 7844TIP3    H244948   3.112   1.226  14.105 -1.1652 -0.5466 -1.3717
 7845TIP3   OH244949   0.748   6.347  11.868  0.3217 -0.5018  0.3884
 7845TIP3    H144950   0.825   6.398  11.892  1.2833 -1.4486 -0.5898
 7845TIP3    H244951   0.782   6.259  11.852 -0.7667 -0.6459 -1.2866
 7846TIP3   OH244952   5.357   2.777   6.123 -0.2413  0.4079  0.6384
 7846TIP3    H144953   5.271   2.815   6.103 -0.7187 -1.5383 -1.4755
 7846TIP3    H244954   5.337   2.703   6.182  0.0687  0.3331  0.6501
 7847TIP3   OH244955   1.683   0.049   3.254 -0.3689 -0.0941 -0.2275
 7847TIP3    H144956   1.729   0.020   3.175 -1.4533 -1.1890 -0.4934
 7847TIP3    H244957   1.619  -0.020   3.271 -0.0143  0.0204  1.7513
 7848TIP3   OH244958   0.614   6.030  15.670  0.1489  0.1151  0.5645
 7848TIP3    H144959   0.593   6.016  15.762  2.2235  0.6536  1.1938
 7848TIP3    H244960   0.575   6.114  15.649  0.8197  0.6530  1.3903
 7849TIP3   OH244961   2.636   3.996  16.751  0.6554  0.0943 -0.1417
 7849TIP3    H144962   2.595   4.051  16.684 -1.8226 -1.5114 -0.0644
 7849TIP3    H244963   2.635   4.051  16.830 -1.8396  0.0133 -0.0387
 7850TIP3   OH244964   3.013   0.095   0.856 -0.4472  0.3966 -0.2272
 7850TIP3    H144965   3.076   0.115   0.786  2.1354 -0.9893  1.5038
 7850TIP3    H244966   3.065   0.048   0.921 -3.5237 -1.5908  1.0040
 7851TIP3   OH244967   1.272   0.470  11.823  0.0717 -0.8267 -0.1309
 7851TIP3    H144968   1.356   0.486  11.865  1.0110 -1.2760 -1.7506
 7851TIP3    H244969   1.291   0.403  11.757 -1.5012 -0.7397 -0.7048
 7852TIP3   OH244970   4.006   3.357   0.845 -0.1257 -0.3397 -0.1029
 7852TIP3    H144971   3.926   3.364   0.897 -1.1387 -1.3734 -1.4546
 7852TIP3    H244972   4.024   3.447   0.817  0.6434  0.3010  2.2248
 7853TIP3   OH244973   5.776   4.661  11.466 -0.2412  0.1787 -0.0178
 7853TIP3    H144974   5.785   4.688  11.558 -1.1973 -1.4208  0.5914
 7853TIP3    H244975   5.835   4.586  11.458 -0.4862  0.0437 -0.5715
 7854TIP3   OH244976   1.546   1.374   2.467  0.0536  0.2228 -0.5855
 7854TIP3    H144977   1.451   1.380   2.466 -0.0330 -0.7792 -2.2198
 7854TIP3    H244978   1.565   1.280   2.471  0.9911  0.4179  0.1046
 7855TIP3   OH244979   0.108   4.959  10.665 -0.5492  0.8626  0.8290
 7855TIP3    H144980   0.082   4.909  10.742 -1.7356  0.5603  0.2614
 7855TIP3    H244981   0.094   5.051  10.690  1.3529  0.9487  1.7705
 7856TIP3   OH244982   1.401   4.639  13.103 -0.6650  0.1912 -0.1076
 7856TIP3    H144983   1.457   4.593  13.040  0.9752 -0.0864  1.4772
 7856TIP3    H244984   1.375   4.719  13.058  0.2725 -0.0924 -1.2122
 7857TIP3   OH244985   6.295   0.711  16.836 -0.6715 -0.5503  0.0529
 7857TIP3    H144986   6.287   0.622  16.802 -0.3945 -0.3959 -0.4213
 7857TIP3    H244987   6.387   0.719  16.861 -0.8549 -0.6417  0.7990
 7858TIP3   OH244988   0.700   4.459   3.482 -0.0301 -0.5874 -0.0383
 7858TIP3    H144989   0.655   4.491   3.403  0.5911  0.5596  0.0523
 7858TIP3    H244990   0.639   4.396   3.520 -1.7347  1.1442  0.2586
 7859TIP3   OH244991   5.606   0.865   5.224 -0.5403 -0.2148 -0.3879
 7859TIP3    H144992   5.643   0.781   5.251  1.9677  0.9558  0.0179
 7859TIP3    H244993   5.640   0.928   5.287 -1.9133  1.2357 -1.0233
 7860TIP3   OH244994   2.085   1.671  11.797 -0.1415  0.1777  0.2215
 7860TIP3    H144995   2.078   1.752  11.847  2.3395  0.9051 -0.4833
 7860TIP3    H244996   2.078   1.700  11.705  0.7231 -0.3717 -0.0290
 7861TIP3   OH244997   1.550   0.081  13.534  0.4677 -0.4945 -0.2539
 7861TIP3    H144998   1.492   0.157  13.535  0.8871 -0.1710 -0.4042
 7861TIP3    H244999   1.550   0.049  13.625  1.5691  0.6637  0.1745
 7862TIP3   OH245000   5.988   2.882   5.330  0.6976 -0.3858 -0.3878
 7862TIP3    H145001   6.024   2.894   5.242  1.0396 -0.0129 -0.1958
 7862TIP3    H245002   5.893   2.874   5.315  0.8464 -1.4226 -0.8957
 7863TIP3   OH245003   4.476   1.918  15.407  0.2004  0.3159 -0.3919
 7863TIP3    H145004   4.547   1.981  15.414 -0.1491  0.6348  0.3766
 7863TIP3    H245005   4.476   1.871  15.490  0.2824 -0.5237 -0.8478
 7864TIP3   OH245006   2.477   4.322  15.130  0.3743  0.5395 -0.2767
 7864TIP3    H145007   2.396   4.372  15.141  0.9391  1.6895 -1.1537
 7864TIP3    H245008   2.498   4.332  15.037 -0.0941 -2.3067 -0.7662
 7865TIP3   OH245009   0.355   2.838  14.951  0.9595  0.0692  0.1216
 7865TIP3    H145010   0.304   2.853  15.030  1.9538  0.3053  0.7463
 7865TIP3    H245011   0.331   2.750  14.923 -0.7616  0.6725 -0.3758
 7866TIP3   OH245012   1.671   4.104  16.788 -0.2797 -0.4542  0.3372
 7866TIP3    H145013   1.738   4.115  16.855  1.1619 -0.4717 -1.0625
 7866TIP3    H245014   1.705   4.037  16.730 -0.5568  0.9412 -1.5291
 7867TIP3   OH245015   4.778   2.506   4.796  0.5949  0.2150  0.6375
 7867TIP3    H145016   4.703   2.459   4.758  0.0601  0.4995  1.3102
 7867TIP3    H245017   4.835   2.436   4.829  2.5332 -0.2255 -3.1517
 7868TIP3   OH245018   4.049   2.774  12.564  0.1364 -0.4108 -0.0178
 7868TIP3    H145019   3.991   2.837  12.607 -0.2890 -0.7463 -0.0962
 7868TIP3    H245020   4.126   2.771  12.620  0.7153  1.1400 -0.6891
 7869TIP3   OH245021   6.164   5.974  10.911  0.0088 -0.0527  0.1869
 7869TIP3    H145022   6.085   5.921  10.904 -0.3075  0.5409 -1.0881
 7869TIP3    H245023   6.228   5.930  10.856  0.4125 -0.2423  0.7936
 7870TIP3   OH245024   1.802   3.094   3.008 -0.1444  0.4720  0.0682
 7870TIP3    H145025   1.715   3.064   3.037  0.5862  0.2406  2.1756
 7870TIP3    H245026   1.784   3.169   2.952 -1.7204  0.6042  0.6886
 7871TIP3   OH245027   5.256   1.643  15.488 -0.1698 -0.6395 -0.2222
 7871TIP3    H145028   5.310   1.574  15.526  1.7670  0.6870 -0.4515
 7871TIP3    H245029   5.309   1.680  15.418 -1.9473 -0.1773 -1.4009
 7872TIP3   OH245030   0.010   1.117  15.559 -0.6594 -0.3022  0.2028
 7872TIP3    H145031   0.088   1.069  15.532  0.4102  0.4550  1.7919
 7872TIP3    H245032   0.036   1.209  15.558 -0.8395 -0.1529  2.6531
 7873TIP3   OH245033   6.468   5.882   2.751  0.2858 -0.1915  0.0265
 7873TIP3    H145034   6.518   5.914   2.676 -0.4790 -0.1335 -0.4685
 7873TIP3    H245035   6.517   5.806   2.782  0.4549 -0.3890 -0.7134
 7874TIP3   OH245036   1.425   4.366  14.542  0.7215 -0.1304  0.4422
 7874TIP3    H145037   1.447   4.459  14.545  3.4912 -0.7225  1.8006
 7874TIP3    H245038   1.348   4.357  14.598  2.0899  1.0242  2.6585
 7875TIP3   OH245039   5.135   0.509  17.071  0.5709  0.1523  0.1894
 7875TIP3    H145040   5.175   0.478  16.991  1.0183 -0.5321  0.6667
 7875TIP3    H245041   5.155   0.602  17.074  0.0365  0.3028 -0.7831
 7876TIP3   OH245042   5.699   1.060  14.013  0.4069 -0.1806  0.2904
 7876TIP3    H145043   5.684   1.147  14.051  0.1292 -0.2106  0.2512
 7876TIP3    H245044   5.694   1.075  13.918  5.4539  0.8048 -0.1223
 7877TIP3   OH245045   1.481   0.811   2.407  0.0711  0.7154 -0.1304
 7877TIP3    H145046   1.404   0.754   2.401  0.9743 -0.9529  2.2856
 7877TIP3    H245047   1.555   0.754   2.384  0.9766  0.8948  2.0535
 7878TIP3   OH245048   3.288   2.509  14.457 -0.2727  0.5391 -0.0015
 7878TIP3    H145049   3.248   2.560  14.387  0.0465 -0.1662 -0.7139
 7878TIP3    H245050   3.366   2.470  14.417 -0.6920 -0.7754  0.4078
 7879TIP3   OH245051   4.391   2.142   4.758 -0.1676 -0.3176  0.0458
 7879TIP3    H145052   4.324   2.203   4.787 -0.1797 -0.0683 -0.4938
 7879TIP3    H245053   4.343   2.061   4.738 -0.5713  0.3555 -1.9198
 7880TIP3   OH245054   6.197   2.720  13.363 -0.6907  0.5724 -0.2119
 7880TIP3    H145055   6.229   2.725  13.453  0.9077  1.1692 -0.7974
 7880TIP3    H245056   6.268   2.754  13.310 -1.9534  1.0487 -1.6485
 7881TIP3   OH245057   3.834   1.596  17.297 -0.3427 -0.2540 -0.4563
 7881TIP3    H145058   3.802   1.516  17.338  0.9247  0.2079  1.5858
 7881TIP3    H245059   3.925   1.577  17.273  0.4812  0.9804  1.4694
 7882TIP3   OH245060   2.239   5.180  15.243 -0.2332 -0.1066 -0.1968
 7882TIP3    H145061   2.320   5.132  15.224  0.3864  1.0084 -0.5027
 7882TIP3    H245062   2.219   5.159  15.334 -0.5318 -1.7025 -0.6130
 7883TIP3   OH245063   1.097   0.826   3.848  0.3336 -0.1111 -0.5043
 7883TIP3    H145064   1.186   0.793   3.857  0.2050 -0.4103 -0.3301
 7883TIP3    H245065   1.103   0.890   3.777  0.7302  0.0297 -0.3474
 7884TIP3   OH245066   3.054   2.682   1.731 -0.2533 -0.6042 -0.0964
 7884TIP3    H145067   3.050   2.778   1.730 -1.0597 -0.5415 -3.3532
 7884TIP3    H245068   2.979   2.654   1.678  0.5004 -2.9988 -0.0280
 7885TIP3   OH245069   6.043   2.664  12.079 -0.0803  0.0472 -0.4695
 7885TIP3    H145070   5.981   2.697  12.144 -0.9358  0.1296 -1.3000
 7885TIP3    H245071   5.999   2.677  11.995  1.6827  1.5180 -1.2325
 7886TIP3   OH245072   1.623   3.676   2.814  0.0573  0.4582 -0.0585
 7886TIP3    H145073   1.713   3.653   2.793  0.1210 -0.4344  1.0914
 7886TIP3    H245074   1.629   3.721   2.899 -0.4684  1.4137 -0.5095
 7887TIP3   OH245075   5.564   4.873   3.722 -0.0197 -0.0075  0.0261
 7887TIP3    H145076   5.652   4.895   3.693  0.9279 -2.2358  0.9514
 7887TIP3    H245077   5.509   4.891   3.646  1.6263 -0.9851 -1.4877
 7888TIP3   OH245078   6.705   6.109  14.824  0.0193 -0.1325 -0.4683
 7888TIP3    H145079   6.737   6.056  14.751  2.4603 -0.0654  0.4411
 7888TIP3    H245080   6.784   6.151  14.858 -1.3063  1.1136  1.1910
 7889TIP3   OH245081   6.683   1.740  13.615  0.1683 -0.1524  0.0530
 7889TIP3    H145082   6.605   1.793  13.625 -0.0616 -0.5707  0.5431
 7889TIP3    H245083   6.755   1.797  13.643  0.0965  0.3786 -0.8190
 7890TIP3   OH245084   3.164   5.223  15.735 -0.5587 -0.3462  0.5958
 7890TIP3    H145085   3.104   5.202  15.807  2.3852  0.0444  3.4125
 7890TIP3    H245086   3.182   5.316  15.746  0.3290 -0.3928 -0.3513
 7891TIP3   OH245087   0.262   2.133   5.747  0.1013 -0.2282 -0.1699
 7891TIP3    H145088   0.313   2.066   5.793 -0.9223 -1.7415 -1.1713
 7891TIP3    H245089   0.328   2.189   5.706  0.9796 -0.4071  0.9289
 7892TIP3   OH245090   3.199   0.688  12.401 -0.7330  0.0156  0.0924
 7892TIP3    H145091   3.175   0.726  12.316  2.4447 -0.1414 -0.9810
 7892TIP3    H245092   3.233   0.762  12.452 -0.1199 -0.3434  0.2122
 7893TIP3   OH245093   0.363   4.526  17.117 -0.5216  0.4564 -0.2745
 7893TIP3    H145094   0.410   4.484  17.189 -0.5388  0.3428 -0.3289
 7893TIP3    H245095   0.427   4.584  17.076 -0.6162  0.8153  0.0732
 7894TIP3   OH245096   1.962   2.718  12.592  0.2103  0.6130  0.6513
 7894TIP3    H145097   1.972   2.811  12.572 -0.9332  0.8858  1.2737
 7894TIP3    H245098   1.964   2.675  12.507 -0.3512  1.3159  0.2678
 7895TIP3   OH245099   4.588   6.115  12.017 -0.2676 -0.3005 -0.6616
 7895TIP3    H145100   4.561   6.177  11.949 -0.8928 -1.2715 -1.3193
 7895TIP3    H245101   4.592   6.168  12.097  0.3098  0.8232 -1.4042
 7896TIP3   OH245102   4.080   2.163  16.856  0.6953 -0.7234 -0.1511
 7896TIP3    H145103   4.048   2.086  16.903 -0.3078  0.5610  1.3968
 7896TIP3    H245104   4.174   2.166  16.877  0.8850 -1.8453 -0.7462
 7897TIP3   OH245105   0.598   6.352   2.948 -0.1485 -0.5635  0.1595
 7897TIP3    H145106   0.605   6.311   2.861  2.0391 -0.4252  0.2211
 7897TIP3    H245107   0.683   6.394   2.961 -0.8131  0.2883  1.9582
 7898TIP3   OH245108   0.157   4.991   0.783 -0.3381  0.3070  0.1068
 7898TIP3    H145109   0.249   4.983   0.757 -0.1858 -0.4641  0.8431
 7898TIP3    H245110   0.114   4.916   0.741 -0.5294  0.3615  0.2057
 7899TIP3   OH245111   0.457   6.610  11.336  0.0507 -0.0495  0.1020
 7899TIP3    H145112   0.375   6.562  11.336  0.0628 -0.0983 -1.0165
 7899TIP3    H245113   0.436   6.695  11.375 -0.5677 -0.0063 -0.3190
 7900TIP3   OH245114   3.053   1.169  13.106 -0.1639 -0.5350 -0.0350
 7900TIP3    H145115   3.085   1.186  13.194  0.4684 -0.1010 -0.3327
 7900TIP3    H245116   3.086   1.082  13.084  1.6374  0.2295 -0.6557
 7901TIP3   OH245117   2.522   6.654   1.042 -0.8071  0.1389  0.0208
 7901TIP3    H145118   2.534   6.575   1.095 -0.1346  0.0565 -0.2459
 7901TIP3    H245119   2.498   6.621   0.955 -0.6717  0.2339 -0.0520
 7902TIP3   OH245120   3.002   2.770   5.355 -0.2711  0.2235 -0.1998
 7902TIP3    H145121   3.034   2.686   5.323  1.0592 -0.5199  2.7691
 7902TIP3    H245122   2.916   2.750   5.393  0.0157  0.2095  0.4486
 7903TIP3   OH245123   5.886   0.850   4.901  0.5241  0.0188 -0.0259
 7903TIP3    H145124   5.921   0.841   4.990  0.6437 -1.4721 -0.2080
 7903TIP3    H245125   5.926   0.931   4.868 -0.7259  1.4706  1.7951
 7904TIP3   OH245126   6.396   2.331  15.175  0.3687  0.5966  0.3717
 7904TIP3    H145127   6.478   2.338  15.125  0.2608 -1.7872 -0.2586
 7904TIP3    H245128   6.336   2.392  15.131  0.8260 -0.1119 -1.3359
 7905TIP3   OH245129   1.146   0.967  16.677  0.3123 -0.3319 -0.0472
 7905TIP3    H145130   1.086   0.979  16.751  0.2582  0.0567 -0.1484
 7905TIP3    H245131   1.159   1.056  16.643  0.8569 -0.4257 -0.0964
 7906TIP3   OH245132   5.200   5.492   5.533 -0.3281 -0.4088 -0.6887
 7906TIP3    H145133   5.135   5.508   5.465 -0.8044  2.1039  0.2593
 7906TIP3    H245134   5.282   5.523   5.496 -0.6329  1.2062 -0.1010
 7907TIP3   OH245135   0.118   4.512  17.013 -0.3113  0.6947  0.1790
 7907TIP3    H145136   0.128   4.486  16.922  0.5194  0.1240  0.4286
 7907TIP3    H245137   0.198   4.483  17.056  0.3533  2.9983  0.6249
 7908TIP3   OH245138   3.126   3.594  11.818  0.1938  0.4382  0.5014
 7908TIP3    H145139   3.127   3.526  11.750  0.3087 -1.7027  2.5227
 7908TIP3    H245140   3.209   3.640  11.807 -0.2064  0.8017 -1.3639
 7909TIP3   OH245141   6.603   2.456  16.059 -0.3449  0.1229 -0.1946
 7909TIP3    H145142   6.643   2.540  16.080 -0.2370 -0.6446  3.1417
 7909TIP3    H245143   6.675   2.393  16.064 -0.9499 -0.5489  0.3001
 7910TIP3   OH245144   3.821   1.227  11.852  0.0929  0.3101  0.0045
 7910TIP3    H145145   3.888   1.290  11.825  1.2043 -0.3514  1.0927
 7910TIP3    H245146   3.740   1.259  11.811  0.6222  2.3859  0.4573
 7911TIP3   OH245147   0.544   0.387   2.691 -0.1015 -0.3037 -0.8792
 7911TIP3    H145148   0.513   0.312   2.639  0.2643  0.4909 -2.3087
 7911TIP3    H245149   0.544   0.460   2.629  0.6715  0.6225  0.1794
 7912TIP3   OH245150   4.665   6.215   3.991  0.6717  0.2149 -0.3392
 7912TIP3    H145151   4.579   6.177   4.004  0.8029  0.2439  0.7293
 7912TIP3    H245152   4.648   6.306   3.967  0.3828 -0.2056 -1.8057
 7913TIP3   OH245153   6.469   1.610  16.322 -0.4619  0.7870 -0.0847
 7913TIP3    H145154   6.421   1.560  16.256 -1.5904  1.5901  0.0994
 7913TIP3    H245155   6.491   1.545  16.389  0.2493  0.0702 -0.9976
 7914TIP3   OH245156   0.572   1.447  16.429 -0.0404 -0.0766 -0.2181
 7914TIP3    H145157   0.666   1.436  16.420  0.3169  0.5315  1.9481
 7914TIP3    H245158   0.558   1.541  16.416 -0.4822 -0.2996 -1.3909
 7915TIP3   OH245159   6.548   0.609  12.693  0.3473  0.8096 -0.0646
 7915TIP3    H145160   6.514   0.546  12.630 -1.3181  1.1324  0.4490
 7915TIP3    H245161   6.488   0.603  12.768  1.6043  1.2360  1.0222
 7916TIP3   OH245162   3.784   1.243  15.758 -0.4533  0.5276 -0.6916
 7916TIP3    H145163   3.753   1.295  15.683 -0.9487  2.5845  0.8325
 7916TIP3    H245164   3.718   1.258  15.826  0.1596 -1.0027  0.2848
 7917TIP3   OH245165   6.161   4.682   4.372 -0.0751  0.2643  0.5484
 7917TIP3    H145166   6.182   4.690   4.279  0.5621 -0.8680  0.5810
 7917TIP3    H245167   6.186   4.767   4.410 -0.7364  0.8916 -0.3687
 7918TIP3   OH245168   2.287   3.594   3.892  0.3809  0.2189  0.1440
 7918TIP3    H145169   2.244   3.679   3.899 -1.8316 -0.7512 -0.6833
 7918TIP3    H245170   2.361   3.599   3.952 -1.4645  1.6521  2.4435
 7919TIP3   OH245171   1.779   1.026  11.983  0.1278 -0.1427 -0.8992
 7919TIP3    H145172   1.754   0.937  11.959  0.4982 -0.8350  1.1460
 7919TIP3    H245173   1.854   1.016  12.041 -0.9537  1.3714  0.8745
 7920TIP3   OH245174   5.515   5.304  16.326 -0.2256  0.5056 -0.3828
 7920TIP3    H145175   5.549   5.323  16.238 -1.7925  1.9646 -0.7114
 7920TIP3    H245176   5.592   5.275  16.375  0.9541  1.0561 -1.8302
 7921TIP3   OH245177   1.017   5.873   4.067  0.2543  0.1427 -0.0712
 7921TIP3    H145178   1.110   5.893   4.058  0.2068 -0.0182 -1.0553
 7921TIP3    H245179   0.978   5.952   4.103  0.4855  0.8941 -1.4106
 7922TIP3   OH245180   2.778   0.314   0.155 -0.0832 -0.3236  0.0244
 7922TIP3    H145181   2.789   0.322   0.250  0.2281  0.3769 -0.0585
 7922TIP3    H245182   2.868   0.303   0.122 -0.0655  0.6226 -0.2762
 7923TIP3   OH245183   0.745   5.270   3.807 -0.1224  0.0060  0.5814
 7923TIP3    H145184   0.772   5.242   3.894  0.5433  2.1770  1.1287
 7923TIP3    H245185   0.825   5.301   3.765 -0.2929 -1.6775 -1.1434
 7924TIP3   OH245186   5.902   2.104   0.442  0.1468  0.1695 -0.2849
 7924TIP3    H145187   5.850   2.025   0.456  1.3371 -0.8939 -1.5807
 7924TIP3    H245188   5.988   2.084   0.480  0.5731  0.6749 -0.9470
 7925TIP3   OH245189   5.384   2.166  11.752 -0.0805  0.3281  0.0303
 7925TIP3    H145190   5.461   2.120  11.785  0.4396  1.4468  0.3958
 7925TIP3    H245191   5.357   2.115  11.675  0.6756 -0.3860  0.2247
 7926TIP3   OH245192   1.428   4.537   0.430 -0.0138  0.2059 -0.3907
 7926TIP3    H145193   1.412   4.630   0.420  0.7616  0.3350 -0.4759
 7926TIP3    H245194   1.511   4.531   0.477 -0.6164 -0.4336  0.6461
 7927TIP3   OH245195   5.211   3.896   0.317  0.3446 -0.2893  0.5099
 7927TIP3    H145196   5.188   3.923   0.406 -1.2771  1.9284 -0.4913
 7927TIP3    H245197   5.203   3.975   0.264  4.1320 -0.7979 -1.2194
 7928TIP3   OH245198   6.007   0.077  16.380  0.0520 -0.1128 -0.4033
 7928TIP3    H145199   6.038   0.156  16.336 -0.7785 -0.0039 -0.8237
 7928TIP3    H245200   6.050   0.077  16.465 -0.5927  1.2461 -0.0628
 7929TIP3   OH245201   1.144   0.519  12.485 -0.0736 -0.0680 -0.3654
 7929TIP3    H145202   1.172   0.499  12.396 -0.4809  3.6089 -1.4920
 7929TIP3    H245203   1.219   0.563  12.524 -0.9290  1.1073 -0.0064
 7930TIP3   OH245204   0.505   2.617  12.561  0.5401  0.5258  0.2373
 7930TIP3    H145205   0.453   2.666  12.625  0.3025 -1.4092  1.6054
 7930TIP3    H245206   0.446   2.607  12.486  0.0892  1.0844  0.5035
 7931TIP3   OH245207   2.247   0.777  11.767  0.0272  0.1277  0.3317
 7931TIP3    H145208   2.327   0.724  11.759  0.3177  0.5304  0.5923
 7931TIP3    H245209   2.239   0.821  11.682  1.2647  1.7632  1.0332
 7932TIP3   OH245210   2.304   4.262  16.939 -0.5847 -0.4257 -0.3670
 7932TIP3    H145211   2.370   4.221  16.995 -0.8325 -0.3026  0.0224
 7932TIP3    H245212   2.258   4.189  16.898  0.1335 -0.5029 -1.0433
 7933TIP3   OH245213   0.908   2.849   4.283 -0.1907 -0.0296  0.2615
 7933TIP3    H145214   0.878   2.758   4.282 -1.0125  0.2399  0.0301
 7933TIP3    H245215   1.003   2.842   4.292 -0.0777 -0.9488 -1.2738
 7934TIP3   OH245216   4.676   6.684   0.873 -0.1796 -0.1998 -0.0530
 7934TIP3    H145217   4.672   6.597   0.834 -0.8114 -0.6737  1.0182
 7934TIP3    H245218   4.748   6.677   0.936 -0.9272 -0.2940  0.8085
 7935TIP3   OH245219   0.744   1.615   4.214  0.1550  0.6489  0.1117
 7935TIP3    H145220   0.824   1.571   4.187  0.6351  1.1319  0.7182
 7935TIP3    H245221   0.718   1.667   4.137 -1.2643 -1.7965 -1.1702
 7936TIP3   OH245222   4.920   2.103   1.111 -0.7125 -0.2431  0.3284
 7936TIP3    H145223   5.000   2.153   1.099 -0.4864 -0.7834 -0.5081
 7936TIP3    H245224   4.883   2.136   1.193  0.6484 -0.3660  1.0193
 7937TIP3   OH245225   0.491   0.236  13.985  0.4154  0.3065 -0.0927
 7937TIP3    H145226   0.531   0.290  13.918  1.1427 -0.3537 -0.2046
 7937TIP3    H245227   0.543   0.156  13.986 -0.5055 -0.3122  0.2113
 7938TIP3   OH245228   6.640   0.951   3.234 -0.5510 -0.2595  0.1212
 7938TIP3    H145229   6.689   0.973   3.314  1.2576  1.6951 -1.4156
 7938TIP3    H245230   6.548   0.956   3.261 -0.0044  0.4363  2.0727
 7939TIP3   OH245231   1.074   5.143  13.797 -0.0928  0.5618  0.5306
 7939TIP3    H145232   1.156   5.138  13.748 -0.7623 -1.0092 -0.5163
 7939TIP3    H245233   1.068   5.234  13.826  1.7419  0.8258  0.1725
 7940TIP3   OH245234   3.411   0.215   6.553  0.3141  0.0952 -0.6881
 7940TIP3    H145235   3.466   0.275   6.502  1.3104 -1.0812 -1.0375
 7940TIP3    H245236   3.357   0.273   6.607  1.4017  1.3006 -0.8419
 7941TIP3   OH245237   1.560   1.998  11.580 -0.4875  0.0383 -0.3597
 7941TIP3    H145238   1.644   2.004  11.535 -0.7819  0.7190 -0.8431
 7941TIP3    H245239   1.562   1.913  11.624  1.1900  0.8336  1.1772
 7942TIP3   OH245240   5.543   4.251   3.088 -0.1612 -0.3669  0.6087
 7942TIP3    H145241   5.547   4.191   3.014 -0.0736 -1.1274  1.2207
 7942TIP3    H245242   5.615   4.312   3.074  0.7060 -1.3301  0.7567
 7943TIP3   OH245243   3.787   1.144   4.568  0.3737 -0.0636 -0.1887
 7943TIP3    H145244   3.797   1.158   4.662 -1.3864 -0.5033  0.1106
 7943TIP3    H245245   3.856   1.196   4.528  1.5068 -0.3120  1.3664
 7944TIP3   OH245246   4.301   0.687   0.173  0.0883 -0.3247  0.7656
 7944TIP3    H145247   4.363   0.630   0.127 -1.5312  0.1430 -2.3106
 7944TIP3    H245248   4.333   0.776   0.156 -0.9942 -0.1070 -0.3220
 7945TIP3   OH245249   6.043   2.250   0.774  0.9163 -0.0184  0.3777
 7945TIP3    H145250   5.953   2.223   0.793  1.1750 -0.7401  0.6339
 7945TIP3    H245251   6.035   2.316   0.705  0.2021 -0.2204  0.2639
 7946TIP3   OH245252   2.485   1.771  12.472 -0.2115 -0.5303 -0.8560
 7946TIP3    H145253   2.521   1.847  12.425 -0.1128  0.6677  1.0513
 7946TIP3    H245254   2.426   1.809  12.538  2.3272 -1.7399  2.4116
 7947TIP3   OH245255   0.011   0.036  14.922  0.4419  0.2948 -0.3844
 7947TIP3    H145256   0.036  -0.056  14.932  0.6822  0.4148  0.2235
 7947TIP3    H245257   0.079   0.073  14.865 -1.0937 -0.4687 -2.8302
 7948TIP3   OH245258   1.457   0.228  15.958  0.1034 -0.1209  0.0987
 7948TIP3    H145259   1.451   0.258  15.867  0.7407 -0.9912 -0.2389
 7948TIP3    H245260   1.479   0.135  15.952  0.6094 -0.0858  1.1491
 7949TIP3   OH245261   1.335   3.584   6.036  0.7580 -0.1952  0.1453
 7949TIP3    H145262   1.355   3.666   6.082 -1.4600  0.4243  0.1150
 7949TIP3    H245263   1.375   3.516   6.091  1.0625  0.7743  1.1672
 7950TIP3   OH245264   1.309   2.286   1.865  0.1788 -0.2634 -0.2064
 7950TIP3    H145265   1.391   2.244   1.889  0.9035  0.7777 -0.7708
 7950TIP3    H245266   1.329   2.333   1.784 -1.0926 -0.3437 -0.5867
 7951TIP3   OH245267   2.185   3.811   4.502 -0.5436  0.1326  0.3051
 7951TIP3    H145268   2.162   3.738   4.445 -0.1274 -1.3508  1.9286
 7951TIP3    H245269   2.247   3.863   4.451  0.0224 -1.2820 -0.5003
 7952TIP3   OH245270   5.699   2.101   1.398  0.0945 -0.5021 -0.1036
 7952TIP3    H145271   5.758   2.135   1.331  0.2618 -0.8364 -0.1320
 7952TIP3    H245272   5.733   2.013   1.417  1.6095  0.4827  2.2363
 7953TIP3   OH245273   4.102   1.705  15.632  0.1065  0.2507  0.3418
 7953TIP3    H145274   4.089   1.652  15.554 -1.1496  1.1376 -0.0876
 7953TIP3    H245275   4.124   1.792  15.598  0.6349  0.3832  1.0039
 7954TIP3   OH245276   0.706   4.554  12.326 -0.3242  0.5961  0.3567
 7954TIP3    H145277   0.653   4.562  12.246 -0.2875  1.6427  0.4311
 7954TIP3    H245278   0.796   4.544  12.293 -0.5782 -1.8255  0.2104
 7955TIP3   OH245279   0.862   5.960   5.281 -0.1827  0.4908  0.3842
 7955TIP3    H145280   0.845   5.894   5.213  0.5980  0.1614  0.5034
 7955TIP3    H245281   0.783   6.014   5.281 -0.2338  0.4502 -0.7365
 7956TIP3   OH245282   4.540   4.393  15.285  0.6926  0.5071 -0.4536
 7956TIP3    H145283   4.594   4.422  15.212  2.5088 -1.3748  0.0647
 7956TIP3    H245284   4.464   4.352  15.244  1.4628 -0.1247 -1.2763
 7957TIP3   OH245285   6.108   1.156   3.903 -0.1213 -0.3855  0.6720
 7957TIP3    H145286   6.203   1.149   3.915  0.1691 -1.5466 -1.7024
 7957TIP3    H245287   6.071   1.109   3.978  1.2264 -1.0450  0.9528
 7958TIP3   OH245288   6.679   4.909   2.380 -0.6554  0.4616  0.1974
 7958TIP3    H145289   6.632   4.990   2.359 -0.6124  0.2829 -0.6026
 7958TIP3    H245290   6.741   4.935   2.448 -1.3786  0.8671  0.7264
 7959TIP3   OH245291   5.742   1.624  11.999 -0.2491 -0.3321  0.2363
 7959TIP3    H145292   5.776   1.695  11.944 -1.2262  0.6355  0.8425
 7959TIP3    H245293   5.794   1.548  11.974  0.2037  0.3764 -1.0947
 7960TIP3   OH245294   6.429   4.773  16.840  0.0832  0.3569  0.1511
 7960TIP3    H145295   6.403   4.864  16.856  0.7947  0.6753 -0.4397
 7960TIP3    H245296   6.351   4.731  16.805  0.2815  1.2738 -1.5116
 7961TIP3   OH245297   5.492   2.699  11.354  0.0008  0.0302 -0.3434
 7961TIP3    H145298   5.436   2.658  11.288 -0.6734 -2.3603  1.5851
 7961TIP3    H245299   5.539   2.767  11.306 -1.5599 -0.5709 -2.9285
 7962TIP3   OH245300   0.915   5.218   3.433  0.0010 -0.1567 -0.1985
 7962TIP3    H145301   0.987   5.277   3.413  0.2783  0.0787  1.4067
 7962TIP3    H245302   0.851   5.273   3.479 -0.8340 -0.5613 -0.8377
 7963TIP3   OH245303   3.979   0.060   5.006 -0.4605  0.7866  0.0360
 7963TIP3    H145304   4.068   0.080   5.036 -0.3476  0.7855 -0.2986
 7963TIP3    H245305   3.965  -0.031   5.033  0.8487 -0.3289 -2.6924
 7964TIP3   OH245306   2.700   5.121   5.558 -0.4279  0.1810 -0.4961
 7964TIP3    H145307   2.766   5.171   5.510  1.6956 -1.0855  0.9343
 7964TIP3    H245308   2.679   5.176   5.634  0.2520 -0.1348 -0.0760
 7965TIP3   OH245309   1.571   5.338   1.046 -0.0169  0.3728 -0.0763
 7965TIP3    H145310   1.606   5.422   1.076  0.1368  0.0989  0.5226
 7965TIP3    H245311   1.530   5.300   1.123 -0.0359 -0.1335 -0.3331
 7966TIP3   OH245312   5.131   1.921   6.079 -0.9086  0.1289  0.2954
 7966TIP3    H145313   5.126   1.835   6.120 -1.7050  0.2203  0.4137
 7966TIP3    H245314   5.215   1.922   6.034 -1.8237 -1.5880 -1.6233
 7967TIP3   OH245315   6.084   2.783  11.512 -0.6357 -0.0674 -0.7717
 7967TIP3    H145316   6.152   2.773  11.446 -1.5797 -0.0712 -1.7782
 7967TIP3    H245317   6.014   2.831  11.467 -0.9972  0.5879  0.4558
 7968TIP3   OH245318   3.365   3.272  11.151 -0.0528 -0.0305  0.9197
 7968TIP3    H145319   3.358   3.349  11.094 -0.2102  1.0595  2.3597
 7968TIP3    H245320   3.329   3.200  11.099  0.7846  0.6960 -0.7429
 7969TIP3   OH245321   5.816   2.719   5.700 -0.2974 -0.0516  0.2895
 7969TIP3    H145322   5.809   2.661   5.624  0.0215  0.1151  0.1317
 7969TIP3    H245323   5.790   2.664   5.774  0.2717 -0.4799  0.1791
 7970TIP3   OH245324   3.171   6.736   2.852 -0.2921  0.4076  0.2460
 7970TIP3    H145325   3.089   6.778   2.877 -0.4460  0.1697  0.1394
 7970TIP3    H245326   3.225   6.739   2.931  0.1012  1.7633 -0.0543
 7971TIP3   OH245327   5.041   5.222  11.253 -0.5840 -0.0642 -0.2200
 7971TIP3    H145328   4.957   5.225  11.298 -0.4715  1.0873 -0.0446
 7971TIP3    H245329   5.048   5.308  11.211 -0.5057 -0.9627 -2.1284
 7972TIP3   OH245330   0.843   1.887   5.757  0.3936 -0.0356  0.1365
 7972TIP3    H145331   0.785   1.946   5.709 -0.1386 -1.1241 -0.6115
 7972TIP3    H245332   0.822   1.903   5.849  0.0688  0.7402 -0.0635
 7973TIP3   OH245333   5.786   4.930   1.071  0.0367 -0.3848  0.8234
 7973TIP3    H145334   5.841   4.853   1.065 -0.0991 -0.5447  1.4874
 7973TIP3    H245335   5.781   4.964   0.982 -0.2112 -1.3549  0.4568
 7974TIP3   OH245336   3.881   0.551  13.790  0.1524  0.0684  0.1533
 7974TIP3    H145337   3.958   0.505  13.758  0.7566  0.7345  0.6243
 7974TIP3    H245338   3.860   0.509  13.873  0.5206  0.4264  0.4336
 7975TIP3   OH245339   0.361   3.187   3.906  0.1186 -0.3286 -0.2527
 7975TIP3    H145340   0.298   3.252   3.937  1.0592  0.4647  0.0349
 7975TIP3    H245341   0.447   3.228   3.919  0.6430 -0.2481 -3.1793
 7976TIP3   OH245342   4.680   3.187   5.165 -0.0063 -0.0724 -0.0920
 7976TIP3    H145343   4.762   3.186   5.214  0.9773  2.1211 -1.5023
 7976TIP3    H245344   4.659   3.095   5.151  1.4400 -0.6937  1.5248
 7977TIP3   OH245345   1.308   3.071  14.543 -0.2734  0.2858 -0.0912
 7977TIP3    H145346   1.301   3.079  14.448  0.2722 -0.5472 -0.2122
 7977TIP3    H245347   1.220   3.087  14.575 -0.6046 -0.0913 -0.7943
 7978TIP3   OH245348   5.623   5.927  12.459 -0.2284 -0.6892 -0.1799
 7978TIP3    H145349   5.604   5.836  12.437  0.3648 -0.3775 -2.1562
 7978TIP3    H245350   5.701   5.948  12.409 -1.2735  1.3770 -1.0383
 7979TIP3   OH245351   6.609   4.434  11.739  0.5559 -0.3079  0.4978
 7979TIP3    H145352   6.658   4.373  11.684  2.4421  0.4517  1.2458
 7979TIP3    H245353   6.635   4.413  11.829 -0.3092  0.2934  0.9150
 7980TIP3   OH245354   0.855   4.016  17.189  0.0414 -0.3310  0.1601
 7980TIP3    H145355   0.783   4.078  17.201  0.1247 -0.0356 -0.7898
 7980TIP3    H245356   0.840   3.949  17.255 -0.0864  0.6676  1.1714
 7981TIP3   OH245357   0.992   1.173   2.555 -0.1649 -0.5159 -0.1708
 7981TIP3    H145358   1.037   1.237   2.611 -0.5251  0.8873 -1.4130
 7981TIP3    H245359   0.899   1.184   2.575 -0.2645 -0.3009 -0.7208
 7982TIP3   OH245360   3.086   2.865  14.429  0.1499  0.3077  0.0390
 7982TIP3    H145361   2.991   2.858  14.419  0.0522 -0.3422  1.2384
 7982TIP3    H245362   3.118   2.778  14.404  0.3753  0.3662  0.1254
 7983TIP3   OH245363   5.725   1.421   6.678  0.9747  0.2640  0.7109
 7983TIP3    H145364   5.797   1.482   6.662  0.4690  0.7004  0.0262
 7983TIP3    H245365   5.664   1.436   6.606  0.1310  0.0001  1.3440
 7984TIP3   OH245366   2.472   2.003   4.469 -0.2199 -0.1304  0.8341
 7984TIP3    H145367   2.563   2.032   4.469  0.4226 -1.9765  0.4731
 7984TIP3    H245368   2.453   1.983   4.560 -0.4385  0.7115  0.9803
 7985TIP3   OH245369   0.436   3.031  16.954  0.0022 -0.2058  0.1927
 7985TIP3    H145370   0.498   3.102  16.970 -2.1796  1.7723  0.5233
 7985TIP3    H245371   0.369   3.042  17.022 -0.2051 -2.9216  0.5519
 7986TIP3   OH245372   4.724   6.269   1.390 -0.3350  0.4555  0.2830
 7986TIP3    H145373   4.653   6.334   1.393  0.3627  1.2768 -0.3306
 7986TIP3    H245374   4.752   6.269   1.298  0.7700  0.4948  0.6087
 7987TIP3   OH245375   1.667   1.622   6.585  0.8832  0.1830 -0.6294
 7987TIP3    H145376   1.572   1.619   6.584  0.8624 -3.4602 -1.6395
 7987TIP3    H245377   1.688   1.687   6.652 -2.3651 -1.6573  2.5473
 7988TIP3   OH245378   1.757   5.728   2.254  0.3864 -0.2528 -0.5784
 7988TIP3    H145379   1.679   5.690   2.214 -0.5356  0.5279  0.4489
 7988TIP3    H245380   1.823   5.659   2.247 -0.2971 -0.8302 -1.6861
 7989TIP3   OH245381   5.957   0.624   4.094  0.6298  0.2089  0.1648
 7989TIP3    H145382   5.867   0.627   4.125  0.5482  0.3856 -0.0842
 7989TIP3    H245383   5.972   0.533   4.068  0.5023  0.1954  0.1409
 7990TIP3   OH245384   2.790   0.775   2.569  0.0635  0.0250  0.4005
 7990TIP3    H145385   2.778   0.756   2.663 -0.9376  0.0387  0.2895
 7990TIP3    H245386   2.703   0.761   2.531  0.3937  0.3214 -0.4808
 7991TIP3   OH245387   2.110   3.802  17.319  0.6175  0.3934 -0.2585
 7991TIP3    H145388   2.051   3.734  17.287 -1.4091  1.0850  1.7584
 7991TIP3    H245389   2.198   3.766  17.305 -0.2920 -1.3341 -1.9496
 7992TIP3   OH245390   5.710   1.880   1.165 -0.0415 -0.3243 -0.8608
 7992TIP3    H145391   5.766   1.877   1.243  3.1070  1.1253 -2.8792
 7992TIP3    H245392   5.697   1.788   1.142  0.3073 -0.7327  0.4598
 7993TIP3   OH245393   6.521   4.238   2.983  0.5995 -0.1361 -0.0695
 7993TIP3    H145394   6.442   4.269   3.027  0.4231  1.0987 -1.1832
 7993TIP3    H245395   6.593   4.264   3.041  0.1843 -2.6436  1.7352
 7994TIP3   OH245396   0.161   5.720   2.470 -0.0052  0.2744  0.3334
 7994TIP3    H145397   0.146   5.812   2.493  1.8246  0.6061  0.3564
 7994TIP3    H245398   0.095   5.701   2.403 -1.2931  1.1816  1.3112
 7995TIP3   OH245399   4.567   6.305  13.317 -0.3225  0.2762 -0.3271
 7995TIP3    H145400   4.508   6.245  13.362 -1.1060  1.0084 -0.3390
 7995TIP3    H245401   4.559   6.387  13.365  2.4754 -0.1827  1.1107
 7996TIP3   OH245402   1.452   5.931  15.682  0.3402  0.1129 -0.1949
 7996TIP3    H145403   1.504   5.853  15.698  1.0622  0.5420 -0.3745
 7996TIP3    H245404   1.404   5.946  15.763  2.4629  1.1597  0.9506
 7997TIP3   OH245405   5.629   1.451   3.576  0.4447  0.4441  0.3192
 7997TIP3    H145406   5.535   1.434   3.578  0.4216  0.3607 -1.0077
 7997TIP3    H245407   5.643   1.516   3.645 -1.0026  2.4394 -1.1737
 7998TIP3   OH245408   4.240   1.027  15.804  0.4444 -0.0848  0.3896
 7998TIP3    H145409   4.185   1.061  15.876 -1.6074  1.4795 -1.7437
 7998TIP3    H245410   4.177   1.000  15.737  2.2826 -1.1431 -0.9986
 7999TIP3   OH245411   0.358   4.931  10.956  0.4304 -0.4303  0.1064
 7999TIP3    H145412   0.345   4.848  10.911 -0.7153 -0.0939 -0.2200
 7999TIP3    H245413   0.365   4.907  11.049 -1.2058 -0.7934  0.1568
 8000TIP3   OH245414   4.277   3.642   2.319 -0.1453  0.4057  0.5761
 8000TIP3    H145415   4.232   3.725   2.302 -0.4179  0.1096 -0.2162
 8000TIP3    H245416   4.278   3.598   2.234  2.1259  0.6281  0.4212
 8001TIP3   OH245417   0.658   5.756  17.250 -0.2886  0.1654  0.2696
 8001TIP3    H145418   0.698   5.697  17.186 -0.4421  1.5341 -1.1467
 8001TIP3    H245419   0.573   5.716  17.268 -1.2269  0.8917 -2.1723
 8002TIP3   OH245420   2.681   6.053   2.706 -0.1003  0.2818 -0.4199
 8002TIP3    H145421   2.773   6.071   2.688  0.0622  0.9928  1.0363
 8002TIP3    H245422   2.680   6.016   2.794 -1.2892  1.1027 -0.0700
 8003TIP3   OH245423   6.395   2.325  12.331 -0.5837 -0.2642  0.0190
 8003TIP3    H145424   6.428   2.407  12.294 -0.1911 -0.3999  0.0572
 8003TIP3    H245425   6.369   2.273  12.254 -0.7663 -0.1297 -0.0090
 8004TIP3   OH245426   6.415   4.694   0.106  0.0920 -0.1732 -0.2019
 8004TIP3    H145427   6.493   4.660   0.061  1.1893  1.1288  0.6233
 8004TIP3    H245428   6.342   4.669   0.050  1.1324 -1.1965 -1.1536
 8005TIP3   OH245429   4.861   5.003  10.601  0.2133  0.1183  0.2396
 8005TIP3    H145430   4.831   4.934  10.660  1.9186 -1.4180 -0.5914
 8005TIP3    H245431   4.907   4.956  10.531  1.9546  2.1474 -0.0558
 8006TIP3   OH245432   0.886   6.485  14.697  0.4462 -0.2937 -0.1710
 8006TIP3    H145433   0.915   6.538  14.623 -1.9710 -0.7650 -1.5802
 8006TIP3    H245434   0.922   6.529  14.774  1.5901  1.2252 -1.5067
 8007TIP3   OH245435   0.628   4.492  17.325 -0.2790  0.1547  0.5182
 8007TIP3    H145436   0.661   4.419  17.273 -0.1875  1.2364 -0.9922
 8007TIP3    H245437   0.703   4.521  17.377 -0.4595 -1.1452  1.5552
 8008TIP3   OH245438   4.449   1.603   0.377  0.1399  0.1200  0.4800
 8008TIP3    H145439   4.424   1.602   0.285 -1.1905 -1.6822  0.8121
 8008TIP3    H245440   4.374   1.642   0.422  0.3654  0.0531  0.9241
 8009TIP3   OH245441   6.175   6.110  11.786 -0.2409  0.2488  0.1861
 8009TIP3    H145442   6.115   6.159  11.730  0.2216 -0.3620 -0.8743
 8009TIP3    H245443   6.238   6.175  11.817  0.5381  0.3309 -1.4367
 8010TIP3   OH245444   2.631   1.960  15.381  0.0770 -0.4015  0.5509
 8010TIP3    H145445   2.607   2.001  15.298  1.4650 -1.0555 -0.1973
 8010TIP3    H245446   2.699   1.898  15.359  0.6921 -0.3821  2.2360
 8011TIP3   OH245447   5.992   4.826  14.703  0.3095  0.1160  0.3223
 8011TIP3    H145448   5.988   4.856  14.794  1.1044  1.4833 -0.0530
 8011TIP3    H245449   6.009   4.732  14.709 -1.4044 -0.1600  1.5734
 8012TIP3   OH245450   3.976   1.352   5.275  0.3328 -0.1354  0.5127
 8012TIP3    H145451   4.026   1.403   5.210 -0.0371  0.4386  0.6756
 8012TIP3    H245452   3.886   1.382   5.265  0.0241 -1.1043  0.2864
 8013TIP3   OH245453   0.162   2.756  13.470 -0.1584 -0.0805  0.3426
 8013TIP3    H145454   0.230   2.689  13.465  0.1142  0.1252  1.2547
 8013TIP3    H245455   0.207   2.838  13.447 -0.9835 -0.4618 -3.2773
 8014TIP3   OH245456   5.511   1.708   1.812  0.2863  0.1984  0.4200
 8014TIP3    H145457   5.509   1.614   1.831  0.3354 -0.0221 -0.5989
 8014TIP3    H245458   5.443   1.745   1.868 -0.0895 -0.5256  0.4600
 8015TIP3   OH245459   3.598   5.755  11.441  0.1928  0.0458 -0.0701
 8015TIP3    H145460   3.599   5.709  11.525 -0.8893 -1.1673 -0.6781
 8015TIP3    H245461   3.690   5.766  11.418  0.4964 -1.7148  0.1864
 8016TIP3   OH245462   1.771   1.549   5.914  0.2100 -0.0631 -0.5270
 8016TIP3    H145463   1.690   1.521   5.955 -0.1699  0.4592 -0.9064
 8016TIP3    H245464   1.836   1.548   5.984  0.2444 -1.9937 -0.5586
 8017TIP3   OH245465   1.625   4.407  13.927  0.1896 -0.2340  0.0929
 8017TIP3    H145466   1.596   4.334  13.873  0.6803 -0.2265 -0.1921
 8017TIP3    H245467   1.651   4.474  13.864  0.6374 -0.1765  0.3325
 8018TIP3   OH245468   6.297   0.878   4.156 -0.7304  0.7708  0.0778
 8018TIP3    H145469   6.229   0.905   4.094 -0.9541 -1.0583 -0.5153
 8018TIP3    H245470   6.259   0.804   4.203 -1.7755  3.7791  4.6432
 8019TIP3   OH245471   1.393   1.344   3.101 -0.1718  0.0278 -0.5590
 8019TIP3    H145472   1.377   1.304   3.015  0.9800 -0.8893 -0.3786
 8019TIP3    H245473   1.481   1.379   3.094 -0.5349  1.0412 -0.1318
 8020TIP3   OH245474   4.085   3.883  13.450  0.0858 -0.4625 -0.2003
 8020TIP3    H145475   4.088   3.877  13.355  1.7096  0.0284 -0.1942
 8020TIP3    H245476   4.174   3.904  13.477 -0.6515  0.9913  1.3215
 8021TIP3   OH245477   4.986   5.511   3.312  0.2274 -0.3401  0.2548
 8021TIP3    H145478   4.940   5.445   3.259  1.0791 -2.3119  1.8157
 8021TIP3    H245479   5.076   5.507   3.281  0.0080  1.1758 -0.6175
 8022TIP3   OH245480   6.155   5.088  15.427 -0.2093 -0.3505 -0.2852
 8022TIP3    H145481   6.170   5.181  15.444  2.1019 -0.2721 -2.2665
 8022TIP3    H245482   6.114   5.085  15.341  1.8897 -1.1557 -1.3408
 8023TIP3   OH245483   1.523   5.611   5.894 -0.0107 -0.3794  0.3411
 8023TIP3    H145484   1.558   5.695   5.865  2.0675 -1.0640  0.7283
 8023TIP3    H245485   1.459   5.588   5.826  2.5687 -0.5234 -2.2425
 8024TIP3   OH245486   0.354   5.003   2.843 -0.0476  0.7248  0.2617
 8024TIP3    H145487   0.422   4.961   2.895 -0.7479 -0.2948  0.3869
 8024TIP3    H245488   0.335   5.084   2.889 -0.2423  0.1199  1.2741
 8025TIP3   OH245489   1.500   3.454  16.388 -0.1505 -0.0365 -0.1346
 8025TIP3    H145490   1.576   3.416  16.430  0.3882  1.7079  0.5782
 8025TIP3    H245491   1.535   3.506  16.316 -0.4433  1.9349  1.0481
 8026TIP3   OH245492   5.175   3.113   1.054 -0.3680 -0.0405  0.2661
 8026TIP3    H145493   5.268   3.135   1.047 -0.5277  0.3134 -0.9588
 8026TIP3    H245494   5.133   3.164   0.985 -1.2471 -1.5336 -0.3471
 8027TIP3   OH245495   6.563   2.334   4.014  0.3334 -0.0652 -0.5542
 8027TIP3    H145496   6.577   2.428   4.001  1.3485  0.0857  1.3786
 8027TIP3    H245497   6.474   2.327   4.048  0.7599  0.3660  0.6994
 8028TIP3   OH245498   1.721   1.829  12.161  0.1546 -0.1021 -0.0718
 8028TIP3    H145499   1.810   1.812  12.192 -0.6470 -2.5965  1.1460
 8028TIP3    H245500   1.698   1.913  12.201  1.8154  0.4355 -0.1618
 8029TIP3   OH245501   3.136   0.786   5.327 -0.1071  0.7329  0.4161
 8029TIP3    H145502   3.220   0.769   5.284 -0.1879  1.9704 -0.2677
 8029TIP3    H245503   3.131   0.881   5.334 -1.0348  0.6378  1.3238
 8030TIP3   OH245504   3.597   1.888  12.481 -0.0953 -0.2301 -0.1703
 8030TIP3    H145505   3.642   1.878  12.397  0.2850  0.2183 -0.0214
 8030TIP3    H245506   3.631   1.817  12.535  0.5819  0.2092 -0.0002
 8031TIP3   OH245507   1.083   5.553  14.880 -0.1592  0.3628  0.1930
 8031TIP3    H145508   1.077   5.607  14.958 -0.6228  1.1087 -0.3438
 8031TIP3    H245509   1.010   5.582  14.825  0.1966 -0.0999 -0.5402
 8032TIP3   OH245510   5.496   5.888   2.573 -0.1461  0.6200  0.1586
 8032TIP3    H145511   5.480   5.914   2.664 -0.6330 -0.8440  0.5247
 8032TIP3    H245512   5.412   5.852   2.543  0.0691  0.8844 -0.8037
 8033TIP3   OH245513   0.460   1.957   4.525 -0.4971  0.1470 -0.0220
 8033TIP3    H145514   0.455   1.992   4.613 -0.1181 -0.3194  0.1870
 8033TIP3    H245515   0.549   1.922   4.517 -0.2909  0.8076 -0.8261
 8034TIP3   OH245516   1.152   6.348  13.693 -0.1533  0.3695 -0.3062
 8034TIP3    H145517   1.086   6.318  13.631  1.0521 -1.7682 -0.6532
 8034TIP3    H245518   1.235   6.316  13.658  0.6509 -0.4416  2.1048
 8035TIP3   OH245519   5.053   3.863   4.246 -0.0339  0.0789  0.6260
 8035TIP3    H145520   5.031   3.852   4.154  2.0826 -0.8373  0.1798
 8035TIP3    H245521   5.022   3.783   4.289  1.2911 -0.6886  0.2068
 8036TIP3   OH245522   1.225   5.877  11.742 -0.6749  0.1040  0.3311
 8036TIP3    H145523   1.182   5.792  11.733  0.4697 -0.5187  0.5705
 8036TIP3    H245524   1.220   5.916  11.654 -0.6115 -0.4912  0.0634
 8037TIP3   OH245525   4.908   5.727   0.662  0.6765 -0.2362 -0.0715
 8037TIP3    H145526   4.863   5.671   0.725  0.9309 -2.2841 -1.6144
 8037TIP3    H245527   4.846   5.736   0.589  1.1181  0.4842 -0.3724
 8038TIP3   OH245528   3.033   3.694   3.781  0.2532 -0.3045 -0.8633
 8038TIP3    H145529   3.077   3.654   3.706  0.6956  0.9124 -1.2774
 8038TIP3    H245530   2.963   3.747   3.742 -0.2684 -0.6024 -0.3384
 8039TIP3   OH245531   4.683   2.088  13.982  0.0309  0.1508  0.1345
 8039TIP3    H145532   4.669   2.097  13.888  0.1501  1.5826  0.2287
 8039TIP3    H245533   4.743   2.014  13.991 -0.6064 -0.5013 -0.8520
 8040TIP3   OH245534   3.223   0.101   0.674  0.2462  0.2476 -0.1447
 8040TIP3    H145535   3.311   0.129   0.648  0.6677 -0.1732  0.7692
 8040TIP3    H245536   3.235   0.009   0.700 -0.2544  0.4878  0.9728
 8041TIP3   OH245537   1.555   3.239   2.574  0.6405 -0.4981 -0.1635
 8041TIP3    H145538   1.579   3.169   2.634  1.0008 -0.1040  0.1569
 8041TIP3    H245539   1.499   3.297   2.626  0.1515 -0.6609 -0.4923
 8042TIP3   OH245540   0.642   2.769  11.282 -0.2076 -0.0214  0.1578
 8042TIP3    H145541   0.697   2.751  11.207 -0.7915  0.2794 -0.3502
 8042TIP3    H245542   0.617   2.861  11.273  0.1143  0.1625  0.9839
 8043TIP3   OH245543   5.616   1.556   3.280  0.6138  0.5181 -0.3138
 8043TIP3    H145544   5.567   1.505   3.345  0.6102  1.4280  0.4242
 8043TIP3    H245545   5.683   1.601   3.331  0.8397  0.9658 -1.0018
 8044TIP3   OH245546   2.669   0.382  15.276 -0.2727 -0.6424 -0.2010
 8044TIP3    H145547   2.683   0.371  15.370 -2.2328 -2.1967 -0.0310
 8044TIP3    H245548   2.590   0.437  15.270 -0.9384 -1.6404 -0.8873
 8045TIP3   OH245549   3.109   0.809  12.172  0.5550  0.3741  0.4537
 8045TIP3    H145550   3.033   0.827  12.116 -0.0837  0.5923  1.3610
 8045TIP3    H245551   3.183   0.808  12.112 -0.1135  0.5651 -0.4008
 8046TIP3   OH245552   4.372   3.367   3.869  0.3315 -0.1244 -0.3496
 8046TIP3    H145553   4.457   3.409   3.880  0.9240 -1.2383 -0.5560
 8046TIP3    H245554   4.309   3.439   3.879  1.1569  0.3768  2.0746
 8047TIP3   OH245555   2.440   6.478   4.639  0.1033 -0.0052 -0.0759
 8047TIP3    H145556   2.407   6.473   4.549  0.6162  0.4056 -0.2953
 8047TIP3    H245557   2.400   6.559   4.674  2.1741  1.4577 -0.9109
 8048TIP3   OH245558   2.332   2.525   0.958 -0.2608 -0.0733 -0.0916
 8048TIP3    H145559   2.263   2.488   1.013 -0.7458  0.0148 -0.6266
 8048TIP3    H245560   2.414   2.498   1.000 -0.6218 -0.3316  0.4511
 8049TIP3   OH245561   2.774   5.599   3.911 -0.4897 -0.1923 -0.2262
 8049TIP3    H145562   2.798   5.692   3.910 -1.9324  0.2026  0.1974
 8049TIP3    H245563   2.848   5.556   3.954  1.0777  0.4757 -2.1143
 8050TIP3   OH245564   3.820   5.847   4.227  0.0987  0.1329  0.2367
 8050TIP3    H145565   3.754   5.778   4.236  0.6272 -0.2984  0.8529
 8050TIP3    H245566   3.771   5.921   4.191 -0.4775 -0.5520 -0.4386
 8051TIP3   OH245567   3.333   0.055   4.220 -0.2921  0.0395  0.5013
 8051TIP3    H145568   3.344   0.072   4.126 -0.3762 -2.0062  0.0728
 8051TIP3    H245569   3.389   0.120   4.262 -0.0376  0.8290 -0.9800
 8052TIP3   OH245570   0.702   1.806   4.537  0.2435  0.0149 -0.4422
 8052TIP3    H145571   0.729   1.715   4.523 -0.6549 -0.1081 -1.5235
 8052TIP3    H245572   0.775   1.845   4.586  0.5989 -1.3004  0.1278
 8053TIP3   OH245573   2.103   6.289   5.201  0.1940  0.7751 -0.1249
 8053TIP3    H145574   2.076   6.298   5.293  0.8353  0.5021  0.1024
 8053TIP3    H245575   2.037   6.233   5.162 -0.2672  1.1645  0.0871
 8054TIP3   OH245576   0.608   5.310  13.467 -0.2089  0.0086 -0.2289
 8054TIP3    H145577   0.576   5.363  13.540  0.9885 -2.1236  2.0026
 8054TIP3    H245578   0.601   5.367  13.390 -2.8379  1.8792  1.2671
 8055TIP3   OH245579   0.790   1.292  12.506 -0.0452  0.3401 -0.0833
 8055TIP3    H145580   0.868   1.275  12.454  0.4698 -1.2917  1.1418
 8055TIP3    H245581   0.813   1.369  12.559  1.0867 -0.6151  0.8680
 8056TIP3   OH245582   4.615   4.509  13.289  0.5772 -0.2798  0.0154
 8056TIP3    H145583   4.603   4.597  13.323  2.2531 -0.3285  0.8687
 8056TIP3    H245584   4.706   4.507  13.258 -0.0017 -1.1391 -1.8100
 8057TIP3   OH245585   0.046   6.368  11.547 -0.1187 -0.4786 -0.1805
 8057TIP3    H145586   0.061   6.443  11.606  1.3327 -0.5994 -0.3583
 8057TIP3    H245587   0.098   6.297  11.585 -0.5847 -1.0759 -0.6399
 8058TIP3   OH245588   0.354   2.692  17.282 -0.0956  0.4320  0.0598
 8058TIP3    H145589   0.274   2.720  17.237 -0.5024  0.3523  0.7143
 8058TIP3    H245590   0.357   2.597  17.268  0.2633  0.5281 -0.5529
 8059TIP3   OH245591   1.497   5.520   4.341 -0.1852  0.1583  1.0486
 8059TIP3    H145592   1.547   5.519   4.422 -2.4694  1.8431  2.5633
 8059TIP3    H245593   1.522   5.438   4.297 -0.0831 -1.6296  4.1933
 8060TIP3   OH245594   3.694   0.860   4.347 -0.2072 -0.1148  0.5169
 8060TIP3    H145595   3.737   0.927   4.295  1.0044 -2.2573 -1.4347
 8060TIP3    H245596   3.740   0.860   4.431  1.3379 -0.0206 -0.2966
 8061TIP3   OH245597   0.956   4.400  11.298  0.1696  0.4057  0.7397
 8061TIP3    H145598   0.969   4.313  11.337  1.9844  0.1166 -0.4103
 8061TIP3    H245599   0.862   4.416  11.308 -0.3969 -2.0709  0.2197
 8062TIP3   OH245600   4.415   3.352  16.382  0.0969  0.2611  0.3153
 8062TIP3    H145601   4.490   3.305  16.418  0.1533 -0.0734 -0.2337
 8062TIP3    H245602   4.382   3.404  16.455 -0.1810 -0.8851  1.0191
 8063TIP3   OH245603   5.535   1.959   0.602 -0.7291  0.0489 -0.7907
 8063TIP3    H145604   5.570   1.871   0.615 -0.0354  0.3402 -0.6439
 8063TIP3    H245605   5.508   1.988   0.689  0.5096  0.5852 -0.5756
 8064TIP3   OH245606   0.831   6.581  15.776  0.5882 -0.0658  0.0878
 8064TIP3    H145607   0.904   6.519  15.775  0.9078  0.3050  0.1271
 8064TIP3    H245608   0.754   6.527  15.795  0.6048 -0.7202 -1.5707
 8065TIP3   OH245609   5.562   4.622   2.689 -0.3251  0.0540  0.9068
 8065TIP3    H145610   5.583   4.556   2.624 -1.8814  1.9614 -1.7143
 8065TIP3    H245611   5.616   4.697   2.667 -1.3840  0.9882  1.3329
 8066TIP3   OH245612   3.515   0.652   2.551  0.4069  0.3619 -0.1488
 8066TIP3    H145613   3.505   0.713   2.624  1.1213  0.5409 -0.1924
 8066TIP3    H245614   3.550   0.705   2.480  1.8085 -0.2359  0.0589
 8067TIP3   OH245615   1.536   4.647   1.660  0.5544  0.0290 -0.2608
 8067TIP3    H145616   1.448   4.665   1.694 -0.0761  0.1251 -1.8742
 8067TIP3    H245617   1.585   4.614   1.736 -0.8747 -0.0686  0.6506
 8068TIP3   OH245618   4.482   0.493  10.948  0.2408  0.4058  0.1616
 8068TIP3    H145619   4.494   0.441  10.869 -1.5438 -0.0868  0.1651
 8068TIP3    H245620   4.571   0.510  10.980  0.9246 -0.8685 -0.9807
 8069TIP3   OH245621   0.632   3.790   0.741 -0.1974  0.1415 -0.0374
 8069TIP3    H145622   0.616   3.720   0.805 -1.0085  0.8690  0.5782
 8069TIP3    H245623   0.705   3.840   0.779 -0.8464  0.7247  0.4651
 8070TIP3   OH245624   5.299   5.235  11.852  0.1121 -0.1265  0.2076
 8070TIP3    H145625   5.259   5.262  11.769 -0.2262  0.4245  0.5435
 8070TIP3    H245626   5.298   5.139  11.849 -1.1102 -0.1269  0.1455
 8071TIP3   OH245627   0.558   5.101  15.221  0.1912 -0.3289  0.3938
 8071TIP3    H145628   0.565   5.018  15.174 -1.3116  0.6762 -1.8221
 8071TIP3    H245629   0.469   5.101  15.257 -0.3355  0.8037 -0.7969
 8072TIP3   OH245630   2.934   5.303   3.832  0.3828  0.0993  0.4095
 8072TIP3    H145631   2.954   5.336   3.920  1.0500  0.6343  0.0643
 8072TIP3    H245632   3.015   5.315   3.783 -0.3518  0.9779 -0.6385
 8073TIP3   OH245633   4.145   5.130  15.738  0.2919  0.2061  0.0301
 8073TIP3    H145634   4.151   5.035  15.726 -0.2803  0.2134 -0.3205
 8073TIP3    H245635   4.192   5.146  15.820 -1.2548 -0.6064  1.1208
 8074TIP3   OH245636   2.725   3.269  13.835  0.0481 -0.6440 -0.2121
 8074TIP3    H145637   2.695   3.313  13.914 -0.6702 -1.3253 -0.0974
 8074TIP3    H245638   2.756   3.340  13.778 -2.5273  0.1887 -0.6707
 8075TIP3   OH245639   1.320   4.046  12.611  0.9844  0.1398  0.2751
 8075TIP3    H145640   1.279   4.127  12.580  0.4031 -0.2038  0.1543
 8075TIP3    H245641   1.406   4.045  12.568  0.8723  0.5337  0.0397
 8076TIP3   OH245642   3.735   6.267   0.296  0.2322 -0.0668 -0.0616
 8076TIP3    H145643   3.659   6.280   0.239  0.4224  0.0797 -0.2819
 8076TIP3    H245644   3.798   6.334   0.269 -0.3947  1.2614  1.5606
 8077TIP3   OH245645   0.159   4.836  14.028  0.6721  0.0299  0.2966
 8077TIP3    H145646   0.251   4.808  14.024  0.4058 -0.9013 -3.4368
 8077TIP3    H245647   0.109   4.756  14.014 -0.5117  0.9780 -1.2676
 8078TIP3   OH245648   2.531   0.555  11.118  0.0865 -1.1274  0.1852
 8078TIP3    H145649   2.553   0.532  11.208 -0.4178 -3.1215 -0.1527
 8078TIP3    H245650   2.448   0.603  11.126  0.9941  0.4000  0.8918
 8079TIP3   OH245651   2.664   1.647  13.348 -0.0153  0.2195  0.4962
 8079TIP3    H145652   2.677   1.681  13.437 -0.8166  1.3249  0.1977
 8079TIP3    H245653   2.707   1.561  13.350  0.9189  0.6747  1.6358
 8080TIP3   OH245654   5.338   2.533  15.901  0.2168 -0.4005 -0.1072
 8080TIP3    H145655   5.421   2.543  15.948 -0.0540 -0.6787  0.4340
 8080TIP3    H245656   5.338   2.604  15.837  0.4847  0.1218  0.4656
 8081TIP3   OH245657   5.298   1.491  13.898 -0.0542 -0.1976  0.3315
 8081TIP3    H145658   5.368   1.505  13.834  0.0102 -0.0063  0.4425
 8081TIP3    H245659   5.267   1.579  13.919 -0.0166 -0.2537  0.6296
 8082TIP3   OH245660   4.995   5.121  14.348  0.1453  0.2663  0.0350
 8082TIP3    H145661   5.001   5.086  14.259 -0.4114 -1.7792  0.7569
 8082TIP3    H245662   5.044   5.203  14.345  1.8871 -0.7703 -1.6551
 8083TIP3   OH245663   5.446   4.190  16.106  0.0191  0.2934  0.8658
 8083TIP3    H145664   5.372   4.239  16.071  1.3328  0.5897 -1.7511
 8083TIP3    H245665   5.470   4.237  16.186 -1.7702  0.9643  1.0517
 8084TIP3   OH245666   1.484   4.332   4.055  0.2087  0.4720  0.2695
 8084TIP3    H145667   1.567   4.329   4.008 -0.7124  1.7530 -1.5434
 8084TIP3    H245668   1.437   4.253   4.026  1.0923 -0.7924  2.0466
 8085TIP3   OH245669   2.328   1.594  11.628 -0.6624  0.0740  0.4905
 8085TIP3    H145670   2.389   1.554  11.690  0.0027  0.1096 -0.1362
 8085TIP3    H245671   2.289   1.520  11.582 -1.0470  0.0558  0.8315
 8086TIP3   OH245672   6.186   1.337  11.843 -0.3399 -0.6306 -0.2048
 8086TIP3    H145673   6.254   1.296  11.898  0.2217 -1.2563 -1.3309
 8086TIP3    H245674   6.136   1.264  11.808 -1.4024 -0.1845  0.3165
 8087TIP3   OH245675   1.133   4.822   5.398 -0.0480 -0.6555 -0.8219
 8087TIP3    H145676   1.139   4.832   5.493  0.0470 -1.6984 -0.7034
 8087TIP3    H245677   1.121   4.728   5.384  0.7749 -0.6277 -1.8882
 8088TIP3   OH245678   0.199   4.594  11.807  0.1964  0.4180  0.1809
 8088TIP3    H145679   0.294   4.579  11.813  0.5750  0.0974 -4.0183
 8088TIP3    H245680   0.183   4.669  11.864  2.7139 -0.1930  1.8766
 8089TIP3   OH245681   6.051   4.763   2.469  0.2734 -0.2035  0.4990
 8089TIP3    H145682   5.988   4.713   2.417  1.0470 -1.0385  0.3633
 8089TIP3    H245683   6.129   4.769   2.414  0.4540  0.5203  0.8145
 8090TIP3   OH245684   1.188   5.903  12.780 -0.1774  0.5054  0.4783
 8090TIP3    H145685   1.256   5.851  12.822 -0.8368  0.4272  1.5000
 8090TIP3    H245686   1.160   5.964  12.849 -0.8913  0.7653 -0.0355
 8091TIP3   OH245687   4.490   0.521   0.064  0.6169 -0.2699 -0.0061
 8091TIP3    H145688   4.581   0.550   0.065 -0.1185  2.6870 -2.7766
 8091TIP3    H245689   4.490   0.443   0.008  1.4771 -0.6419  0.4919
 8092TIP3   OH245690   4.423   1.950  16.271  1.0132  0.0875 -0.4593
 8092TIP3    H145691   4.403   2.041  16.295  1.1679  0.3715 -1.3602
 8092TIP3    H245692   4.456   1.911  16.351 -1.2161  0.1752  0.5650
 8093TIP3   OH245693   1.257   5.681  13.566  0.1069 -0.0900  0.0980
 8093TIP3    H145694   1.308   5.714  13.640  0.0921  0.4837 -0.1427
 8093TIP3    H245695   1.178   5.734  13.566 -0.2871 -0.6600  0.1819
 8094TIP3   OH245696   3.565   0.224  17.321 -0.0875  0.7744  0.4981
 8094TIP3    H145697   3.525   0.195  17.239  1.1919 -1.2549  0.5289
 8094TIP3    H245698   3.520   0.306  17.341 -0.9984  0.9274 -1.8019
 8095TIP3   OH245699   5.149   5.302  13.786 -0.0506 -0.0709 -0.5491
 8095TIP3    H145700   5.143   5.226  13.727 -1.3648  1.0480 -1.9435
 8095TIP3    H245701   5.241   5.327  13.783 -0.1301  0.1350 -2.4128
 8096TIP3   OH245702   1.340   3.492  11.815 -0.1921 -0.9937  0.6648
 8096TIP3    H145703   1.355   3.580  11.851  0.2971 -1.3777  1.4360
 8096TIP3    H245704   1.358   3.501  11.722 -2.4656  0.2740  0.2534
 8097TIP3   OH245705   1.408   2.519   5.484  0.4899  0.2483 -0.1547
 8097TIP3    H145706   1.312   2.521   5.483  0.2480  0.2450  4.4982
 8097TIP3    H245707   1.430   2.429   5.458 -0.5884  0.4998 -2.1907
 8098TIP3   OH245708   2.459   6.733   3.706 -0.3552 -0.0007  0.3137
 8098TIP3    H145709   2.451   6.640   3.730  0.1794  0.0908  0.9032
 8098TIP3    H245710   2.369   6.763   3.697 -0.5724 -0.2636  1.4262
 8099TIP3   OH245711   4.303   5.638  11.345  0.3961  0.1870 -0.6401
 8099TIP3    H145712   4.239   5.577  11.309  1.4767 -1.6108  0.3605
 8099TIP3    H245713   4.294   5.631  11.440  1.5718  0.4222 -0.4905
 8100TIP3   OH245714   4.236   4.502  12.441 -0.7498 -0.1303 -0.2302
 8100TIP3    H145715   4.290   4.553  12.502 -2.3717  0.3526  0.8830
 8100TIP3    H245716   4.158   4.556  12.428  0.0367  0.3762 -3.7940
 8101TIP3   OH245717   0.800   1.457  16.699 -0.1486 -0.0158  0.1981
 8101TIP3    H145718   0.714   1.450  16.739  0.0445 -0.9532  0.4596
 8101TIP3    H245719   0.837   1.538  16.735 -1.8947  1.8398 -1.8529
 8102TIP3   OH245720   5.285   2.710   4.777 -0.4707 -0.2714 -0.4038
 8102TIP3    H145721   5.191   2.718   4.788 -0.2458  0.9079  0.9961
 8102TIP3    H245722   5.321   2.791   4.813  1.0404 -0.3292 -1.6437
 8103TIP3   OH245723   3.623   5.939   3.216 -0.1818  0.1301  0.0314
 8103TIP3    H145724   3.562   6.010   3.198  0.2896  0.7859  0.9338
 8103TIP3    H245725   3.701   5.961   3.165  0.6175  1.2198  1.6736
 8104TIP3   OH245726   3.105   4.093   5.506 -1.0222  0.5821 -0.3708
 8104TIP3    H145727   3.030   4.045   5.541 -1.5039  1.0637 -0.7194
 8104TIP3    H245728   3.144   4.033   5.443 -0.4499 -0.0920  0.6000
 8105TIP3   OH245729   4.479   6.669   2.133  0.4457  0.4558 -0.2056
 8105TIP3    H145730   4.529   6.641   2.209 -0.0073  0.7653  0.2200
 8105TIP3    H245731   4.438   6.589   2.100  0.4920  0.3485 -0.0062
 8106TIP3   OH245732   0.643   4.687  14.618 -0.1728  0.6124 -0.2596
 8106TIP3    H145733   0.596   4.626  14.675  0.2220  0.8932  0.3715
 8106TIP3    H245734   0.584   4.700  14.543 -0.2397 -0.5802 -0.4300
 8107TIP3   OH245735   5.408   3.742  11.548 -0.8020 -0.3642 -0.4940
 8107TIP3    H145736   5.380   3.795  11.473 -4.6176 -1.7347 -0.2580
 8107TIP3    H245737   5.432   3.806  11.615  0.9773  0.8850 -2.1889
 8108TIP3   OH245738   5.578   6.638   6.525 -0.3915 -0.2666  0.1245
 8108TIP3    H145739   5.651   6.670   6.576 -1.0351 -0.7878  1.4096
 8108TIP3    H245740   5.570   6.700   6.452  1.0441  0.0256  0.1849
 8109TIP3   OH245741   3.406   4.390   6.130 -0.2251 -0.4109 -0.2636
 8109TIP3    H145742   3.346   4.321   6.159 -1.6476  0.5375 -0.8375
 8109TIP3    H245743   3.416   4.447   6.207  0.3959 -0.8644 -0.0018
 8110TIP3   OH245744   1.545   0.654  11.187 -0.7406 -0.4256  0.8247
 8110TIP3    H145745   1.561   0.678  11.096 -1.3225  0.6311  0.9838
 8110TIP3    H245746   1.567   0.561  11.192  1.3323 -0.0085  0.1077
 8111TIP3   OH245747   5.137   1.792   1.800 -0.0452  0.2384 -0.3269
 8111TIP3    H145748   5.045   1.778   1.778  0.3822 -1.5717 -1.1862
 8111TIP3    H245749   5.184   1.769   1.720  1.1598  1.0537  0.1291
 8112TIP3   OH245750   0.210   0.312   2.749  0.3313  0.2395  0.0839
 8112TIP3    H145751   0.220   0.303   2.843  2.0415  0.6993 -0.0296
 8112TIP3    H245752   0.298   0.298   2.713 -0.0091  1.4229 -1.3299
 8113TIP3   OH245753   4.882   3.732   5.128  0.4214  0.0656  0.5196
 8113TIP3    H145754   4.945   3.787   5.081  0.3707  0.2648  0.6830
 8113TIP3    H245755   4.932   3.699   5.204  0.1565  0.7008  0.9731
 8114TIP3   OH245756   3.402   6.084  16.703 -0.3431  0.5010 -0.2503
 8114TIP3    H145757   3.353   6.029  16.764 -0.5458  1.2719  0.2936
 8114TIP3    H245758   3.343   6.098  16.630  0.2253 -1.1898 -1.0942
 8115TIP3   OH245759   6.560   1.971   5.470 -0.4666 -0.0588  0.0205
 8115TIP3    H145760   6.633   2.010   5.519  0.4089 -0.4541 -0.9241
 8115TIP3    H245761   6.523   1.907   5.531  0.5767 -0.5157  0.2027
 8116TIP3   OH245762   0.499   6.646  13.477 -0.2633 -0.1561 -0.1087
 8116TIP3    H145763   0.488   6.740  13.461  0.4441 -0.1280 -0.4996
 8116TIP3    H245764   0.560   6.618  13.409  3.4236  0.0706  2.7569
 8117TIP3   OH245765   2.267   2.312   4.224 -0.2650  0.1994 -0.3731
 8117TIP3    H145766   2.238   2.379   4.162 -0.6445  1.0492  0.6904
 8117TIP3    H245767   2.193   2.252   4.229 -0.0293 -0.1698 -1.1242
 8118TIP3   OH245768   1.074   5.995   1.762  0.0251 -0.3829 -0.5026
 8118TIP3    H145769   1.026   6.036   1.690 -1.5487  1.1010  1.2670
 8118TIP3    H245770   1.043   5.905   1.763 -2.0483  0.2737 -0.0681
 8119TIP3   OH245771   1.822   5.394   4.764 -0.1324 -0.2647 -0.0387
 8119TIP3    H145772   1.814   5.306   4.727 -0.8958  0.3518 -1.4199
 8119TIP3    H245773   1.916   5.404   4.780  0.0545 -1.0680 -0.5484
 8120TIP3   OH245774   0.251   4.997   4.619 -0.8917  0.3744 -0.4116
 8120TIP3    H145775   0.241   4.952   4.535 -0.4738  0.8556 -0.7289
 8120TIP3    H245776   0.305   4.938   4.672 -0.1606  0.5883 -0.9015
 8121TIP3   OH245777   1.865   0.679   1.987  0.0822 -0.1319 -0.4124
 8121TIP3    H145778   1.847   0.681   2.081  1.6449 -1.3578 -0.0443
 8121TIP3    H245779   1.796   0.734   1.949 -0.9525 -0.0896  1.3699
 8122TIP3   OH245780   0.472   1.569  12.543 -0.1427  0.3830  0.2277
 8122TIP3    H145781   0.561   1.533  12.549 -0.2620  0.2199  1.4140
 8122TIP3    H245782   0.477   1.652  12.591  0.0861  1.9452 -2.3180
 8123TIP3   OH245783   4.372   3.821   1.278 -0.1990  0.0857  0.0209
 8123TIP3    H145784   4.394   3.905   1.237 -3.4760  1.0907 -0.0011
 8123TIP3    H245785   4.370   3.759   1.205  2.4945 -0.1676  0.0705
 8124TIP3   OH245786   2.931   6.637   1.455 -0.1376 -0.8156  0.1390
 8124TIP3    H145787   2.996   6.598   1.396 -0.1888  2.6492 -2.5392
 8124TIP3    H245788   2.846   6.613   1.416 -0.1764  1.1914 -1.1797
 8125TIP3   OH245789   5.438   4.077  16.433 -0.1522 -0.1599 -0.0310
 8125TIP3    H145790   5.428   4.172  16.442  2.2166  0.0803  0.7422
 8125TIP3    H245791   5.512   4.066  16.374 -0.8805 -1.5615 -0.7134
 8126TIP3   OH245792   2.728   2.475   3.368  0.3196  0.1007 -0.2611
 8126TIP3    H145793   2.724   2.569   3.352  1.7539  0.5141  1.4573
 8126TIP3    H245794   2.814   2.449   3.336  1.1373 -0.0071  1.8591
 8127TIP3   OH245795   4.317   5.248   2.769 -0.1498 -0.2668  0.1424
 8127TIP3    H145796   4.412   5.246   2.758 -0.2702 -1.1321 -0.9593
 8127TIP3    H245797   4.303   5.274   2.860  1.1410 -0.5436  0.4311
 8128TIP3   OH245798   6.486   4.665   3.388  0.1563  0.3467 -0.4097
 8128TIP3    H145799   6.533   4.645   3.308  1.5786  0.8132  0.2810
 8128TIP3    H245800   6.440   4.584   3.411  1.2607 -0.3666 -0.6839
 8129TIP3   OH245801   0.856   5.998  12.924  0.4166 -0.2177 -0.1878
 8129TIP3    H145802   0.872   5.973  12.833 -0.6564 -0.6547 -0.2730
 8129TIP3    H245803   0.765   6.028  12.925  0.3235 -0.5058  0.8028
 8130TIP3   OH245804   0.966   3.413  13.445 -0.3317  0.0462 -0.2776
 8130TIP3    H145805   1.057   3.413  13.475 -0.5535  0.4882  0.4185
 8130TIP3    H245806   0.964   3.476  13.372 -0.1382  0.2621 -0.0977
 8131TIP3   OH245807   6.543   2.382   4.413  0.8028 -0.6239  0.0127
 8131TIP3    H145808   6.515   2.405   4.501 -0.8673 -0.8574 -0.4207
 8131TIP3    H245809   6.483   2.312   4.386 -0.0234  0.7413 -2.0043
 8132TIP3   OH245810   0.126   4.864  10.407 -0.5225  0.5182 -0.0527
 8132TIP3    H145811   0.130   4.915  10.487  1.2843  0.7598 -0.2567
 8132TIP3    H245812   0.119   4.929  10.337 -0.7491  0.3620 -0.1793
 8133TIP3   OH245813   1.545   1.870  16.749  0.2348 -0.2021 -0.1627
 8133TIP3    H145814   1.496   1.807  16.802 -0.0163  1.2275  1.3671
 8133TIP3    H245815   1.637   1.853  16.770  0.1479  0.1793  0.5616
 8134TIP3   OH245816   4.528   4.823   5.519  0.6505 -0.1351  0.0533
 8134TIP3    H145817   4.436   4.823   5.544  0.2821 -0.6234 -1.2494
 8134TIP3    H245818   4.530   4.785   5.431  2.2878 -1.8674  0.7528
 8135TIP3   OH245819   0.986   3.750  14.447  0.2478  0.4829 -0.3411
 8135TIP3    H145820   1.069   3.782  14.483 -0.7368  1.6111  0.9981
 8135TIP3    H245821   1.009   3.665  14.407  1.6104 -0.4384  2.1712
 8136TIP3   OH245822   4.685   6.065   6.081 -0.4439  0.5381  0.0337
 8136TIP3    H145823   4.688   6.007   6.156 -3.6829 -0.4603 -0.4669
 8136TIP3    H245824   4.694   6.153   6.118  2.2610 -0.0496  1.0266
 8137TIP3   OH245825   0.032   1.596   4.231  0.2225 -0.3423  0.7383
 8137TIP3    H145826   0.061   1.670   4.177 -3.2535 -0.1077 -1.1616
 8137TIP3    H245827   0.097   1.528   4.215  1.4723  1.0542 -0.5578
 8138TIP3   OH245828   0.070   0.915   0.096  0.1992 -0.0575 -0.4711
 8138TIP3    H145829   0.080   0.998   0.142 -0.9024  0.4045 -1.0338
 8138TIP3    H245830   0.081   0.848   0.163  3.5276  0.4039 -0.3813
 8139TIP3   OH245831   6.171   2.107  12.766 -0.1352  0.3879 -0.3299
 8139TIP3    H145832   6.193   2.025  12.723 -2.4177 -0.8399  0.6630
 8139TIP3    H245833   6.210   2.101  12.853  1.6235  1.4060 -1.0003
 8140TIP3   OH245834   5.495   6.769   5.470 -0.0498 -0.1464 -0.0407
 8140TIP3    H145835   5.557   6.744   5.401  1.1802  0.1543  0.8971
 8140TIP3    H245836   5.502   6.698   5.534 -2.9455 -1.6576 -1.2220
 8141TIP3   OH245837   6.444   3.352   1.752 -0.1105  0.1308  0.4769
 8141TIP3    H145838   6.497   3.335   1.830 -0.4561  1.4237  1.0132
 8141TIP3    H245839   6.354   3.335   1.780 -0.1130 -0.8542 -0.0813
 8142TIP3   OH245840   4.736   2.674  15.673  0.4020 -0.4638 -0.0295
 8142TIP3    H145841   4.773   2.654  15.759  1.2198  0.5307 -0.1298
 8142TIP3    H245842   4.643   2.689  15.689  0.2367 -1.8558  0.4157
 8143TIP3   OH245843   0.799   4.489  15.765 -0.5229  0.3904 -0.1559
 8143TIP3    H145844   0.774   4.437  15.841 -0.8633 -1.0464 -1.1984
 8143TIP3    H245845   0.716   4.512  15.724 -0.3189 -0.6969 -1.2457
 8144TIP3   OH245846   4.339   3.258   0.473 -0.1610  0.1066 -0.1123
 8144TIP3    H145847   4.255   3.233   0.510  0.1516  1.3054  1.5423
 8144TIP3    H245848   4.321   3.276   0.381 -1.5048 -0.5910 -0.0017
 8145TIP3   OH245849   1.751   1.254   0.715  0.1168 -0.4182  0.7802
 8145TIP3    H145850   1.720   1.267   0.626  2.1236  2.5695  0.3589
 8145TIP3    H245851   1.812   1.181   0.709 -0.5448 -0.9110 -0.0683
 8146TIP3   OH245852   1.505   1.775  15.014 -0.4049 -0.0362 -0.3828
 8146TIP3    H145853   1.576   1.721  15.050 -0.1652  0.7244  0.3093
 8146TIP3    H245854   1.481   1.833  15.086 -1.6707 -0.2209 -0.6469
 8147TIP3   OH245855   2.931   2.537   4.161 -0.5290 -0.2091  0.1704
 8147TIP3    H145856   3.018   2.567   4.185 -0.2459 -0.9571  0.0976
 8147TIP3    H245857   2.937   2.517   4.067 -1.3951  1.8808 -0.4139
 8148TIP3   OH245858   4.657   4.451  15.032 -0.1165  0.2111  0.2590
 8148TIP3    H145859   4.621   4.538  15.014 -0.4535 -0.0469 -0.3622
 8148TIP3    H245860   4.661   4.409  14.946  1.1025  0.0064  0.4058
 8149TIP3   OH245861   5.546   6.303   6.381 -0.1561 -0.2944 -0.6437
 8149TIP3    H145862   5.603   6.285   6.456 -0.9125  1.7147  0.4919
 8149TIP3    H245863   5.590   6.373   6.334 -0.4850 -0.4261 -1.1563
 8150TIP3   OH245864   2.916   6.231   4.425 -0.0923  0.0045  0.1760
 8150TIP3    H145865   2.989   6.187   4.380 -0.3620 -1.4290  1.1007
 8150TIP3    H245866   2.945   6.322   4.432 -0.4742  0.6272 -3.8429
 8151TIP3   OH245867   1.284   1.344   3.406 -0.1018 -0.2182  1.1311
 8151TIP3    H145868   1.353   1.309   3.463  0.6869 -0.6148 -0.0428
 8151TIP3    H245869   1.316   1.329   3.317 -0.8251  1.3731  0.5731
 8152TIP3   OH245870   2.665   3.286  12.039  0.4429 -0.3723  0.9190
 8152TIP3    H145871   2.726   3.239  11.981 -0.3358 -1.9750  1.3439
 8152TIP3    H245872   2.694   3.263  12.127 -0.2721 -0.5026  1.1256
 8153TIP3   OH245873   1.753   5.474   0.571 -0.0240  0.1885  0.1115
 8153TIP3    H145874   1.667   5.490   0.611  0.6961  0.2987  1.7063
 8153TIP3    H245875   1.736   5.477   0.477 -1.7249  0.4344  0.3796
 8154TIP3   OH245876   4.522   4.816   4.745 -0.6107  0.6142 -0.2814
 8154TIP3    H145877   4.562   4.784   4.826  0.4750  1.8509 -0.3029
 8154TIP3    H245878   4.452   4.753   4.727  0.0555 -0.5024  0.8293
 8155TIP3   OH245879   4.928   1.506  15.249 -0.4313  0.3111  0.0886
 8155TIP3    H145880   4.886   1.497  15.164  2.3776  1.4889 -1.5719
 8155TIP3    H245881   5.020   1.484  15.233  0.5499  2.2463  2.4176
 8156TIP3   OH245882   0.944   4.299   0.243 -0.0034  0.3137 -0.1484
 8156TIP3    H145883   0.931   4.215   0.198 -1.9517  0.4493  0.1004
 8156TIP3    H245884   1.029   4.330   0.211 -0.4002 -0.5453 -2.1950
 8157TIP3   OH245885   4.597   3.379  12.564  0.2291 -0.0874  1.0510
 8157TIP3    H145886   4.644   3.462  12.551 -0.6671  0.0089 -3.0893
 8157TIP3    H245887   4.647   3.316  12.512 -1.6555 -1.0041  0.2539
 8158TIP3   OH245888   3.283   1.910   5.360  0.9952 -0.8310  0.1497
 8158TIP3    H145889   3.248   1.976   5.300 -2.0767 -1.3015  1.2731
 8158TIP3    H245890   3.333   1.851   5.303  0.1984  0.0638 -1.5673
 8159TIP3   OH245891   3.717   2.045  12.815 -0.5139  0.4777 -1.0036
 8159TIP3    H145892   3.692   1.953  12.810 -0.1427  0.1400  1.9292
 8159TIP3    H245893   3.806   2.047  12.779  0.1842 -0.6794  0.5696
 8160TIP3   OH245894   0.025   3.806  10.511 -0.8106  0.1694 -0.0160
 8160TIP3    H145895   0.104   3.823  10.563 -2.1985  0.1708  2.2567
 8160TIP3    H245896  -0.001   3.718  10.536 -1.4034  0.0717 -0.9412
 8161TIP3   OH245897   4.081   5.834   4.154  0.3367 -0.5909 -0.1028
 8161TIP3    H145898   4.110   5.908   4.208 -2.3753  0.2175  0.4037
 8161TIP3    H245899   3.985   5.839   4.157  0.0925 -2.4210 -2.4588
 8162TIP3   OH245900   3.201   4.685   1.451 -0.3474 -0.1019 -0.3903
 8162TIP3    H145901   3.188   4.643   1.536 -0.3640 -1.5982 -1.0858
 8162TIP3    H245902   3.296   4.697   1.445 -0.3239 -0.2143 -0.2494
 8163TIP3   OH245903   4.045   3.373  12.427  0.4341 -0.0932 -0.2148
 8163TIP3    H145904   4.039   3.466  12.405  1.6531  0.1691  0.4313
 8163TIP3    H245905   4.088   3.372  12.513 -1.2966 -1.1822  0.6906
 8164TIP3   OH245906   2.913   3.938  15.236  0.4958  0.3754  0.5207
 8164TIP3    H145907   2.896   4.032  15.245 -0.5557  0.1606  0.9584
 8164TIP3    H245908   2.832   3.903  15.199  0.7184 -0.4166  0.7642
 8165TIP3   OH245909   3.059   5.041   1.845 -0.0298 -0.4226 -0.4676
 8165TIP3    H145910   3.048   5.103   1.773  0.6736  1.4871  0.9410
 8165TIP3    H245911   2.970   5.017   1.871 -0.3415  0.2438 -0.8892
 8166TIP3   OH245912   3.182   0.322  16.369  0.3748 -0.2515  0.0505
 8166TIP3    H145913   3.208   0.409  16.400  1.2934 -0.3551 -0.3873
 8166TIP3    H245914   3.251   0.264  16.402 -0.2346 -0.8204  0.3496
 8167TIP3   OH245915   4.709   4.510   0.275  0.4058 -0.0089  0.0793
 8167TIP3    H145916   4.681   4.522   0.185 -0.5471 -2.1082  0.0279
 8167TIP3    H245917   4.650   4.565   0.327 -0.8656 -0.8588 -0.4085
 8168TIP3   OH245918   0.201   1.589  15.916  0.1990 -0.5214 -0.4541
 8168TIP3    H145919   0.261   1.624  15.850  0.1901  0.3900  0.0117
 8168TIP3    H245920   0.195   1.496  15.895 -0.3409 -0.1301 -2.1558
 8169TIP3   OH245921   1.839   0.059   4.206  0.4470  0.1234  0.2955
 8169TIP3    H145922   1.874  -0.028   4.225 -1.8175 -1.0254 -0.4277
 8169TIP3    H245923   1.854   0.070   4.112 -1.5391 -0.6958 -0.1892
 8170TIP3   OH245924   0.916   5.298  10.429 -0.3114  0.5404  1.2480
 8170TIP3    H145925   0.837   5.257  10.393  0.0735  0.6086  0.2918
 8170TIP3    H245926   0.908   5.287  10.523 -1.7706  1.0917  1.2125
 8171TIP3   OH245927   4.975   2.757  11.621 -0.0116 -0.2905  0.1718
 8171TIP3    H145928   4.939   2.690  11.563  0.4589 -0.3690 -0.0378
 8171TIP3    H245929   4.992   2.710  11.703  1.4609 -0.7432 -0.3569
 8172TIP3   OH245930   4.626   6.272  16.865 -0.5832  0.0581 -0.2022
 8172TIP3    H145931   4.563   6.291  16.796  0.1113  3.4323 -0.0903
 8172TIP3    H245932   4.692   6.217  16.823 -0.5045  1.5102 -2.0965
 8173TIP3   OH245933   5.760   6.750   5.970 -0.2034 -0.0165  0.1935
 8173TIP3    H145934   5.684   6.715   6.016 -0.3980  0.2364  0.0654
 8173TIP3    H245935   5.810   6.795   6.038  0.8726 -1.8575  0.6994
 8174TIP3   OH245936   1.985   2.115  13.323 -0.2067  0.5982 -0.3212
 8174TIP3    H145937   1.939   2.169  13.260 -0.3352  1.3504  0.3920
 8174TIP3    H245938   1.918   2.091  13.387 -0.4788 -1.5887 -1.3388
 8175TIP3   OH245939   2.745   3.007   1.370 -0.1168  0.3285 -0.7968
 8175TIP3    H145940   2.836   3.000   1.399 -0.1620  0.1734 -0.6899
 8175TIP3    H245941   2.723   2.918   1.343 -0.8982 -0.1030  1.1282
 8176TIP3   OH245942   0.866   6.773   5.243  0.3432  0.6523  0.4324
 8176TIP3    H145943   0.931   6.707   5.216 -0.5484 -0.9556  1.9981
 8176TIP3    H245944   0.858   6.761   5.337 -1.6202  1.3950  0.3953
 8177TIP3   OH245945   5.937   6.134  13.108  0.2263  0.5182 -0.2678
 8177TIP3    H145946   5.892   6.214  13.135 -0.9752  0.0327 -0.7356
 8177TIP3    H245947   5.932   6.134  13.013  0.1587 -0.1303 -0.2701
 8178TIP3   OH245948   4.588   4.782  15.296  0.8585  0.1021  0.1745
 8178TIP3    H145949   4.559   4.835  15.370  1.0356 -0.3615  0.5763
 8178TIP3    H245950   4.683   4.797  15.291  1.0588 -0.8391  0.8342
 8179TIP3   OH245951   1.694   2.327   4.329 -0.1058  0.3145  0.3962
 8179TIP3    H145952   1.726   2.239   4.307  1.2373  1.0317 -0.7396
 8179TIP3    H245953   1.738   2.348   4.411  1.6920  0.8873 -0.6369
 8180TIP3   OH245954   4.360   3.008  14.881 -0.8556 -0.0531 -0.2278
 8180TIP3    H145955   4.340   3.099  14.902 -1.9729 -0.3420 -0.0156
 8180TIP3    H245956   4.456   3.005  14.880 -0.7849  1.3998 -1.4713
 8181TIP3   OH245957   1.350   1.779  14.045  0.4181  0.0963 -0.0305
 8181TIP3    H145958   1.326   1.742  13.960  2.7128 -1.4643 -0.0893
 8181TIP3    H245959   1.400   1.857  14.024 -0.8027  0.9193 -0.0060
 8182TIP3   OH245960   1.794   5.980  13.262 -0.5068 -0.0379 -0.3269
 8182TIP3    H145961   1.734   6.024  13.322 -0.1848 -0.9570  0.6984
 8182TIP3    H245962   1.865   5.949  13.317  0.3234 -0.0052 -1.3491
 8183TIP3   OH245963   3.693   5.212   1.825 -0.8066 -0.5173  0.2188
 8183TIP3    H145964   3.779   5.190   1.790 -0.7188  0.1767 -0.0312
 8183TIP3    H245965   3.634   5.206   1.750 -1.0618 -1.3941  0.4739
 8184TIP3   OH245966   6.609   6.378   4.590  0.0842  0.3107 -0.0080
 8184TIP3    H145967   6.676   6.309   4.596 -1.0383 -0.9470 -1.3183
 8184TIP3    H245968   6.654   6.451   4.547  1.3895  0.6101  1.7172
 8185TIP3   OH245969   4.764   3.627  12.541 -0.6877  0.0369  0.2617
 8185TIP3    H145970   4.801   3.615  12.453  1.8358  1.2229  1.0673
 8185TIP3    H245971   4.726   3.714  12.539 -0.2842  0.2189  0.4469
 8186TIP3   OH245972   6.627   4.313   3.209 -0.5408  0.1151  0.6354
 8186TIP3    H145973   6.576   4.330   3.288 -0.3618 -0.5735  0.9008
 8186TIP3    H245974   6.693   4.249   3.236  0.5636  1.0883  0.3394
 8187TIP3   OH245975   1.530   5.487   0.788 -0.9575 -0.4694 -0.3501
 8187TIP3    H145976   1.494   5.428   0.722 -0.4106 -2.1507  0.7994
 8187TIP3    H245977   1.489   5.460   0.870 -0.8403  0.8983  0.1862
 8188TIP3   OH245978   3.550   4.852  15.896 -0.2346 -0.2534  0.0784
 8188TIP3    H145979   3.526   4.780  15.836  0.3739  0.7514 -1.4252
 8188TIP3    H245980   3.563   4.809  15.980  2.1879 -2.3216 -1.2012
 8189TIP3   OH245981   6.594   6.664  15.950  0.2753  0.4318 -0.3107
 8189TIP3    H145982   6.629   6.650  15.862  0.5527  0.8648 -0.2742
 8189TIP3    H245983   6.512   6.615  15.951 -0.0892  0.9961 -1.0582
 8190TIP3   OH245984   1.464   0.300  12.582  0.1083  0.5767  0.2856
 8190TIP3    H145985   1.452   0.355  12.505 -1.3872  1.0998  0.8448
 8190TIP3    H245986   1.558   0.289  12.590  0.3075  1.0159 -1.2574
 8191TIP3   OH245987   2.779   6.334  12.430 -0.2098  0.3486  0.5805
 8191TIP3    H145988   2.721   6.285  12.372  0.3940 -0.7930  0.8914
 8191TIP3    H245989   2.730   6.341  12.512  0.0481 -0.5857  0.8327
 8192TIP3   OH245990   4.905   0.421   2.308 -0.6197 -0.6410 -0.1182
 8192TIP3    H145991   4.843   0.428   2.380 -1.3109 -0.9717 -0.6788
 8192TIP3    H245992   4.939   0.511   2.298 -2.9163  0.1470 -1.4780
 8193TIP3   OH245993   6.253   6.061   4.760 -0.1245  0.4704  0.2747
 8193TIP3    H145994   6.196   6.125   4.803 -0.1692  0.0276  0.8883
 8193TIP3    H245995   6.285   6.106   4.682 -0.8221  0.9463  0.2504
 8194TIP3   OH245996   0.229   6.012  12.293 -0.2795  0.0769 -0.1482
 8194TIP3    H145997   0.224   6.096  12.338  1.2630 -0.0035  0.2233
 8194TIP3    H245998   0.169   5.955  12.340 -0.2132  0.5663  0.5316
 8195TIP3   OH245999   4.527   3.099   0.094 -0.2326 -1.0718  0.3707
 8195TIP3    H146000   4.505   3.084   0.186 -2.1993  1.7190  0.4964
 8195TIP3    H246001   4.442   3.098   0.049  0.7455 -3.2800 -1.6592
 8196TIP3   OH246002   6.029   4.604   2.818 -0.1965 -0.9519  0.4879
 8196TIP3    H146003   6.049   4.531   2.760  0.8927  0.9508 -1.6756
 8196TIP3    H246004   6.092   4.596   2.889 -1.0429 -2.8794  1.0865
 8197TIP3   OH246005   6.397   6.584  13.331 -0.0544  0.4643 -0.2621
 8197TIP3    H146006   6.461   6.513  13.316 -1.3846 -1.1484  1.2395
 8197TIP3    H246007   6.446   6.650  13.380  0.2244 -1.4150  2.2232
 8198TIP3   OH246008   0.227   6.250   2.372 -0.3386  0.5769 -0.1393
 8198TIP3    H146009   0.242   6.292   2.457 -0.1337 -0.0369  0.1366
 8198TIP3    H246010   0.243   6.319   2.308  1.5749  0.5360  0.2383
 8199TIP3   OH246011   6.027   3.577   0.732  0.1121 -0.2659  0.2705
 8199TIP3    H146012   5.957   3.622   0.778  0.3933  0.3137  0.1400
 8199TIP3    H246013   6.022   3.487   0.763 -1.5066 -0.5404 -0.6859
 8200TIP3   OH246014   6.312   5.946   0.745 -0.5784 -0.1501  0.2976
 8200TIP3    H146015   6.315   5.851   0.751 -0.5556 -0.1877 -0.2770
 8200TIP3    H246016   6.224   5.969   0.777 -0.9785 -0.4469 -0.5809
 8201TIP3   OH246017   0.772   3.657  17.170 -0.2252  0.1323 -0.0216
 8201TIP3    H146018   0.857   3.681  17.133 -0.3610  0.2327 -0.2685
 8201TIP3    H246019   0.787   3.572  17.211 -0.4117 -0.6495 -1.5069
 8202TIP3   OH246020   0.016   5.427  11.830 -0.1463  0.0388 -0.3218
 8202TIP3    H146021   0.054   5.351  11.785  3.1256  0.2873  1.6392
 8202TIP3    H246022  -0.065   5.393  11.869  0.6666 -2.1855 -0.3983
 8203TIP3   OH246023   0.972   2.678  13.041 -0.1148 -0.2011  0.4881
 8203TIP3    H146024   0.935   2.704  12.956  0.1468 -1.0651  0.0901
 8203TIP3    H246025   0.952   2.750  13.100 -1.1825 -0.0258 -0.0713
 8204TIP3   OH246026   4.351   5.320   0.762  0.5559  0.1679  0.0221
 8204TIP3    H146027   4.365   5.272   0.681  0.8653  1.5523 -0.7849
 8204TIP3    H246028   4.395   5.267   0.829 -2.5682 -2.7838  0.0035
 8205TIP3   OH246029   2.022   2.343   2.398 -0.2894 -0.0634  0.4586
 8205TIP3    H146030   2.048   2.408   2.333 -0.5967  0.7684  1.1545
 8205TIP3    H246031   2.093   2.345   2.463 -1.2549  1.0324  1.5133
 8206TIP3   OH246032   6.620   2.233  13.732 -0.8437  0.3341 -0.1163
 8206TIP3    H146033   6.629   2.326  13.755 -0.1146  0.0976  0.5958
 8206TIP3    H246034   6.623   2.188  13.816  0.1575 -0.4414 -0.5522
 8207TIP3   OH246035   1.112   2.102   2.979 -0.3501 -0.0588  0.3864
 8207TIP3    H146036   1.027   2.145   2.991 -0.2566  0.4884 -0.7779
 8207TIP3    H246037   1.172   2.173   2.958 -0.2313 -0.7451 -1.8162
 8208TIP3   OH246038   5.375   2.957   4.880 -0.4015  0.0378  0.8653
 8208TIP3    H146039   5.350   2.924   4.967 -0.4051 -1.3618  0.3641
 8208TIP3    H246040   5.466   2.985   4.890 -0.3946 -0.1367  1.3146
 8209TIP3   OH246041   4.322   2.479   4.090 -0.4945 -0.2646 -0.0454
 8209TIP3    H146042   4.289   2.407   4.143  0.7937 -2.8326 -2.4888
 8209TIP3    H246043   4.409   2.498   4.125 -0.5519 -0.4076  0.1725
 8210TIP3   OH246044   1.466   6.324  12.464  0.0836 -0.8097  0.4667
 8210TIP3    H146045   1.389   6.286  12.507  2.1785 -1.6965  3.8205
 8210TIP3    H246046   1.488   6.400  12.517 -0.1251  1.3167 -2.2603
 8211TIP3   OH246047   1.677   5.675  12.929  0.2490 -0.0788 -0.7604
 8211TIP3    H146048   1.704   5.696  12.840  3.5984  0.6648  0.2819
 8211TIP3    H246049   1.684   5.580  12.935 -1.6377 -0.3229 -1.6810
 8212TIP3   OH246050   0.792   1.084  11.389 -0.0645  0.0518 -0.0373
 8212TIP3    H146051   0.831   1.024  11.452 -0.4402  0.7819  0.9242
 8212TIP3    H246052   0.746   1.149  11.443  0.2756  1.1587 -1.0407
 8213TIP3   OH246053   5.001   6.488   0.783 -0.3282  0.7281 -0.6575
 8213TIP3    H146054   5.083   6.487   0.733 -0.2618 -1.3418 -0.6126
 8213TIP3    H246055   4.941   6.435   0.730 -0.5483 -0.7129  0.9437
 8214TIP3   OH246056   6.614   0.204  17.016 -0.4559  0.5735 -0.5974
 8214TIP3    H146057   6.537   0.224  16.963 -0.3047  1.5811 -0.4586
 8214TIP3    H246058   6.580   0.197  17.105 -0.5474 -0.0487 -0.6810
 8215TIP3   OH246059   3.822   1.300  11.514  0.0362  0.1266 -0.6396
 8215TIP3    H146060   3.740   1.346  11.496  0.5343  0.7379 -1.4192
 8215TIP3    H246061   3.877   1.365  11.558  0.3935 -0.0224 -0.8591
 8216TIP3   OH246062   5.010   2.168  13.309 -1.1502  0.3256  0.2648
 8216TIP3    H146063   5.022   2.261  13.289 -1.6245  0.1411 -0.9815
 8216TIP3    H246064   4.915   2.157  13.315 -1.1402 -0.2058 -0.3490
 8217TIP3   OH246065   1.844   5.802   2.612  0.1010  0.3569 -0.3494
 8217TIP3    H146066   1.816   5.745   2.683 -0.3155  1.0170  0.0265
 8217TIP3    H246067   1.888   5.875   2.656  1.7852 -0.2718 -0.8718
 8218TIP3   OH246068   2.238   4.462  12.470 -0.1650 -0.3807  0.1282
 8218TIP3    H146069   2.175   4.390  12.476  0.1487 -0.7084 -0.4677
 8218TIP3    H246070   2.201   4.521  12.404 -1.7590  1.3788  2.3794
 8219TIP3   OH246071   2.394   6.281  14.054 -0.3185 -0.0991 -0.2713
 8219TIP3    H146072   2.484   6.309  14.037 -0.1604 -0.7442 -0.5296
 8219TIP3    H246073   2.393   6.258  14.147 -0.5573  1.1340  0.0429
 8220TIP3   OH246074   4.382   5.732  15.009  0.2156 -0.2120 -0.6099
 8220TIP3    H146075   4.391   5.732  14.914 -1.0759 -0.3882 -0.7453
 8220TIP3    H246076   4.297   5.691  15.025  0.2449  0.1765  0.6025
 8221TIP3   OH246077   5.716   6.206   2.977 -0.1119 -0.0880 -0.2753
 8221TIP3    H146078   5.726   6.169   2.889 -1.6071 -0.8812 -0.1541
 8221TIP3    H246079   5.638   6.162   3.012  1.5510 -1.2729  2.1917
 8222TIP3   OH246080   0.131   2.651   2.828 -0.2911 -0.0667  0.0916
 8222TIP3    H146081   0.219   2.617   2.843 -0.3831  0.5530  2.5457
 8222TIP3    H246082   0.076   2.573   2.818  0.0983 -0.5837  1.7000
 8223TIP3   OH246083   5.435   6.602   0.998  0.5134 -0.1963 -0.0621
 8223TIP3    H146084   5.487   6.660   0.942 -1.4056  0.2519 -1.4848
 8223TIP3    H246085   5.361   6.656   1.026  0.1750 -1.1380  0.9307
 8224TIP3   OH246086   5.914   6.402  10.834 -0.3766 -0.4301  0.0905
 8224TIP3    H146087   5.857   6.431  10.762  0.7502  0.6092 -0.4243
 8224TIP3    H246088   5.937   6.312  10.812 -3.2809 -1.5921  1.2855
 8225TIP3   OH246089   0.623   1.166   5.716  0.2133  0.1208 -0.1866
 8225TIP3    H146090   0.715   1.170   5.691 -0.0388 -1.8514 -1.6951
 8225TIP3    H246091   0.601   1.073   5.711 -2.3042  0.7167 -1.6863
 8226TIP3   OH246092   4.987   6.073   2.579  0.2141 -0.2710  0.4093
 8226TIP3    H146093   5.066   6.102   2.624 -0.2595  0.3800  0.8357
 8226TIP3    H246094   5.019   6.032   2.499  1.0019 -0.3424  0.7551
 8227TIP3   OH246095   2.036   4.786   2.205  0.3932  0.3030 -0.3962
 8227TIP3    H146096   1.956   4.748   2.169 -0.0249 -1.0613  1.7584
 8227TIP3    H246097   2.095   4.796   2.131 -0.9078 -0.9380 -1.6441
 8228TIP3   OH246098   3.361   5.465  17.304 -0.3063  0.0928 -0.0881
 8228TIP3    H146099   3.271   5.489  17.282 -0.9205 -0.3789  1.7408
 8228TIP3    H246100   3.357   5.370  17.320 -0.2125  0.4993  2.9493
 8229TIP3   OH246101   4.353   3.702  15.081 -0.0536 -0.5731  0.5200
 8229TIP3    H146102   4.418   3.635  15.060  1.4469  0.8836  0.2958
 8229TIP3    H246103   4.284   3.655  15.126  1.5442 -2.0772  1.5393
 8230TIP3   OH246104   6.236   6.017   6.067 -0.1055 -0.3017 -0.0347
 8230TIP3    H146105   6.250   6.065   6.148  0.9177  1.1793 -1.0420
 8230TIP3    H246106   6.150   6.044   6.037  0.1232  0.2797 -0.1746
 8231TIP3   OH246107   4.513   1.664  12.505  0.2647 -0.1825  0.5531
 8231TIP3    H146108   4.549   1.592  12.453  0.4580 -0.2109  0.7270
 8231TIP3    H246109   4.588   1.719  12.526 -0.1086  0.9981 -1.0166
 8232TIP3   OH246110   1.566   3.610   0.663 -0.5147 -0.0658  0.0919
 8232TIP3    H146111   1.487   3.652   0.698 -0.0469  0.2058  0.8558
 8232TIP3    H246112   1.636   3.671   0.685 -0.1921  0.1105 -1.3346
 8233TIP3   OH246113   6.098   5.073   1.071  0.0164  0.4135 -0.2601
 8233TIP3    H146114   6.052   4.991   1.056 -2.0981  1.2633  1.1036
 8233TIP3    H246115   6.152   5.085   0.993 -1.2528 -1.2162 -1.4637
 8234TIP3   OH246116   4.707   5.518   0.770 -0.4683  0.1525  0.3242
 8234TIP3    H146117   4.654   5.470   0.706 -0.4306 -1.3696  1.3795
 8234TIP3    H246118   4.658   5.599   0.785 -1.3805 -0.2539 -0.3185
 8235TIP3   OH246119   2.800   1.872   5.266 -0.2750 -0.3977  0.4859
 8235TIP3    H146120   2.889   1.895   5.242 -0.4063 -0.0515  0.3198
 8235TIP3    H246121   2.800   1.776   5.273 -0.0808 -0.4623 -0.2994
 8236TIP3   OH246122   4.929   6.620   1.006 -0.7519  0.1273  0.7991
 8236TIP3    H146123   4.920   6.545   1.065 -3.5937 -1.1228 -1.0218
 8236TIP3    H246124   4.957   6.582   0.923 -1.2565  1.2238  0.1119
 8237TIP3   OH246125   6.021   3.875   6.120 -0.0367 -0.0114 -0.3080
 8237TIP3    H146126   6.092   3.860   6.183 -0.1232 -2.0056 -0.6390
 8237TIP3    H246127   5.941   3.864   6.171 -0.1469  1.6188 -0.0773
 8238TIP3   OH246128   1.246   0.058   6.642  0.6029 -0.3613  0.3403
 8238TIP3    H146129   1.299  -0.019   6.664  0.5580 -0.2575  0.8384
 8238TIP3    H246130   1.307   0.118   6.599  1.1823  0.2093  1.8759
 8239TIP3   OH246131   1.709   1.504  11.730  0.0859  0.0450  0.2630
 8239TIP3    H146132   1.756   1.452  11.664 -1.1246 -1.4665  0.5379
 8239TIP3    H246133   1.617   1.495  11.706 -0.2636  0.6483  1.3357
 8240TIP3   OH246134   0.484   0.712  16.035 -0.4469  0.6365 -0.6007
 8240TIP3    H146135   0.429   0.790  16.037 -1.1684  0.1370  1.0998
 8240TIP3    H246136   0.574   0.746  16.031 -0.7790  1.5384 -0.5095
 8241TIP3   OH246137   2.754   1.185  11.452 -0.1673  0.3647  0.3176
 8241TIP3    H146138   2.698   1.218  11.381  1.2200  0.2078 -0.8953
 8241TIP3    H246139   2.765   1.092  11.434 -1.2375 -0.0845  1.7805
 8242TIP3   OH246140   5.101   6.312  11.271 -0.4093  0.0337 -0.0139
 8242TIP3    H146141   5.050   6.393  11.274  1.3569  1.1717  0.9799
 8242TIP3    H246142   5.049   6.249  11.321 -0.8553  1.1627  0.9980
 8243TIP3   OH246143   4.858   0.587   4.387 -0.4250 -0.3868 -0.0692
 8243TIP3    H146144   4.869   0.612   4.295  1.6266 -1.7914 -0.2694
 8243TIP3    H246145   4.919   0.644   4.434 -1.4119  0.2708  0.4654
 8244TIP3   OH246146   2.904   3.848  13.678 -0.4276  0.1176  0.1406
 8244TIP3    H146147   2.817   3.845  13.637 -0.4719  3.2933 -0.2172
 8244TIP3    H246148   2.961   3.800  13.618 -1.1254  1.8834 -2.0823
 8245TIP3   OH246149   2.299   3.556  14.131 -0.0648  0.0984 -0.3869
 8245TIP3    H146150   2.358   3.495  14.087  3.5909  1.4798  2.1075
 8245TIP3    H246151   2.266   3.506  14.206 -2.9557 -0.9255 -2.1889
 8246TIP3   OH246152   2.646   5.229   0.395  0.0340 -0.8441  0.6505
 8246TIP3    H146153   2.735   5.266   0.394 -0.1222 -0.4493  1.1303
 8246TIP3    H246154   2.632   5.205   0.486 -0.5733 -0.3666  0.6861
 8247TIP3   OH246155   6.316   0.833   2.543 -0.1116  0.1139  0.1799
 8247TIP3    H146156   6.263   0.912   2.531  0.0842  0.2220  0.0191
 8247TIP3    H246157   6.390   0.844   2.483  0.0207 -0.1005  0.3013
 8248TIP3   OH246158   6.147   3.125  12.458 -0.7415  0.3376 -0.3208
 8248TIP3    H146159   6.121   3.038  12.487 -0.6012  0.1589 -0.7176
 8248TIP3    H246160   6.178   3.169  12.537 -1.0975  0.1339 -0.0650
 8249TIP3   OH246161   4.409   4.691   0.237  0.4738  0.4397  0.6509
 8249TIP3    H146162   4.355   4.769   0.246 -0.8546 -0.5284  1.3447
 8249TIP3    H246163   4.423   4.661   0.327 -1.4699 -1.7192  0.3113
 8250TIP3   OH246164   3.975   0.257  12.814 -0.0986  0.3203  0.1789
 8250TIP3    H146165   3.962   0.339  12.766 -0.0282 -0.4876 -1.2901
 8250TIP3    H246166   4.068   0.255  12.833 -0.0316  0.4105 -0.1224
 8251TIP3   OH246167   3.154   4.858  14.012 -0.0184 -0.0694  0.6236
 8251TIP3    H146168   3.106   4.851  13.930 -0.3649  0.3017  0.7951
 8251TIP3    H246169   3.181   4.950  14.017  2.1370 -0.5887 -0.2729
 8252TIP3   OH246170   4.900   5.826   5.129 -0.0192  0.5980 -0.3715
 8252TIP3    H146171   4.922   5.882   5.203  1.2815 -0.8711  0.4165
 8252TIP3    H246172   4.943   5.866   5.053  1.8939  0.0678  0.3922
 8253TIP3   OH246173   1.135   0.927  14.044 -0.0898  0.2680 -0.5334
 8253TIP3    H146174   1.227   0.901  14.055 -0.5248 -2.1164 -1.7659
 8253TIP3    H246175   1.139   1.014  14.005  1.7000 -0.1095 -1.3125
 8254TIP3   OH246176   6.772   4.635  14.392 -0.5239 -0.1474  0.3990
 8254TIP3    H146177   6.858   4.669  14.369 -1.2258  0.0711 -2.2188
 8254TIP3    H246178   6.737   4.698  14.455  0.4127  0.8803 -0.0718
 8255TIP3   OH246179   1.683   6.126   5.188 -0.1102  0.6727 -0.0537
 8255TIP3    H146180   1.602   6.082   5.164  0.6716  0.3104 -2.2918
 8255TIP3    H246181   1.659   6.187   5.258 -2.0760 -0.1308  0.0154
 8256TIP3   OH246182   3.947   5.769  15.296  0.3079 -0.3650 -0.4164
 8256TIP3    H146183   3.985   5.751  15.382  0.4142 -0.4391 -0.4783
 8256TIP3    H246184   4.006   5.726  15.234  0.4173 -0.0324 -0.5469
 8257TIP3   OH246185   4.448   4.039   1.599  0.9147 -0.0366  0.2796
 8257TIP3    H146186   4.420   4.038   1.507 -0.2950 -1.5168  0.6146
 8257TIP3    H246187   4.453   4.131   1.622 -0.2462  0.3422 -0.8561
 8258TIP3   OH246188   3.093   6.745   4.896  0.1528 -0.3635 -0.2048
 8258TIP3    H146189   3.019   6.703   4.853  0.4390 -1.2876  0.1733
 8258TIP3    H246190   3.054   6.803   4.961 -0.2355 -0.9808  0.1140
 8259TIP3   OH246191   4.289   0.147   4.594  0.1706  0.7248  0.6930
 8259TIP3    H146192   4.245   0.186   4.518 -2.1599 -0.4402  1.3694
 8259TIP3    H246193   4.370   0.110   4.558 -1.1871 -0.4208 -1.4142
 8260TIP3   OH246194   4.999   4.522   0.236 -0.2319  0.1511 -0.3241
 8260TIP3    H146195   4.909   4.554   0.246 -1.1735 -1.9380 -1.4840
 8260TIP3    H246196   5.042   4.587   0.181 -0.5570  1.9498  1.4638
 8261TIP3   OH246197   3.829   3.730  11.835  0.4984 -0.1804 -0.1165
 8261TIP3    H146198   3.792   3.669  11.771  0.4666 -0.9203  0.5936
 8261TIP3    H246199   3.789   3.705  11.918  2.2617 -0.7544  0.6186
 8262TIP3   OH246200   6.574   2.827   4.221 -0.1118 -0.2046 -0.3139
 8262TIP3    H146201   6.604   2.739   4.242 -1.1698  0.2268  4.0579
 8262TIP3    H246202   6.650   2.871   4.184  0.1702 -3.0425 -3.6597
 8263TIP3   OH246203   5.152   6.018  14.958  0.0852  0.3027  0.5897
 8263TIP3    H146204   5.067   5.997  14.920  0.7891 -2.1716  0.1537
 8263TIP3    H246205   5.164   5.951  15.026  0.9383  1.7004  1.8686
 8264TIP3   OH246206   4.192   1.722   4.985 -0.2882  0.3749 -0.3715
 8264TIP3    H146207   4.181   1.808   4.945  1.0299  0.1324 -1.3200
 8264TIP3    H246208   4.287   1.710   4.990 -0.4453 -0.7650  0.3411
 8265TIP3   OH246209   6.414   6.738   3.540 -1.0072  0.0022 -0.2599
 8265TIP3    H146210   6.458   6.655   3.518 -3.6073 -1.8426  1.0421
 8265TIP3    H246211   6.427   6.792   3.462 -0.6170 -2.2372 -1.8608
 8266TIP3   OH246212   3.906   0.447  16.511 -0.1310 -0.6315 -0.7153
 8266TIP3    H146213   3.900   0.353  16.526 -0.7067 -0.8717 -2.2714
 8266TIP3    H246214   3.999   0.463  16.495  0.4009 -0.4644  2.1413
 8267TIP3   OH246215   6.110   3.930   5.865 -0.2977 -0.1722  0.0086
 8267TIP3    H146216   6.042   3.989   5.835  0.2187  0.2274 -0.3902
 8267TIP3    H246217   6.104   3.932   5.960  0.8076  1.8614  0.0989
 8268TIP3   OH246218   6.439   4.322  10.933 -0.2777  0.0182  0.0833
 8268TIP3    H146219   6.346   4.304  10.948 -0.3048  1.4273  2.0381
 8268TIP3    H246220   6.441   4.373  10.853 -1.0340 -1.0298 -0.6396
 8269TIP3   OH246221   5.544   3.417   5.827 -0.2872 -0.0843 -0.4183
 8269TIP3    H146222   5.464   3.366   5.841 -0.2947 -0.3459 -1.3142
 8269TIP3    H246223   5.518   3.508   5.842 -0.1948 -0.3425  1.5285
 8270TIP3   OH246224   0.110   5.923  11.565  0.3549 -0.5877  0.7373
 8270TIP3    H146225   0.200   5.903  11.539 -0.2212 -1.8618 -0.4049
 8270TIP3    H246226   0.079   5.842  11.606 -0.5609 -0.4854  0.2561
 8271TIP3   OH246227   5.902   0.934   2.448  0.1812 -0.2608 -0.3140
 8271TIP3    H146228   5.810   0.958   2.460  0.1603  0.1532 -1.2468
 8271TIP3    H246229   5.910   0.912   2.355  0.8292 -1.1894 -0.0554
 8272TIP3   OH246230   1.370   2.766  15.855 -0.3151  0.0112 -0.3894
 8272TIP3    H146231   1.425   2.767  15.777 -0.2595 -1.5470 -0.4055
 8272TIP3    H246232   1.366   2.674  15.880 -1.1917  0.3586  0.8431
 8273TIP3   OH246233   1.430   3.110  12.541  0.2444 -0.4071 -0.1883
 8273TIP3    H146234   1.519   3.077  12.527 -0.4173 -2.5338  0.2575
 8273TIP3    H246235   1.416   3.171  12.469  2.0587 -0.0250 -0.2719
 8274TIP3   OH246236   6.444   3.000   1.768  0.0237  0.1505  0.0165
 8274TIP3    H146237   6.534   3.017   1.793 -0.8010  1.6854  2.2957
 8274TIP3    H246238   6.392   3.043   1.835 -2.4329 -0.2735 -1.4779
 8275TIP3   OH246239   3.907   0.950  17.078 -0.1015 -0.0088 -0.0396
 8275TIP3    H146240   3.880   1.038  17.053  2.2054  0.5797 -0.6901
 8275TIP3    H246241   3.973   0.926  17.014  0.7270 -1.4229  1.2661
 8276TIP3   OH246242   2.173   4.744  12.884 -0.1432  0.3706  0.1944
 8276TIP3    H146243   2.179   4.839  12.898  1.8875  0.4984 -1.0434
 8276TIP3    H246244   2.219   4.707  12.959 -2.5750  0.1967  1.6934
 8277TIP3   OH246245   1.166   3.667  13.497 -0.1112  0.2510 -0.4806
 8277TIP3    H146246   1.079   3.661  13.458  0.0308 -1.2968 -0.6050
 8277TIP3    H246247   1.225   3.633  13.430  0.5931  1.1361 -0.3370
 8278TIP3   OH246248   0.178   1.881  11.703  0.3581 -0.5129  0.7268
 8278TIP3    H146249   0.191   1.956  11.762  1.7607  0.4362 -0.7274
 8278TIP3    H246250   0.083   1.873  11.697  0.1689  1.2344  0.8324
 8279TIP3   OH246251   0.285   0.411  12.663 -0.2500 -0.1124 -0.0619
 8279TIP3    H146252   0.372   0.443  12.637 -0.8066  1.2228 -0.3602
 8279TIP3    H246253   0.268   0.453  12.748  0.0723 -1.6866  0.8214
 8280TIP3   OH246254   1.870   5.129  11.828  0.1407 -0.3908  0.2051
 8280TIP3    H146255   1.785   5.114  11.785  0.1948  0.9864 -0.4077
 8280TIP3    H246256   1.907   5.041  11.837  0.7961 -0.7548 -3.9292
 8281TIP3   OH246257   3.992   5.100   4.648 -0.3821  0.7245 -0.0275
 8281TIP3    H146258   4.073   5.055   4.673 -0.1860  1.4182  0.6607
 8281TIP3    H246259   4.022   5.177   4.599 -0.7308 -0.1017 -1.5997
 8282TIP3   OH246260   2.805   1.272  13.989  0.5012  0.1552  0.2182
 8282TIP3    H146261   2.763   1.354  13.961  0.7159  0.2420  0.1522
 8282TIP3    H246262   2.792   1.213  13.914 -1.7743 -0.6573  1.1607
 8283TIP3   OH246263   3.087   5.744  13.619  0.5257 -0.6647 -0.0296
 8283TIP3    H146264   3.073   5.765  13.527 -0.2184 -1.5996 -0.1393
 8283TIP3    H246265   3.180   5.763  13.634  0.2892  1.0653 -0.5236
 8284TIP3   OH246266   5.256   3.468   5.281 -0.2100 -0.2848 -0.0877
 8284TIP3    H146267   5.266   3.399   5.215  0.6704 -0.6093  0.3742
 8284TIP3    H246268   5.162   3.488   5.280 -0.2725 -0.5474 -1.1690
 8285TIP3   OH246269   0.755   2.938   0.278 -0.3134  0.6867 -0.5557
 8285TIP3    H146270   0.679   2.885   0.302  0.1173  0.7279  1.0454
 8285TIP3    H246271   0.793   2.894   0.202 -0.8635 -0.4071 -0.2082
 8286TIP3   OH246272   4.366   6.067   4.501  0.0752  0.1481  0.2897
 8286TIP3    H146273   4.335   6.117   4.576 -1.3826 -1.2659  0.6753
 8286TIP3    H246274   4.397   6.134   4.439 -0.2171  1.4182  1.4723
 8287TIP3   OH246275   0.425   3.963   0.936 -0.3762 -0.3021  0.4008
 8287TIP3    H146276   0.448   4.005   1.018  0.1398 -0.6190  0.4254
 8287TIP3    H246277   0.498   3.984   0.877 -0.3176 -0.7970  0.2924
 8288TIP3   OH246278   4.134   0.962   1.958 -0.2804 -0.7290  0.0005
 8288TIP3    H146279   4.081   0.886   1.935  2.2541 -1.9702 -2.3284
 8288TIP3    H246280   4.075   1.036   1.950 -1.6450 -1.9804 -2.8459
 8289TIP3   OH246281   5.729   3.710   3.671  0.0885  0.1601 -0.3056
 8289TIP3    H146282   5.776   3.776   3.620  0.4843  0.0138 -0.1369
 8289TIP3    H246283   5.705   3.755   3.752 -0.4006  0.3461 -0.5508
 8290TIP3   OH246284   4.257   4.322  14.004  0.2259  0.3514  0.0376
 8290TIP3    H146285   4.252   4.331  14.100  0.6291  0.7980  0.0190
 8290TIP3    H246286   4.209   4.399  13.971 -0.3913 -0.0944 -0.1203
 8291TIP3   OH246287   6.227   0.371  16.694 -0.1819 -0.8542  0.1283
 8291TIP3    H146288   6.255   0.398  16.606  0.0895  1.0677  0.7611
 8291TIP3    H246289   6.307   0.335  16.734 -0.1174 -1.0123 -0.1352
 8292TIP3   OH246290   0.528   3.151   4.907  0.4245  0.1879 -0.4410
 8292TIP3    H146291   0.492   3.239   4.919 -0.4143  0.1506 -2.3411
 8292TIP3    H246292   0.579   3.156   4.827  1.0020 -0.8894 -0.1645
 8293TIP3   OH246293   4.180   1.725  11.827 -0.0629  0.5353  0.4461
 8293TIP3    H146294   4.184   1.724  11.731 -1.7364 -0.2717  0.3404
 8293TIP3    H246295   4.129   1.804  11.847 -0.7247  0.0843  0.5848
 8294TIP3   OH246296   5.668   3.359  15.916  0.0462 -0.5020  0.1096
 8294TIP3    H146297   5.710   3.298  15.978  0.6025 -0.6029 -0.3564
 8294TIP3    H246298   5.659   3.441  15.966 -1.5733 -1.2146  1.0523
 8295TIP3   OH246299   4.483   4.218   5.819 -0.1550 -0.2936  0.6786
 8295TIP3    H146300   4.498   4.301   5.864  1.5137 -1.0931  1.7300
 8295TIP3    H246301   4.524   4.152   5.876  1.1124 -1.5036 -1.4577
 8296TIP3   OH246302   5.284   0.879   3.576 -0.4984  0.0288  0.2620
 8296TIP3    H146303   5.219   0.817   3.543 -0.6605  0.4055 -0.1467
 8296TIP3    H246304   5.276   0.955   3.518 -1.3840  1.0616  1.6834
 8297TIP3   OH246305   3.311   3.544  15.837  0.4508  0.2229  0.7498
 8297TIP3    H146306   3.346   3.533  15.748  0.8853  1.5257  0.7327
 8297TIP3    H246307   3.388   3.539  15.893  0.4449  1.2750  0.8746
 8298TIP3   OH246308   6.315   5.782   1.252  0.5225  0.1446  0.2786
 8298TIP3    H146309   6.275   5.704   1.213 -0.7068  1.5866 -1.4860
 8298TIP3    H246310   6.296   5.774   1.346 -1.5081 -0.6082 -0.1462
 8299TIP3   OH246311   3.688   5.503  13.501 -0.4290 -0.1554 -1.0501
 8299TIP3    H146312   3.729   5.589  13.510 -0.8084  0.1596 -2.1011
 8299TIP3    H246313   3.755   5.449  13.458 -0.6804  0.0240 -1.6810
 8300TIP3   OH246314   6.147   0.220  15.424  0.3180 -0.2811  0.3235
 8300TIP3    H146315   6.082   0.283  15.395  0.7202  1.0885  2.1985
 8300TIP3    H246316   6.151   0.231  15.519  4.0170  0.4833  0.2509
 8301TIP3   OH246317   3.233   6.553   4.246 -0.2059 -0.1272  0.7802
 8301TIP3    H146318   3.281   6.636   4.251 -1.5106  0.7438 -0.3934
 8301TIP3    H246319   3.302   6.487   4.238  0.8408  1.0061 -0.0575
 8302TIP3   OH246320   2.190   1.272   5.315  0.0811  0.1437 -0.2294
 8302TIP3    H146321   2.176   1.239   5.226  0.2475  0.3328 -0.3275
 8302TIP3    H246322   2.191   1.194   5.370  0.6090 -0.0327 -0.4756
 8303TIP3   OH246323   5.004   2.023  17.318 -0.0858 -0.2182 -0.2360
 8303TIP3    H146324   4.957   2.087  17.372 -0.5657 -0.5381 -0.2637
 8303TIP3    H246325   5.066   2.075  17.267  1.4198 -0.0183  1.6486
 8304TIP3   OH246326   1.417   0.640   4.800  0.1426 -0.3986  0.4802
 8304TIP3    H146327   1.462   0.724   4.805  0.9613 -0.9105  2.3573
 8304TIP3    H246328   1.428   0.612   4.709 -1.0851  1.9803 -0.5071
 8305TIP3   OH246329   2.880   5.461  14.724 -0.0749  0.5711  0.1291
 8305TIP3    H146330   2.972   5.440  14.710 -0.0080  0.1248  1.1584
 8305TIP3    H246331   2.855   5.410  14.801 -1.0492  1.0728  0.1593
 8306TIP3   OH246332   5.088   0.413  12.517 -0.3127  0.2599  0.3772
 8306TIP3    H146333   5.144   0.390  12.591  0.8053  1.6581  0.0280
 8306TIP3    H246334   4.999   0.409  12.552  0.0788 -0.7271  1.3179
 8307TIP3   OH246335   3.691   2.900  15.830  0.0723  0.3158  0.1620
 8307TIP3    H146336   3.708   2.811  15.801  0.4605  0.5668 -0.3917
 8307TIP3    H246337   3.676   2.892  15.924 -0.1971 -0.3706  0.0632
 8308TIP3   OH246338   2.148   0.946  11.491  0.2140  0.1161 -0.3657
 8308TIP3    H146339   2.103   0.866  11.464  1.6716 -0.5408 -0.9757
 8308TIP3    H246340   2.130   1.009  11.421  0.1984 -0.1143 -0.5693
 8309TIP3   OH246341   4.920   6.092  11.331 -0.2917  0.1062  0.4772
 8309TIP3    H146342   4.858   6.032  11.373 -1.1137  1.1727  0.8324
 8309TIP3    H246343   4.866   6.144  11.271  0.3660  0.6211  0.3161
 8310TIP3   OH246344   0.085   2.070   2.793 -0.3613  0.4822 -0.4031
 8310TIP3    H146345   0.089   2.109   2.881  3.9857  1.0140 -0.6460
 8310TIP3    H246346   0.028   1.994   2.804 -1.8422  1.8156  2.2661
 8311TIP3   OH246347   6.039   5.659  16.083  0.6619 -0.4770 -0.0751
 8311TIP3    H146348   5.987   5.674  16.004  0.1574  1.8335  0.5964
 8311TIP3    H246349   5.976   5.633  16.149  0.7379 -0.2637  0.0855
 8312TIP3   OH246350   1.644   4.321   1.237  0.2482  0.2353  0.1899
 8312TIP3    H146351   1.581   4.344   1.306 -0.4228  1.9603 -0.9126
 8312TIP3    H246352   1.704   4.396   1.234  0.5776 -0.0497 -0.7167
 8313TIP3   OH246353   0.164   1.960  17.317  0.0751 -0.1978 -0.5719
 8313TIP3    H146354   0.188   1.932  17.228  1.6796  1.3794 -0.6979
 8313TIP3    H246355   0.069   1.964  17.316  0.0236 -1.0627 -1.9356
 8314TIP3   OH246356   5.713   1.698  13.949  0.3144  0.1966  0.0062
 8314TIP3    H146357   5.749   1.665  14.031  0.0927 -1.4708 -0.5380
 8314TIP3    H246358   5.635   1.746  13.975  0.6319  0.2968  0.8168
 8315TIP3   OH246359   6.525   2.923  14.511  0.2994  0.3911 -0.2198
 8315TIP3    H146360   6.494   2.851  14.456  1.1183  0.9320 -1.4270
 8315TIP3    H246361   6.453   2.985  14.513 -0.8386 -0.8603  1.6948
 8316TIP3   OH246362   6.551   6.215  15.487 -0.6087  0.6334 -0.4379
 8316TIP3    H146363   6.494   6.199  15.562 -1.9828 -0.0219 -1.5883
 8316TIP3    H246364   6.588   6.129  15.467  0.3175  0.9392 -0.0885
 8317TIP3   OH246365   6.610   1.929  15.145  0.1783 -0.7459 -0.7610
 8317TIP3    H146366   6.521   1.914  15.112  0.2156  1.2659 -1.9884
 8317TIP3    H246367   6.599   1.941  15.239 -1.1260  0.8435 -1.0546
 8318TIP3   OH246368   2.067   6.548  11.388 -0.2772  0.7789  0.6079
 8318TIP3    H146369   2.132   6.582  11.326 -1.1924  0.0907 -0.7776
 8318TIP3    H246370   2.115   6.487  11.443  0.3505  0.6110 -0.1146
 8319TIP3   OH246371   2.100   5.124  13.354 -0.2885  0.2120 -0.2062
 8319TIP3    H146372   2.112   5.041  13.307  0.4043  0.4063 -0.3764
 8319TIP3    H246373   2.173   5.129  13.415 -1.8944 -0.6643  1.8918
 8320TIP3   OH246374   1.478   4.503   3.567  0.7056 -0.0848 -0.1475
 8320TIP3    H146375   1.398   4.546   3.537  0.8903 -0.3031 -0.9783
 8320TIP3    H246376   1.535   4.504   3.491  0.8996 -1.3620 -0.0291
 8321TIP3   OH246377   5.217   2.389   6.014 -0.7741 -0.3323 -0.0525
 8321TIP3    H146378   5.129   2.413   6.042 -0.1214  0.9946  0.9619
 8321TIP3    H246379   5.205   2.306   5.967 -2.4135 -0.7369  0.9888
 8322TIP3   OH246380   6.523   1.159   0.071 -0.1701 -0.0845  0.0182
 8322TIP3    H146381   6.551   1.119  -0.011  0.2041  1.0239 -0.4154
 8322TIP3    H246382   6.443   1.206   0.049  0.3154  0.8043  0.1037
 8323TIP3   OH246383   5.140   3.383   2.910  0.4670  0.1708 -0.0028
 8323TIP3    H146384   5.178   3.349   2.830  0.5863 -0.2795  0.2422
 8323TIP3    H246385   5.143   3.309   2.971 -0.2493  0.3053  0.2015
 8324TIP3   OH246386   0.361   1.929   2.275 -0.1102 -0.0614 -0.4404
 8324TIP3    H146387   0.381   2.023   2.277  1.8757 -0.4324  0.2681
 8324TIP3    H246388   0.447   1.887   2.278 -0.9972 -1.9148  0.8995
 8325TIP3   OH246389   4.250   1.769   5.611 -0.2647  0.3843  0.3128
 8325TIP3    H146390   4.299   1.844   5.645  0.2229  0.3768 -0.3735
 8325TIP3    H246391   4.309   1.695   5.621  0.7923  0.7255 -2.5622
 8326TIP3   OH246392   6.540   4.501  13.977 -0.3402  1.2988 -0.1566
 8326TIP3    H146393   6.574   4.431  14.032  2.1564  2.1250 -0.5456
 8326TIP3    H246394   6.556   4.581  14.027  3.0647  2.2014 -2.3774
 8327TIP3   OH246395   6.092   6.481  16.494 -0.0115 -0.3091  0.0575
 8327TIP3    H146396   6.095   6.396  16.450 -0.8006 -1.2239  1.6745
 8327TIP3    H246397   5.999   6.500  16.506  0.1650  0.2327  0.6891
 8328TIP3   OH246398   5.081   1.727  16.853  0.6953  0.1602 -0.2955
 8328TIP3    H146399   5.125   1.803  16.815 -0.2135  0.3843 -0.9558
 8328TIP3    H246400   5.076   1.747  16.946 -0.0175  1.1932 -0.5323
 8329TIP3   OH246401   3.666   0.617   0.648  0.2985 -0.3304 -0.4139
 8329TIP3    H146402   3.603   0.545   0.652 -0.2015  0.1007 -0.4911
 8329TIP3    H246403   3.750   0.576   0.669 -0.2261 -0.6499  1.2555
 8330TIP3   OH246404   2.756   5.501  11.538 -0.8368 -0.2003 -0.5067
 8330TIP3    H146405   2.831   5.463  11.583  0.7025  2.4186 -0.6600
 8330TIP3    H246406   2.755   5.592  11.567 -1.3260  0.9480 -3.7616
 8331TIP3   OH246407   4.899   4.359  13.925  0.0397  0.0202  0.3371
 8331TIP3    H146408   4.888   4.265  13.917 -0.8565  0.1555 -0.2459
 8331TIP3    H246409   4.966   4.381  13.859  0.8825 -0.3061  1.0704
 8332TIP3   OH246410   0.521   1.910   1.461  0.3815  0.0135  0.1425
 8332TIP3    H146411   0.514   1.952   1.547 -0.4592 -0.1764  0.1738
 8332TIP3    H246412   0.443   1.940   1.413  0.2123 -0.8317 -0.1293
 8333TIP3   OH246413   4.581   2.172  14.358 -0.2722 -0.1739 -0.1927
 8333TIP3    H146414   4.492   2.196  14.334  0.4500  2.3320 -0.6046
 8333TIP3    H246415   4.636   2.208  14.289  1.0428 -2.7075 -0.5910
 8334TIP3   OH246416   1.134   6.442  13.951  0.3946 -0.0226  0.1633
 8334TIP3    H146417   1.076   6.508  13.991  0.5096  1.0160 -1.3031
 8334TIP3    H246418   1.098   6.429  13.864  1.2811 -0.7842 -0.1016
 8335TIP3   OH246419   4.053   1.558  12.198  0.1456 -0.5121 -0.8144
 8335TIP3    H146420   4.117   1.562  12.126 -0.5406  1.6373 -1.3704
 8335TIP3    H246421   4.106   1.561  12.277  0.7831  1.2917 -1.2698
 8336TIP3   OH246422   2.046   2.565   6.086 -0.1442 -0.0030  0.1155
 8336TIP3    H146423   2.106   2.537   6.156  0.4132 -0.3127 -0.4697
 8336TIP3    H246424   1.960   2.533   6.114 -0.0753  0.5962  1.0513
 8337TIP3   OH246425   2.365   2.977  10.888  0.2890 -0.4623 -0.4321
 8337TIP3    H146426   2.274   2.999  10.870  0.6035 -1.0649 -3.1241
 8337TIP3    H246427   2.409   3.062  10.897 -0.3474 -0.1589 -0.1323
 8338TIP3   OH246428   6.205   6.590  12.642 -0.1621 -0.8079 -0.4846
 8338TIP3    H146429   6.268   6.552  12.580 -0.3225 -2.3334  0.2352
 8338TIP3    H246430   6.178   6.516  12.696  1.5340  0.7480  2.7976
 8339TIP3   OH246431   3.143   5.553  15.481 -0.2182  0.1311 -0.8909
 8339TIP3    H146432   3.086   5.614  15.436  0.7292  2.0785  0.4166
 8339TIP3    H246433   3.231   5.580  15.457  0.2377 -0.6355 -0.1436
 8340TIP3   OH246434   1.685   4.811  12.882 -0.1788 -0.3604 -0.0303
 8340TIP3    H146435   1.728   4.823  12.798  1.2884 -3.5321  0.0959
 8340TIP3    H246436   1.593   4.798  12.861 -0.2794  1.3804 -0.8304
 8341TIP3   OH246437   2.468   1.462   5.880 -0.5642 -0.0239 -0.0497
 8341TIP3    H146438   2.504   1.541   5.839  0.5108 -0.8631 -0.7803
 8341TIP3    H246439   2.425   1.494   5.959  0.2674  1.2374 -0.0768
 8342TIP3   OH246440   1.199   4.278  10.362  0.3463  0.4892  0.5637
 8342TIP3    H146441   1.142   4.238  10.428 -0.2494  0.9124  0.3134
 8342TIP3    H246442   1.236   4.204  10.315 -1.2217  0.2035 -0.2981
 8343TIP3   OH246443   3.103   4.009   5.992  0.1234  0.0545 -0.0331
 8343TIP3    H146444   3.146   4.094   5.994  1.3818 -0.4871 -1.8174
 8343TIP3    H246445   3.038   4.016   5.922 -1.3337  0.2060  1.2812
 8344TIP3   OH246446   1.876   2.604   3.016 -0.5239 -0.2512 -0.5546
 8344TIP3    H146447   1.838   2.674   3.069  1.9517  1.4897 -0.9179
 8344TIP3    H246448   1.841   2.619   2.928 -0.7263 -0.0615 -0.4443
 8345TIP3   OH246449   1.912   0.058  14.430 -0.1448  0.4891 -0.3867
 8345TIP3    H146450   1.966   0.018  14.499 -1.7408  0.4007  0.8624
 8345TIP3    H246451   1.823   0.056  14.465 -1.1548 -0.2607 -2.7814
 8346TIP3   OH246452   1.790   2.993  11.831 -0.0966 -0.0008 -0.1307
 8346TIP3    H146453   1.814   3.085  11.831 -0.8465  0.2043  0.6305
 8346TIP3    H246454   1.728   2.984  11.758 -0.0522  0.1075 -0.1809
 8347TIP3   OH246455   5.566   1.029   1.755  0.4622 -0.3741 -0.2860
 8347TIP3    H146456   5.608   0.967   1.814 -0.4995 -0.3511  0.4423
 8347TIP3    H246457   5.473   1.008   1.760  0.2551  0.3256 -0.9730
 8348TIP3   OH246458   2.559   1.984   3.807 -0.3668  0.2294 -0.0724
 8348TIP3    H146459   2.639   1.984   3.754 -0.6909 -0.0360 -0.5624
 8348TIP3    H246460   2.590   1.972   3.897  0.0899 -0.6946 -0.3411
 8349TIP3   OH246461   1.199   4.643  14.971  0.1475 -0.4183  0.2758
 8349TIP3    H146462   1.171   4.647  14.879 -1.0121 -0.8706  0.5914
 8349TIP3    H246463   1.137   4.583  15.012  1.1346 -0.8366  1.1986
 8350TIP3   OH246464   1.860   5.883  11.504 -0.5138 -0.0154  0.2428
 8350TIP3    H146465   1.910   5.874  11.422 -0.2097 -0.2104  0.4443
 8350TIP3    H246466   1.775   5.844  11.485 -0.5615  0.2489 -0.0838
 8351TIP3   OH246467   1.459   0.964   3.362 -0.1692 -0.4058 -0.2722
 8351TIP3    H146468   1.470   1.056   3.385  0.1783 -0.6757  0.7004
 8351TIP3    H246469   1.520   0.949   3.290 -0.4081  0.1715 -0.6061
 8352TIP3   OH246470   5.975   3.385   4.679  0.0384  0.4959  0.1125
 8352TIP3    H146471   5.911   3.447   4.644 -0.2226 -0.5653 -1.4173
 8352TIP3    H246472   6.043   3.379   4.612  1.1642  0.7037  1.1849
 8353TIP3   OH246473   1.382   0.603   5.526  0.3329 -0.4407 -0.1438
 8353TIP3    H146474   1.468   0.634   5.499  0.4793  0.5775  1.3565
 8353TIP3    H246475   1.399   0.541   5.597 -0.1213 -1.2290 -0.7134
 8354TIP3   OH246476   6.255   3.614  14.960 -0.4110 -0.1844 -0.8269
 8354TIP3    H146477   6.262   3.519  14.950  0.6975 -0.2557  0.4347
 8354TIP3    H246478   6.168   3.635  14.926 -1.8449 -2.0372  1.4136
 8355TIP3   OH246479   1.090   1.251  12.834 -0.4617  0.1566 -0.2665
 8355TIP3    H146480   1.051   1.337  12.817  2.2081  1.7714  1.0998
 8355TIP3    H246481   1.119   1.255  12.925  1.5306 -1.4087 -0.7503
 8356TIP3   OH246482   2.282   4.454  15.460  0.0932 -0.1102 -0.2821
 8356TIP3    H146483   2.245   4.469  15.547  1.6738  0.1328  0.3746
 8356TIP3    H246484   2.334   4.533  15.442 -0.1835 -0.1767 -1.4324
 8357TIP3   OH246485   1.420   2.160  12.921 -0.0095  0.3856  0.1587
 8357TIP3    H146486   1.380   2.166  12.834  0.0870 -0.0255  0.0790
 8357TIP3    H246487   1.451   2.069  12.926  0.0952  0.4429  0.5747
 8358TIP3   OH246488   3.394   5.077   2.302 -0.6323  0.2948 -0.0418
 8358TIP3    H146489   3.326   5.115   2.248 -0.0545  1.0855 -0.2318
 8358TIP3    H246490   3.386   4.983   2.288  0.3669  0.5173 -2.6121
 8359TIP3   OH246491   1.633   6.069   2.055  0.2606  0.3396 -0.2041
 8359TIP3    H146492   1.598   6.158   2.050  0.5532  0.4350 -0.6011
 8359TIP3    H246493   1.726   6.079   2.035 -0.0828 -0.3040 -2.2755
 8360TIP3   OH246494   2.361   0.930  10.381 -0.0653  0.2023 -0.7264
 8360TIP3    H146495   2.447   0.952  10.417  0.0658  0.2812 -1.0854
 8360TIP3    H246496   2.380   0.883  10.300 -0.3490 -0.9840 -0.1229
 8361TIP3   OH246497   0.447   5.889  12.500  0.0066 -0.2446 -0.2206
 8361TIP3    H146498   0.390   5.961  12.528 -1.8753 -2.2261  1.3873
 8361TIP3    H246499   0.394   5.839  12.439  1.3874 -0.2113 -1.5183
 8362TIP3   OH246500   3.307   6.152  12.598  0.6359  0.2889 -0.1726
 8362TIP3    H146501   3.402   6.153  12.598  0.7235 -1.8928  1.0951
 8362TIP3    H246502   3.283   6.091  12.527 -0.0765  3.8256 -3.3276
 8363TIP3   OH246503   0.632   5.990  14.129 -0.1338  0.6554 -0.1321
 8363TIP3    H146504   0.654   6.077  14.095 -1.6868  0.7168 -1.0906
 8363TIP3    H246505   0.685   5.930  14.077  2.3444  1.0363  1.7434
 8364TIP3   OH246506   3.107   1.604  12.236  0.6457 -0.1829 -0.2577
 8364TIP3    H146507   3.193   1.620  12.276 -0.0716 -1.9766  2.2142
 8364TIP3    H246508   3.054   1.679  12.264  0.2095 -1.3046  2.2691
 8365TIP3   OH246509   1.118   0.601  15.487  0.2017 -0.6172 -1.0505
 8365TIP3    H146510   1.078   0.535  15.431  0.7109 -1.2363 -0.6926
 8365TIP3    H246511   1.132   0.676  15.430 -1.4418 -0.3779 -1.2037
 8366TIP3   OH246512   2.611   0.007  15.495  0.0122  0.6313  0.4008
 8366TIP3    H146513   2.658  -0.060  15.544 -1.4125 -0.4345  0.3438
 8366TIP3    H246514   2.631  -0.011  15.404  1.4635  1.7211  0.4501
 8367TIP3   OH246515   3.416   4.849  12.732  0.7859 -0.1388 -0.9343
 8367TIP3    H146516   3.428   4.755  12.717  1.7745 -0.1536 -0.1630
 8367TIP3    H246517   3.490   4.890  12.688 -0.8063  0.5138 -3.2195
 8368TIP3   OH246518   0.543   5.483   4.993  0.4275  0.5502 -0.0407
 8368TIP3    H146519   0.466   5.436   4.963  1.6095 -0.0298 -2.3547
 8368TIP3    H246520   0.516   5.575   4.995 -0.5256  0.2798 -0.0640
 8369TIP3   OH246521   3.456   0.610   4.332  0.0160  0.0861  0.0346
 8369TIP3    H146522   3.519   0.581   4.397 -0.9792  0.7774  1.3393
 8369TIP3    H246523   3.371   0.601   4.375 -0.7230  0.0398 -1.3670
 8370TIP3   OH246524   0.525   1.657  14.882  0.2972  0.3114  0.2511
 8370TIP3    H146525   0.585   1.717  14.837  0.0105 -0.7204 -1.5941
 8370TIP3    H246526   0.440   1.700  14.879  0.1590 -0.0125 -0.7739
 8371TIP3   OH246527   3.227   2.350  16.297  0.2736  0.4951 -0.3379
 8371TIP3    H146528   3.297   2.407  16.263  0.4797  0.1480 -0.5090
 8371TIP3    H246529   3.255   2.328  16.386 -0.2876  1.4391  0.0881
 8372TIP3   OH246530   6.267   3.911   1.850 -0.1983 -0.2671 -0.1402
 8372TIP3    H146531   6.215   3.910   1.931  1.1288 -1.6041  0.7334
 8372TIP3    H246532   6.355   3.937   1.878 -0.0033  0.4536 -1.3594
 8373TIP3   OH246533   4.860   0.980   0.453  0.2341  0.7967  0.4051
 8373TIP3    H146534   4.881   1.041   0.382  0.7955  0.6588  0.4457
 8373TIP3    H246535   4.772   1.004   0.481 -1.0528 -0.6512 -1.9756
 8374TIP3   OH246536   5.956   6.012   4.744  0.1828 -0.0751 -0.1108
 8374TIP3    H146537   5.985   5.926   4.776 -0.4211  0.6914  2.8457
 8374TIP3    H246538   6.033   6.068   4.753  0.1308  0.0537 -0.4738
 8375TIP3   OH246539   1.737   0.364   1.297 -0.0435 -0.2299 -0.0682
 8375TIP3    H146540   1.744   0.345   1.204 -0.1151 -0.5738 -0.0060
 8375TIP3    H246541   1.802   0.432   1.313  2.2470 -2.3226  0.2183
 8376TIP3   OH246542   5.455   0.832   1.984 -0.3147  0.6663  0.2246
 8376TIP3    H146543   5.544   0.815   1.951 -0.4392  0.5227 -0.0366
 8376TIP3    H246544   5.412   0.747   1.984 -0.9222  0.9425 -1.0528
 8377TIP3   OH246545   2.267   5.381   0.729 -0.5082  0.7086 -0.3161
 8377TIP3    H146546   2.315   5.442   0.785 -1.0165 -0.2715  1.2375
 8377TIP3    H246547   2.195   5.350   0.783 -1.2284 -0.0131 -1.6458
 8378TIP3   OH246548   0.310   2.565  11.684 -0.0216  0.4146  0.0037
 8378TIP3    H146549   0.348   2.649  11.712 -2.8553  1.2729  1.6233
 8378TIP3    H246550   0.295   2.517  11.766  0.3838 -1.1838 -0.8197
 8379TIP3   OH246551   6.311   6.672   2.946  0.2052  0.5882  0.0663
 8379TIP3    H146552   6.387   6.708   2.992 -0.2241  1.0951  0.3948
 8379TIP3    H246553   6.274   6.747   2.900 -0.9947  0.6970  1.1648
 8380TIP3   OH246554   3.325   5.778   1.200  0.2632  1.1005  0.5933
 8380TIP3    H146555   3.321   5.873   1.211  3.1063  1.2041  1.5036
 8380TIP3    H246556   3.415   5.760   1.173 -0.2872 -1.3299  0.1011
 8381TIP3   OH246557   4.423   3.001   5.691 -0.3874  0.1206 -1.0993
 8381TIP3    H146558   4.349   3.061   5.695 -0.5791 -0.2044  1.1620
 8381TIP3    H246559   4.384   2.914   5.693  0.0208 -0.0604 -0.9578
 8382TIP3   OH246560   5.625   0.141  15.186  0.8878 -0.6782  0.1272
 8382TIP3    H146561   5.632   0.106  15.275  1.3690 -1.2061 -0.1133
 8382TIP3    H246562   5.700   0.200  15.177 -0.2460  0.9048  0.7330
 8383TIP3   OH246563   2.214   0.976   4.447 -0.7525 -0.3178 -0.6375
 8383TIP3    H146564   2.232   0.960   4.355 -0.4108  1.6054 -0.9577
 8383TIP3    H246565   2.256   1.061   4.465 -2.2014  0.1320  0.8569
 8384TIP3   OH246566   4.482   3.840  12.146  0.1189 -0.3649 -0.3575
 8384TIP3    H146567   4.518   3.889  12.072  1.1689 -0.8451 -0.1824
 8384TIP3    H246568   4.443   3.907  12.202 -0.1187  0.0679 -1.0202
 8385TIP3   OH246569   0.386   6.081   2.518  0.1379 -0.4121  0.5798
 8385TIP3    H146570   0.375   6.136   2.596 -2.3327 -1.3069  0.9622
 8385TIP3    H246571   0.341   6.128   2.448  2.1147  0.2576 -0.2793
 8386TIP3   OH246572   0.743   0.780  15.927 -0.2106  0.0737 -0.2238
 8386TIP3    H146573   0.781   0.705  15.972  0.0907 -0.0573 -0.6914
 8386TIP3    H246574   0.816   0.839  15.913 -0.4748  0.5271  0.2760
 8387TIP3   OH246575   0.090   1.326   6.318 -0.6763  0.2949 -0.3191
 8387TIP3    H146576   0.136   1.242   6.323  0.5826  0.8708 -1.5963
 8387TIP3    H246577   0.159   1.391   6.325 -1.4158  1.2082 -1.2972
 8388TIP3   OH246578   6.622   0.098   2.689  0.0765 -0.0136  0.3111
 8388TIP3    H146579   6.669   0.139   2.616 -0.6734 -1.0620 -0.8066
 8388TIP3    H246580   6.677   0.116   2.766  0.6904  1.4458 -0.4332
 8389TIP3   OH246581   0.622   1.389   3.257  0.5001 -0.3789  0.0487
 8389TIP3    H146582   0.587   1.347   3.178 -2.6180  0.9579  0.5893
 8389TIP3    H246583   0.715   1.369   3.254  0.4042 -1.0761 -3.5312
 8390TIP3   OH246584   1.019   4.520   0.601  0.0977  0.1783  0.7705
 8390TIP3    H146585   0.962   4.449   0.572  0.3900  0.7819 -1.4471
 8390TIP3    H246586   1.107   4.483   0.595  0.4042  1.1416 -2.0484
 8391TIP3   OH246587   1.530   1.796   0.187 -0.2500 -0.2735 -0.6052
 8391TIP3    H146588   1.597   1.732   0.163 -0.2318 -0.5760  0.2217
 8391TIP3    H246589   1.454   1.744   0.211 -0.0678 -0.0253  0.5866
 8392TIP3   OH246590   4.564   0.734  15.502  0.5623  0.4083  0.3612
 8392TIP3    H146591   4.524   0.647  15.503 -1.3992  1.2475  0.3112
 8392TIP3    H246592   4.529   0.777  15.579  3.3213  0.4562  1.6967
 8393TIP3   OH246593   0.944   0.485   1.789 -0.0894  0.8661  0.0028
 8393TIP3    H146594   1.039   0.474   1.789 -0.1132  0.6560  0.6357
 8393TIP3    H246595   0.929   0.561   1.733  0.3955  0.4555 -0.7079
 8394TIP3   OH246596   4.805   2.496   0.925 -0.3081 -0.0800 -0.8927
 8394TIP3    H146597   4.835   2.519   0.837  0.0686  0.9241 -0.5206
 8394TIP3    H246598   4.862   2.546   0.984 -0.8960 -0.3225 -0.0890
 8395TIP3   OH246599   0.408   4.193   1.515 -0.1292  0.5242 -0.3827
 8395TIP3    H146600   0.367   4.173   1.431  1.6794 -0.6067 -1.0380
 8395TIP3    H246601   0.367   4.276   1.541 -1.5648  0.3232 -1.7922
 8396TIP3   OH246602   0.779   6.713   3.695  0.1321 -0.1918  0.4959
 8396TIP3    H146603   0.826   6.638   3.732 -0.9913 -1.0475  0.2682
 8396TIP3    H246604   0.753   6.684   3.608  0.6452  0.9009 -0.0428
 8397TIP3   OH246605   2.712   1.082  16.385  0.3620  0.4424  0.0493
 8397TIP3    H146606   2.705   0.986  16.389 -2.1720  0.5773  0.5183
 8397TIP3    H246607   2.703   1.102  16.292  0.9353  0.2463 -0.0560
 8398TIP3   OH246608   4.696   4.869  12.206 -0.3689  0.1617 -0.0783
 8398TIP3    H146609   4.768   4.895  12.149 -0.0734  0.1951  0.3087
 8398TIP3    H246610   4.737   4.849  12.290 -0.7581 -0.2577  0.0139
 8399TIP3   OH246611   2.003   0.631  13.234 -0.0165 -0.4110  0.2620
 8399TIP3    H146612   2.013   0.555  13.177  0.1814 -0.2657  0.1033
 8399TIP3    H246613   2.089   0.673  13.234 -0.9442  1.8243 -2.5211
 8400TIP3   OH246614   1.755   4.753  16.138  0.7112 -0.2659 -0.3922
 8400TIP3    H146615   1.753   4.659  16.123 -0.9757 -0.3116 -0.0803
 8400TIP3    H246616   1.834   4.768  16.190  1.3399 -1.4098 -1.0042
 8401TIP3   OH246617   1.223   0.223  16.915  0.0136 -0.4665 -0.1359
 8401TIP3    H146618   1.208   0.199  16.824 -2.5065 -0.3670  0.1884
 8401TIP3    H246619   1.258   0.312  16.911 -1.6520  0.1919 -0.9939
 8402TIP3   OH246620   1.627   6.237   1.008 -0.0200 -0.0373  0.3323
 8402TIP3    H146621   1.643   6.147   1.035 -1.2869 -0.2401  0.4502
 8402TIP3    H246622   1.646   6.238   0.914 -3.6624 -1.4499 -0.5905
 8403TIP3   OH246623   2.423   1.847  17.053  0.7112  0.0084 -0.0082
 8403TIP3    H146624   2.480   1.898  17.110 -0.0623 -1.5718  2.3116
 8403TIP3    H246625   2.338   1.890  17.059  0.5787 -0.2805  0.2210
 8404TIP3   OH246626   3.644   1.090   2.586 -0.8087  0.3250  0.0756
 8404TIP3    H146627   3.619   1.182   2.589 -0.4288  0.4083  1.5518
 8404TIP3    H246628   3.697   1.077   2.665  0.0940 -0.8883 -0.6995
 8405TIP3   OH246629   0.092   1.261  14.560  0.2986 -0.3006  0.2697
 8405TIP3    H146630   0.063   1.170  14.571  0.4030 -0.2817  0.7073
 8405TIP3    H246631   0.048   1.309  14.629 -3.2415  0.8194 -2.5065
 8406TIP3   OH246632   6.415   0.613   2.703  0.0344  0.1852 -0.0436
 8406TIP3    H146633   6.498   0.659   2.712  0.3032 -0.2014 -0.5088
 8406TIP3    H246634   6.350   0.681   2.691  0.6958  0.4040 -3.0001
 8407TIP3   OH246635   0.227   1.157   1.342  0.0973 -0.2398 -0.2457
 8407TIP3    H146636   0.133   1.151   1.357 -0.1767  3.2021  0.3267
 8407TIP3    H246637   0.254   1.068   1.322 -3.7392 -0.9786 -3.3999
 8408TIP3   OH246638   2.692   6.336  11.835  0.1808 -0.5502  0.0467
 8408TIP3    H146639   2.599   6.320  11.814 -0.0956  1.2204 -0.1985
 8408TIP3    H246640   2.705   6.294  11.920 -0.7598 -1.0653 -0.0469
 8409TIP3   OH246641   3.451   4.044  14.832  0.2052  0.2915 -0.2103
 8409TIP3    H146642   3.524   3.983  14.841 -1.4794 -1.7456  0.5476
 8409TIP3    H246643   3.450   4.093  14.914  1.2620  1.0265 -0.6148
 8410TIP3   OH246644   1.234   3.667   1.289 -0.0235  0.3112 -0.1571
 8410TIP3    H146645   1.206   3.662   1.380  1.3455 -0.9448  0.2550
 8410TIP3    H246646   1.300   3.736   1.288 -1.8000  2.0631 -0.7583
 8411TIP3   OH246647   1.527   0.783   1.624  0.2117 -0.0601 -0.1141
 8411TIP3    H146648   1.474   0.860   1.648  0.4952  0.7878 -2.0522
 8411TIP3    H246649   1.606   0.791   1.676 -0.4404  0.0770  0.8812
 8412TIP3   OH246650   5.036   2.519   1.072 -0.1655 -0.7020  0.2948
 8412TIP3    H146651   4.974   2.512   1.144  0.8436  2.1612  1.5847
 8412TIP3    H246652   5.066   2.610   1.075 -0.7631 -0.0799 -4.3344
 8413TIP3   OH246653   5.841   1.559   3.741 -0.1427 -0.2835  0.7700
 8413TIP3    H146654   5.844   1.464   3.742  1.1268 -0.2863 -0.1814
 8413TIP3    H246655   5.931   1.586   3.722 -0.9762  0.9771 -2.0571
 8414TIP3   OH246656   2.092   6.538   1.062  0.4201 -0.1436 -0.3059
 8414TIP3    H146657   2.078   6.626   1.027  0.5190  0.3486  0.8423
 8414TIP3    H246658   2.175   6.510   1.025  1.4820  1.1359  0.9891
 8415TIP3   OH246659   2.760   3.067   4.793 -0.0811 -0.4557  0.1024
 8415TIP3    H146660   2.742   2.974   4.810 -1.3207 -0.1818  0.3768
 8415TIP3    H246661   2.738   3.111   4.874  3.8722 -0.2301  1.2869
 8416TIP3   OH246662   5.940   0.140   6.220 -0.4503  0.2038 -0.1609
 8416TIP3    H146663   6.032   0.114   6.221 -1.2367 -2.9591 -0.3348
 8416TIP3    H246664   5.935   0.208   6.153  2.0019  1.7308  1.0859
 8417TIP3   OH246665   4.560   0.415  12.572  0.0849  0.0036  0.1235
 8417TIP3    H146666   4.489   0.397  12.511  0.9159 -1.6044 -0.4114
 8417TIP3    H246667   4.640   0.400  12.521  0.8065  0.4051  1.1072
 8418TIP3   OH246668   6.206   5.426  16.137  0.1513  0.2380  0.8296
 8418TIP3    H146669   6.165   5.507  16.108  0.7342  1.6782  3.6709
 8418TIP3    H246670   6.134   5.364  16.144 -0.6970  1.2063  0.8314
 8419TIP3   OH246671   0.671   1.686   1.414 -0.4596 -0.0737 -0.0129
 8419TIP3    H146672   0.759   1.725   1.415 -0.4943 -0.0021  0.2189
 8419TIP3    H246673   0.612   1.761   1.415 -0.5342 -0.1276  1.2082
 8420TIP3   OH246674   5.922   2.485  12.725  0.1956 -0.2789 -0.1371
 8420TIP3    H146675   5.988   2.447  12.784  1.4102 -0.3861 -1.4997
 8420TIP3    H246676   5.956   2.468  12.637 -0.1693  2.2415 -0.8514
 8421TIP3   OH246677   2.522   3.518   3.376  0.4251  0.4953  0.2381
 8421TIP3    H146678   2.615   3.505   3.395  0.5033 -0.7551 -0.8277
 8421TIP3    H246679   2.491   3.432   3.348 -1.1387  0.8227  0.8522
 8422TIP3   OH246680   5.731   1.521   5.317  0.2171  0.9226 -0.3697
 8422TIP3    H146681   5.660   1.527   5.381  0.3542 -0.4332 -0.0699
 8422TIP3    H246682   5.798   1.580   5.350  0.6251 -0.3534  1.2063
 8423TIP3   OH246683   3.538   4.126  16.660 -0.4229  0.1575  0.4220
 8423TIP3    H146684   3.477   4.191  16.625 -0.0962 -0.2195 -0.8736
 8423TIP3    H246685   3.597   4.177  16.716 -0.8223  0.8084  0.2714
 8424TIP3   OH246686   6.470   4.158   0.629 -0.1217 -0.2045 -0.2987
 8424TIP3    H146687   6.554   4.192   0.661 -0.1602  1.3103 -1.7042
 8424TIP3    H246688   6.453   4.081   0.684  1.5061  0.2556  0.9203
 8425TIP3   OH246689   0.073   5.737   4.247  0.5588  0.2897  0.1551
 8425TIP3    H146690   0.164   5.720   4.271  0.3919 -0.6603  0.1416
 8425TIP3    H246691   0.049   5.664   4.190 -0.5630 -0.0753  1.0650
 8426TIP3   OH246692   5.220   1.666   5.559 -0.6412 -0.3502 -0.3151
 8426TIP3    H146693   5.155   1.689   5.493 -0.5303  1.6608  0.2095
 8426TIP3    H246694   5.297   1.719   5.537  0.0310 -0.9968  0.3957
 8427TIP3   OH246695   2.151   0.851   3.104 -0.3802 -0.1581 -0.3811
 8427TIP3    H146696   2.122   0.804   3.026  0.9202 -1.2395 -0.2537
 8427TIP3    H246697   2.160   0.942   3.075  1.3509 -0.7523 -1.8914
 8428TIP3   OH246698   5.370   2.500   5.254  0.0616 -0.2993  0.0713
 8428TIP3    H146699   5.276   2.516   5.265  0.4332  1.1264  1.6493
 8428TIP3    H246700   5.387   2.422   5.307 -0.0599  0.0776  0.6741
 8429TIP3   OH246701   4.713   6.103   1.772  0.6719  0.2706 -0.4705
 8429TIP3    H146702   4.664   6.184   1.759  0.3042 -0.1369 -1.7174
 8429TIP3    H246703   4.794   6.116   1.723  1.6512  0.7540  1.1966
 8430TIP3   OH246704   3.781   1.465  12.214  0.1065  0.0396 -0.4328
 8430TIP3    H146705   3.795   1.401  12.144  0.5357  0.3455 -0.6243
 8430TIP3    H246706   3.866   1.473  12.257  0.1269  0.6969 -0.5909
 8431TIP3   OH246707   3.826   0.680  14.493  0.3095  0.2470  0.7317
 8431TIP3    H146708   3.773   0.717  14.423 -1.5269  0.6908  2.2673
 8431TIP3    H246709   3.776   0.605  14.524  0.7534  0.4434  1.9797
 8432TIP3   OH246710   1.842   1.258   2.550 -0.3354  0.1814 -0.1516
 8432TIP3    H146711   1.844   1.173   2.506 -1.6046 -0.2624  0.5689
 8432TIP3    H246712   1.797   1.241   2.633  1.5862  1.0756  1.1571
 8433TIP3   OH246713   1.171   6.327  11.787 -0.5184 -0.4232 -0.2279
 8433TIP3    H146714   1.241   6.392  11.799 -1.0497  0.0863  0.1999
 8433TIP3    H246715   1.124   6.356  11.709 -1.2832  0.2092  0.4552
 8434TIP3   OH246716   1.821   6.076   2.596 -0.1955  0.6986  0.3377
 8434TIP3    H146717   1.890   6.073   2.530 -0.8822 -1.9502 -0.3657
 8434TIP3    H246718   1.852   6.141   2.659  2.7963 -0.1110 -0.1267
 8435TIP3   OH246719   1.311   1.685  17.246 -0.0154 -0.3319 -0.2082
 8435TIP3    H146720   1.284   1.716  17.160 -1.1452  1.4989  0.7288
 8435TIP3    H246721   1.351   1.762  17.287 -2.3915 -0.1527  2.0239
 8436TIP3   OH246722   4.489   5.162   0.928 -0.2149  0.4668 -0.2755
 8436TIP3    H146723   4.579   5.188   0.945 -0.2037  1.4246 -1.5835
 8436TIP3    H246724   4.491   5.066   0.928  1.1661  0.4304 -1.8241
 8437TIP3   OH246725   5.729   3.208   1.473 -0.0483  0.1538 -0.4771
 8437TIP3    H146726   5.722   3.173   1.385  0.7600 -0.7334 -0.2115
 8437TIP3    H246727   5.786   3.285   1.464 -0.8190  0.6831 -0.8777
 8438TIP3   OH246728   3.543   0.788  14.895  0.2253 -0.5877  0.3425
 8438TIP3    H146729   3.544   0.800  14.800 -0.1759  0.2666  0.4350
 8438TIP3    H246730   3.630   0.753  14.916  0.1724 -1.1792 -0.3761
 8439TIP3   OH246731   1.296   5.042   3.690 -0.1047  0.3366  0.6485
 8439TIP3    H146732   1.231   5.112   3.686  1.5603  1.9140 -0.3821
 8439TIP3    H246733   1.250   4.964   3.658 -1.4804  1.3689  0.0149
 8440TIP3   OH246734   5.985   3.836  12.627  0.1987 -0.1109 -0.1035
 8440TIP3    H146735   5.997   3.877  12.712  2.4533  0.2052 -0.5070
 8440TIP3    H246736   6.065   3.786  12.613  0.4343  0.7833 -2.5191
 8441TIP3   OH246737   5.254   4.442  17.037  0.0037 -0.0076  0.3609
 8441TIP3    H146738   5.230   4.414  16.949  1.9323 -0.6283 -0.0312
 8441TIP3    H246739   5.242   4.364  17.091 -0.6342  0.2153  0.5517
 8442TIP3   OH246740   5.126   2.592  12.775  0.2501  0.2519  0.0662
 8442TIP3    H146741   5.052   2.643  12.807 -1.2172 -0.0743 -2.5128
 8442TIP3    H246742   5.094   2.501  12.776 -0.4186  0.3117 -3.2335
 8443TIP3   OH246743   4.643   4.918   1.044  0.1814  0.1152  0.2002
 8443TIP3    H146744   4.610   4.830   1.029 -0.6869  0.3307  0.7693
 8443TIP3    H246745   4.708   4.908   1.113 -0.6269  0.0480  0.9627
 8444TIP3   OH246746   5.649   2.508   4.288 -0.3911  0.3504  0.2185
 8444TIP3    H146747   5.742   2.491   4.302 -0.3995  1.4228  1.7945
 8444TIP3    H246748   5.612   2.423   4.265  0.7457 -0.3365  0.8483
 8445TIP3   OH246749   5.033   5.806  16.440 -0.1814 -0.1954 -0.4687
 8445TIP3    H146750   5.063   5.857  16.364  1.9605 -0.8122 -0.1140
 8445TIP3    H246751   5.029   5.716  16.408  2.3453 -0.7297  0.4612
 8446TIP3   OH246752   5.073   6.129   4.551  0.2362  0.6404 -0.3523
 8446TIP3    H146753   5.117   6.045   4.555 -2.3064 -0.7569  0.5629
 8446TIP3    H246754   5.060   6.145   4.457  1.1023  0.2214 -0.5482
 8447TIP3   OH246755   1.165   6.150  12.975 -0.0320  0.3771  0.8848
 8447TIP3    H146756   1.123   6.139  13.060 -1.0111 -1.0503  0.2571
 8447TIP3    H246757   1.242   6.205  12.993  1.8775 -2.7398  3.3787
 8448TIP3   OH246758   3.239   1.371   1.062 -0.6046 -0.3121  0.1783
 8448TIP3    H146759   3.221   1.465   1.054 -1.2364 -0.2382  2.0207
 8448TIP3    H246760   3.319   1.365   1.114  0.0919 -0.7972 -0.9158
 8449TIP3   OH246761   1.530   4.017  12.173 -0.1752 -0.3758 -0.0540
 8449TIP3    H146762   1.484   4.101  12.181 -1.9792 -1.1419 -1.6779
 8449TIP3    H246763   1.463   3.951  12.193  1.7270 -1.4966  3.4932
 8450TIP3   OH246764   0.455   5.652   4.482 -0.0567  0.3804  0.3663
 8450TIP3    H146765   0.530   5.597   4.462 -1.9150 -1.9137 -0.7123
 8450TIP3    H246766   0.439   5.640   4.576  0.0125 -0.3193  0.2880
 8451TIP3   OH246767   4.217   3.790   6.390  0.0228  0.6054 -0.9877
 8451TIP3    H146768   4.278   3.717   6.379  2.0364  1.7955  1.4532
 8451TIP3    H246769   4.144   3.753   6.440 -0.0073 -0.2007 -1.6002
 8452TIP3   OH246770   5.138   4.347   5.385  0.2510  0.0888  1.0056
 8452TIP3    H146771   5.231   4.327   5.395  0.7136  2.0332  1.0282
 8452TIP3    H246772   5.125   4.426   5.437 -0.6712  1.6663 -1.4481
 8453TIP3   OH246773   2.471   5.031   1.702  0.3178 -0.3297 -0.5214
 8453TIP3    H146774   2.503   5.033   1.611 -2.0522 -1.5483 -1.4790
 8453TIP3    H246775   2.507   4.949   1.737  0.8043 -0.1247 -0.5334
 8454TIP3   OH246776   4.167   1.535  13.381 -0.3134  0.3705  0.2353
 8454TIP3    H146777   4.246   1.482  13.376 -0.7763 -0.2192 -2.2116
 8454TIP3    H246778   4.100   1.482  13.339 -0.8736  2.6662 -2.0579
 8455TIP3   OH246779   1.334   1.071   4.453 -0.1697  0.1418 -0.0744
 8455TIP3    H146780   1.344   1.114   4.368 -0.4102  0.3310 -0.0064
 8455TIP3    H246781   1.240   1.073   4.470 -0.1244  0.0860  0.1884
 8456TIP3   OH246782   3.631   6.345   5.465  0.2593  0.0562  0.3949
 8456TIP3    H146783   3.569   6.290   5.514  0.3250  0.4326  0.9155
 8456TIP3    H246784   3.714   6.334   5.512 -0.0120  1.5934  1.3013
 8457TIP3   OH246785   1.891   3.242  11.505  0.2667 -1.4407 -0.3558
 8457TIP3    H146786   1.859   3.173  11.447  0.1951  0.2662 -2.5275
 8457TIP3    H246787   1.837   3.318  11.483  1.6394 -0.1748  0.4734
 8458TIP3   OH246788   5.773   3.869   1.392  0.1496 -0.3072  0.1307
 8458TIP3    H146789   5.758   3.783   1.353 -0.6090  0.2662 -0.8980
 8458TIP3    H246790   5.867   3.885   1.379  0.0402 -0.4096 -0.9075
 8459TIP3   OH246791   6.736   1.368  12.236 -0.2231 -0.3861  0.1730
 8459TIP3    H146792   6.655   1.384  12.284  0.3425 -0.3176  1.1324
 8459TIP3    H246793   6.723   1.410  12.151 -0.7057  0.7490  0.7924
 8460TIP3   OH246794   4.843   4.816   1.198 -0.0325 -0.6447  0.3144
 8460TIP3    H146795   4.889   4.733   1.208  0.3516 -0.2309  2.5475
 8460TIP3    H246796   4.870   4.868   1.273 -0.3006  1.5111 -0.9793
 8461TIP3   OH246797   0.816   3.101   3.539  0.1107 -0.1936 -0.5331
 8461TIP3    H146798   0.751   3.086   3.608  1.0180  2.1163  0.9519
 8461TIP3    H246799   0.856   3.016   3.523 -1.4821 -1.1485  0.3640
 8462TIP3   OH246800   3.620   2.271  15.264  0.6101  0.2977 -0.2093
 8462TIP3    H146801   3.614   2.193  15.319 -2.7099 -0.7475 -1.7544
 8462TIP3    H246802   3.559   2.333  15.304  0.6925  0.7988 -0.8406
 8463TIP3   OH246803   1.339   6.424   1.008 -0.2423  0.0359 -0.2708
 8463TIP3    H146804   1.253   6.416   0.967 -0.0429  1.0771 -0.9264
 8463TIP3    H246805   1.402   6.405   0.938  0.1030  1.9419 -0.5278
 8464TIP3   OH246806   5.384   4.833  11.367 -0.0741  0.5733  0.7698
 8464TIP3    H146807   5.402   4.858  11.277 -0.2724 -4.7408 -1.0894
 8464TIP3    H246808   5.293   4.860  11.382 -0.4951  0.3651 -1.1641
 8465TIP3   OH246809   2.270   2.037   4.895  0.2886 -0.3030  0.0147
 8465TIP3    H146810   2.319   1.981   4.956 -0.0599 -0.0565  0.5317
 8465TIP3    H246811   2.311   2.021   4.810 -0.8135 -2.5366 -0.1659
 8466TIP3   OH246812   2.615   2.367  12.299  0.4776  0.1929 -0.5314
 8466TIP3    H146813   2.671   2.322  12.236 -0.4025 -2.3409  0.3821
 8466TIP3    H246814   2.670   2.380  12.376  0.1365 -1.4379  0.0195
 8467TIP3   OH246815   1.141   4.256   3.124  0.2841 -0.8723  0.2538
 8467TIP3    H146816   1.084   4.200   3.072 -0.6105 -0.5516  0.8595
 8467TIP3    H246817   1.091   4.337   3.134  1.4705 -0.0204 -0.4486
 8468TIP3   OH246818   0.099   6.297   4.561  0.3148 -0.1230  0.0655
 8468TIP3    H146819   0.153   6.375   4.546 -0.2863  0.3037  0.0917
 8468TIP3    H246820   0.122   6.238   4.490 -0.5759  0.8139 -1.0283
 8469TIP3   OH246821   3.092   2.177  15.786  0.3714 -0.9752 -0.4081
 8469TIP3    H146822   3.097   2.084  15.762  1.7683 -0.5954 -1.7696
 8469TIP3    H246823   3.067   2.221  15.704  0.7595 -0.0591 -0.0452
 8470TIP3   OH246824   6.373   2.562  16.734 -0.4617  0.0144 -0.2488
 8470TIP3    H146825   6.439   2.497  16.712  1.5230  1.3890  1.2868
 8470TIP3    H246826   6.311   2.514  16.790  1.4383 -0.4634  1.6029
 8471TIP3   OH246827   4.109   0.945  15.562 -0.0097  0.6131 -0.1436
 8471TIP3    H146828   4.060   1.013  15.515 -0.3043 -0.0519 -0.8156
 8471TIP3    H246829   4.071   0.863  15.531  1.5163  0.0775 -0.6940
 8472TIP3   OH246830   2.376   5.304   4.794  0.0293 -0.2488  0.5352
 8472TIP3    H146831   2.345   5.384   4.837 -0.1331 -0.1867  0.3051
 8472TIP3    H246832   2.305   5.241   4.805  0.0184 -0.2562  0.4258
 8473TIP3   OH246833   6.699   6.038  11.735  0.4029 -0.6073  0.4203
 8473TIP3    H146834   6.785   6.032  11.695 -0.1137 -2.4301 -0.5575
 8473TIP3    H246835   6.638   6.007  11.668 -1.1326  1.3781  0.8087
 8474TIP3   OH246836   6.028   4.418  15.755 -0.1641 -0.1221  0.1989
 8474TIP3    H146837   5.954   4.396  15.813  0.6395 -1.3203  0.8136
 8474TIP3    H246838   5.987   4.448  15.674 -1.3216  1.0410  1.1648
 8475TIP3   OH246839   1.007   4.199  15.724  0.1539  0.0118 -0.0177
 8475TIP3    H146840   1.075   4.261  15.696 -0.8597  0.8219 -0.7615
 8475TIP3    H246841   0.925   4.243  15.702 -0.6082 -1.0514  0.6614
 8476TIP3   OH246842   1.675   1.187   3.747  0.2043  0.3501  0.4941
 8476TIP3    H146843   1.743   1.249   3.775 -1.2173  1.8631  0.7750
 8476TIP3    H246844   1.645   1.146   3.829 -0.2959  0.8636  0.5764
 8477TIP3   OH246845   3.942   2.653  14.316  0.3995  0.3555 -0.1457
 8477TIP3    H146846   4.001   2.707  14.367  0.2738  0.6244 -0.2833
 8477TIP3    H246847   3.989   2.571  14.302  0.6392  0.4778 -0.0450
 8478TIP3   OH246848   4.303   1.724  12.679  0.3669  1.1885 -0.0049
 8478TIP3    H146849   4.368   1.678  12.625  0.1414  0.7632  0.0845
 8478TIP3    H246850   4.238   1.755  12.616 -1.5812 -1.9895  0.2322
 8479TIP3   OH246851   5.640   0.796  12.658 -0.3176  0.5284  0.0574
 8479TIP3    H146852   5.552   0.818  12.688 -0.8976  0.4658 -1.4581
 8479TIP3    H246853   5.627   0.718  12.602  0.3194  1.8241 -2.0255
 8480TIP3   OH246854   3.552   3.679  14.613 -0.1927  0.2802 -0.3766
 8480TIP3    H146855   3.604   3.690  14.693  2.0658 -2.4670 -1.3083
 8480TIP3    H246856   3.533   3.585  14.610 -1.9355  0.6323 -2.0928
 8481TIP3   OH246857   1.989   3.561   2.616  0.0879 -0.4967 -0.0683
 8481TIP3    H146858   1.930   3.490   2.590  0.4463 -0.8987  0.1903
 8481TIP3    H246859   2.055   3.563   2.546  1.6359 -2.2624  1.2557
 8482TIP3   OH246860   1.688   2.740  13.210  0.6661  0.6815  0.2987
 8482TIP3    H146861   1.740   2.671  13.168 -0.0390  0.0643  0.4080
 8482TIP3    H246862   1.752   2.794  13.256  1.3683  0.8747 -0.8691
 8483TIP3   OH246863   2.415   4.353   4.170  0.0758 -0.2035  0.0233
 8483TIP3    H146864   2.495   4.403   4.151  0.6637 -1.8311 -2.2828
 8483TIP3    H246865   2.370   4.348   4.086 -0.5539 -2.4687  0.4446
 8484TIP3   OH246866   2.228   2.374  12.436  0.3482  0.0968 -0.3628
 8484TIP3    H146867   2.295   2.307  12.422 -0.9327 -0.8814 -2.2009
 8484TIP3    H246868   2.172   2.369  12.359 -1.1227  1.7478  0.5189
 8485TIP3   OH246869   6.290   6.091  12.709  0.1802  0.2681 -0.2878
 8485TIP3    H146870   6.340   6.011  12.718  1.8196  1.1394 -1.2500
 8485TIP3    H246871   6.266   6.115  12.799  1.0856 -0.4267  0.1383
 8486TIP3   OH246872   3.363   0.587  14.991 -0.7544  0.6135  0.3919
 8486TIP3    H146873   3.407   0.645  14.928 -0.7761  0.1436 -0.0723
 8486TIP3    H246874   3.381   0.499  14.957 -1.7552  0.3987  0.3895
 8487TIP3   OH246875   3.525   6.348  15.748  0.3074 -0.1890  0.4617
 8487TIP3    H146876   3.609   6.336  15.703  0.3066 -0.4277  0.5256
 8487TIP3    H246877   3.521   6.442  15.766  0.2365 -0.0635 -0.1781
 8488TIP3   OH246878   1.292   5.484  17.142 -0.2846 -0.1469 -0.2200
 8488TIP3    H146879   1.212   5.536  17.133 -0.4049 -0.2976 -0.0057
 8488TIP3    H246880   1.276   5.407  17.089  0.4962  0.7446 -1.8139
 8489TIP3   OH246881   6.725   5.147  12.951 -0.0617  0.1243 -0.3548
 8489TIP3    H146882   6.732   5.176  12.860  1.1569  0.8213 -0.0582
 8489TIP3    H246883   6.814   5.125  12.976 -0.3278  0.3128  0.7985
 8490TIP3   OH246884   3.037   3.291   3.894  0.2122  0.7506  0.4340
 8490TIP3    H146885   3.081   3.325   3.816  0.1984  0.5369  0.3335
 8490TIP3    H246886   3.021   3.199   3.875 -0.0327  0.7615  0.5817
 8491TIP3   OH246887   4.419   4.219   0.989 -0.0560 -0.0644 -0.8405
 8491TIP3    H146888   4.370   4.247   0.911 -1.4359 -1.0214 -0.3493
 8491TIP3    H246889   4.355   4.219   1.059  0.7609 -0.9410 -0.0671
 8492TIP3   OH246890   2.135   0.389   0.300  0.5646  0.0712 -0.5757
 8492TIP3    H146891   2.140   0.325   0.371  1.2018 -0.8525 -1.4161
 8492TIP3    H246892   2.199   0.455   0.324  2.1401 -1.1733 -1.1397
 8493TIP3   OH246893   5.569   6.110  17.337 -0.5455  0.6055  0.8226
 8493TIP3    H146894   5.565   6.057  17.257 -1.1867 -0.4193  1.5218
 8493TIP3    H246895   5.522   6.059  17.403 -0.3133  1.5891  1.7818
 8494TIP3   OH246896   2.199   6.633  16.663 -0.1463 -0.2390 -0.0018
 8494TIP3    H146897   2.240   6.718  16.647 -1.2381  0.4710  0.8328
 8494TIP3    H246898   2.108   6.653  16.684 -0.5435 -1.6541 -0.2400
 8495TIP3   OH246899   6.235   5.543   5.411 -0.3758  0.1673 -0.3078
 8495TIP3    H146900   6.264   5.607   5.476 -0.4765 -1.2281  1.1862
 8495TIP3    H246901   6.140   5.538   5.422 -0.1732 -1.8560  1.2862
 8496TIP3   OH246902   4.271   2.046   3.209  0.5815 -0.3932 -0.1501
 8496TIP3    H146903   4.276   2.124   3.153  1.6973  0.3248  0.9080
 8496TIP3    H246904   4.357   2.006   3.204 -0.2437 -2.1637 -1.4327
 8497TIP3   OH246905   6.267   1.068   5.951  0.2087 -0.0225  0.2708
 8497TIP3    H146906   6.289   1.051   6.042 -0.2464  2.3814  0.8733
 8497TIP3    H246907   6.191   1.012   5.934  0.7127 -1.0036  1.1145
 8498TIP3   OH246908   3.756   2.588   5.720  0.2970 -0.4284 -0.3014
 8498TIP3    H146909   3.682   2.627   5.675  1.1118 -0.3396 -1.6134
 8498TIP3    H246910   3.717   2.534   5.789 -0.9560 -0.0445 -0.6964
 8499TIP3   OH246911   0.169   4.465   1.911 -0.2471  0.5075  0.6234
 8499TIP3    H146912   0.086   4.482   1.957  0.1738  0.3577  1.4573
 8499TIP3    H246913   0.187   4.372   1.928 -0.2425  0.3714 -0.1144
 8500TIP3   OH246914   6.703   5.942  17.339 -0.0411  0.1953  0.1063
 8500TIP3    H146915   6.723   5.911  17.427 -0.0509 -1.6835 -0.5205
 8500TIP3    H246916   6.751   5.883  17.281 -1.4646  0.2770 -1.2023
 8501TIP3   OH246917   5.206   0.051   6.521  0.5739  0.2116 -0.2578
 8501TIP3    H146918   5.244   0.117   6.578  2.7001 -1.0409 -0.1239
 8501TIP3    H246919   5.116   0.041   6.552 -0.0200  3.3829 -0.6647
 8502TIP3   OH246920   4.242   2.904   2.768  0.0501  0.1934  0.3482
 8502TIP3    H146921   4.192   2.979   2.800  1.4147  1.4010 -0.2303
 8502TIP3    H246922   4.333   2.932   2.773  0.5437 -1.0890 -0.7266
 8503TIP3   OH246923   2.005   5.668   5.084  0.1573  0.4986  0.0577
 8503TIP3    H146924   1.937   5.736   5.086 -1.6655 -1.1858 -0.2914
 8503TIP3    H246925   2.034   5.666   4.992  0.4827  1.0450  0.1483
 8504TIP3   OH246926   3.628   0.190  14.707 -0.2322 -0.2777 -0.4312
 8504TIP3    H146927   3.564   0.151  14.648 -1.3314  0.9951 -0.1343
 8504TIP3    H246928   3.644   0.122  14.773 -0.7671 -0.8669 -0.8909
 8505TIP3   OH246929   2.171   4.787  13.741 -0.3677 -0.5410  0.2376
 8505TIP3    H146930   2.176   4.797  13.646 -0.7451 -2.9570 -0.0889
 8505TIP3    H246931   2.146   4.696  13.755  1.1400 -0.6747  2.6983
 8506TIP3   OH246932   2.011   5.629  17.261  0.4521  0.3530 -0.7939
 8506TIP3    H146933   1.995   5.534  17.254  0.4551  0.4345 -2.2653
 8506TIP3    H246934   2.086   5.636  17.319 -0.7103 -0.4150  0.9053
 8507TIP3   OH246935   4.328   4.591  14.210 -0.1978  0.5084  0.1683
 8507TIP3    H146936   4.318   4.503  14.246  0.6355  0.5543  0.5306
 8507TIP3    H246937   4.241   4.614  14.178 -0.9287  0.3713  1.9325
 8508TIP3   OH246938   5.957   1.279  14.713 -0.3403 -0.3908  0.2869
 8508TIP3    H146939   5.976   1.295  14.806  0.4076  1.7634 -0.1861
 8508TIP3    H246940   6.019   1.335  14.666 -0.8253 -1.3150 -1.5276
 8509TIP3   OH246941   4.523   6.279  14.852 -0.0173  0.3452 -0.1911
 8509TIP3    H146942   4.493   6.189  14.860 -0.2157  0.4691  0.5263
 8509TIP3    H246943   4.484   6.325  14.927  0.6012  0.8779 -0.1790
 8510TIP3   OH246944   0.609   3.598  13.999 -0.4668  0.2323  0.1852
 8510TIP3    H146945   0.648   3.511  14.004  0.5744  0.7064  0.5880
 8510TIP3    H246946   0.604   3.618  13.905  0.2831  0.1698  0.1315
 8511TIP3   OH246947   5.307   5.120   1.280 -0.0055  0.0965 -0.2818
 8511TIP3    H146948   5.215   5.093   1.277  0.1076 -0.2583 -0.5956
 8511TIP3    H246949   5.356   5.039   1.268  0.3508  0.2978 -0.1968
 8512TIP3   OH246950   0.926   4.339   4.822  0.3385  0.4070  0.8521
 8512TIP3    H146951   0.965   4.404   4.765 -1.0523  1.5480  1.1471
 8512TIP3    H246952   0.978   4.343   4.903  3.0897 -2.0619 -0.5866
 8513TIP3   OH246953   0.482   0.738   1.170  0.4233  0.4433 -0.7816
 8513TIP3    H146954   0.494   0.830   1.147  0.9153  0.4735 -0.4244
 8513TIP3    H246955   0.539   0.690   1.110  1.1346  0.4680 -0.1363
 8514TIP3   OH246956   1.635   1.791   5.322 -0.0156 -0.4623  0.6385
 8514TIP3    H146957   1.701   1.724   5.340 -0.0457 -0.8653 -0.6650
 8514TIP3    H246958   1.648   1.814   5.230  0.1429  1.4980  1.0953
 8515TIP3   OH246959   1.497   2.451  12.613  0.5730  0.3631  0.5887
 8515TIP3    H146960   1.425   2.509  12.635  0.2615 -0.2044  1.1069
 8515TIP3    H246961   1.557   2.505  12.561 -0.6122  0.6072 -0.5511
 8516TIP3   OH246962   5.001   2.258   3.980  0.7747 -0.4205  0.2337
 8516TIP3    H146963   5.008   2.193   4.051 -1.4285 -1.1683 -0.1451
 8516TIP3    H246964   5.064   2.228   3.914  1.0495 -1.1513  0.8111
 8517TIP3   OH246965   1.351   6.462   1.473  0.1505  0.3398 -0.2826
 8517TIP3    H146966   1.422   6.501   1.422  0.1884  0.1824 -0.3496
 8517TIP3    H246967   1.377   6.476   1.564  0.1318  0.5307 -0.3063
 8518TIP3   OH246968   1.149   2.158  13.177 -0.1449 -0.3811 -0.3981
 8518TIP3    H146969   1.139   2.154  13.272  0.4399 -1.8606 -0.3706
 8518TIP3    H246970   1.138   2.251  13.155 -0.6558 -0.0751  1.0607
 8519TIP3   OH246971   3.331   1.005   4.934 -0.1172  0.0061  0.1569
 8519TIP3    H146972   3.407   1.022   4.879 -0.7900 -0.3488 -0.9186
 8519TIP3    H246973   3.322   1.083   4.989  0.2032  0.6457 -0.6821
 8520TIP3   OH246974   5.240   5.468   2.277 -0.4109  0.4103  0.2103
 8520TIP3    H146975   5.171   5.408   2.247 -0.0830  0.2852 -0.3188
 8520TIP3    H246976   5.317   5.442   2.226  0.0907  0.3881  0.9746
 8521TIP3   OH246977   3.416   1.403  10.518  0.1587 -0.4539 -0.5731
 8521TIP3    H146978   3.409   1.311  10.542  0.4048 -0.9443 -2.2371
 8521TIP3    H246979   3.505   1.413  10.484 -0.3744 -0.0177 -1.9296
 8522TIP3   OH246980   6.152   5.932   3.246 -0.3559 -0.6678  0.2978
 8522TIP3    H146981   6.212   5.963   3.179 -0.6056  0.2415  0.4823
 8522TIP3    H246982   6.076   5.900   3.197 -0.2917 -0.5544  0.1237
 8523TIP3   OH246983   0.318   4.463   3.687 -0.4134 -0.6923  0.6182
 8523TIP3    H146984   0.245   4.456   3.749  0.1343  0.2752  1.4057
 8523TIP3    H246985   0.276   4.459   3.601 -1.2104 -1.8784  1.0324
 8524TIP3   OH246986   4.239   0.590   2.992  1.0830  0.2896  0.4954
 8524TIP3    H146987   4.147   0.613   3.000  1.0487  2.2733 -3.5269
 8524TIP3    H246988   4.277   0.613   3.077 -2.3850 -3.2353  3.3877
 8525TIP3   OH246989   0.101   0.877   5.658 -0.5200  0.3714 -0.0405
 8525TIP3    H146990   0.009   0.866   5.633  0.2587 -3.7714 -1.9700
 8525TIP3    H246991   0.105   0.841   5.747 -0.7559  0.3907 -0.0202
 8526TIP3   OH246992   1.427   4.595  17.138 -0.1208  0.4814 -0.0046
 8526TIP3    H146993   1.521   4.576  17.139 -0.3070 -0.4751  0.6361
 8526TIP3    H246994   1.413   4.639  17.054  1.3780  3.3328  1.1068
 8527TIP3   OH246995   0.043   2.374   6.016 -0.0403 -0.6487  0.5502
 8527TIP3    H146996   0.065   2.314   6.087  0.6814 -0.2551  0.6683
 8527TIP3    H246997  -0.041   2.413   6.042 -0.9540 -2.1972  0.0768
 8528TIP3   OH246998   3.644   6.107   1.865  0.4308 -0.4260 -0.0619
 8528TIP3    H146999   3.726   6.098   1.815 -0.2116 -0.6953 -1.1122
 8528TIP3    H247000   3.595   6.028   1.843 -0.9881  0.6993 -1.1320
 8529TIP3   OH247001   4.765   0.283  11.645 -0.4326 -0.5724 -0.0157
 8529TIP3    H147002   4.840   0.297  11.703 -0.8442  0.0632  0.3808
 8529TIP3    H247003   4.781   0.341  11.571 -0.0291 -1.2012 -0.4291
 8530TIP3   OH247004   6.407   1.851  11.850  0.3885  0.1329  0.1859
 8530TIP3    H147005   6.334   1.896  11.809 -0.7728 -0.9421  1.0066
 8530TIP3    H247006   6.391   1.758  11.832  1.9912 -0.0819 -0.3004
 8531TIP3   OH247007   2.503   6.571   0.779  0.0491 -0.5309 -0.1429
 8531TIP3    H147008   2.595   6.547   0.787  0.9109  2.1478 -0.9097
 8531TIP3    H247009   2.501   6.633   0.706 -2.5340 -1.1685 -0.7288
 8532TIP3   OH247010   1.922   1.317   3.782  0.6051 -0.2595 -0.0999
 8532TIP3    H147011   1.937   1.394   3.836 -1.8420  0.8164 -0.8032
 8532TIP3    H247012   1.962   1.245   3.830  2.8733  1.4010  0.6279
 8533TIP3   OH247013   3.807   1.156  12.582 -0.2950 -0.2229 -0.2978
 8533TIP3    H147014   3.732   1.163  12.521  0.7633  0.8076 -1.5439
 8533TIP3    H247015   3.776   1.197  12.662 -0.6993  1.3596 -1.2096
 8534TIP3   OH247016   3.610   1.097  13.892  0.3781 -0.8797 -0.0272
 8534TIP3    H147017   3.557   1.072  13.816 -0.8113 -2.4510  1.2563
 8534TIP3    H247018   3.679   1.152  13.855  0.2746 -2.1691 -2.3758
 8535TIP3   OH247019   2.734   0.840   2.124  0.2202  0.5924  0.6107
 8535TIP3    H147020   2.807   0.809   2.071 -0.3457  0.2017  0.0488
 8535TIP3    H247021   2.675   0.765   2.130 -1.8942  1.8671 -2.0098
 8536TIP3   OH247022   3.053   0.242   4.428 -0.1412  0.5535 -0.2267
 8536TIP3    H147023   2.978   0.182   4.428 -0.0429  0.3107 -2.8451
 8536TIP3    H247024   3.119   0.198   4.374  1.5910  1.1608  1.2896
 8537TIP3   OH247025   4.764   3.942  12.171  0.0750  0.0976 -0.4465
 8537TIP3    H147026   4.795   3.904  12.089 -0.0981  0.3379 -0.6213
 8537TIP3    H247027   4.720   4.023  12.146 -1.1695 -0.4920 -0.2469
 8538TIP3   OH247028   5.035   0.293   0.039 -0.0908 -0.3468  0.2745
 8538TIP3    H147029   4.986   0.369   0.009  0.8251  0.6662  1.2338
 8538TIP3    H247030   4.980   0.252   0.105 -0.5198 -0.4350 -0.1339
 8539TIP3   OH247031   6.374   5.355   5.304  0.7179 -0.2747  0.0175
 8539TIP3    H147032   6.389   5.415   5.231  1.5240  1.3352  1.4213
 8539TIP3    H247033   6.303   5.396   5.354 -1.2266 -2.3809 -0.8710
 8540TIP3   OH247034   6.134   4.896   5.859 -0.3368 -0.0757 -0.5224
 8540TIP3    H147035   6.060   4.856   5.814  0.3414  0.2644 -1.9911
 8540TIP3    H247036   6.112   4.988   5.866  0.5077  0.2811 -2.2007
 8541TIP3   OH247037   4.480   3.840   2.199  0.1907  0.0626 -0.3454
 8541TIP3    H147038   4.438   3.764   2.160  2.4269 -1.1930 -0.4883
 8541TIP3    H247039   4.486   3.820   2.292 -1.8041  1.4074  0.1239
 8542TIP3   OH247040   3.024   1.326   0.254  0.5827 -0.0302 -0.2106
 8542TIP3    H147041   2.930   1.344   0.265  0.0732 -2.3437 -0.2894
 8542TIP3    H247042   3.063   1.349   0.338 -0.2597 -0.2178  0.2420
 8543TIP3   OH247043   3.743   2.996  12.339 -0.0141 -0.6736 -0.6299
 8543TIP3    H147044   3.784   2.912  12.318 -0.0299 -0.3609 -2.0171
 8543TIP3    H247045   3.729   2.993  12.433 -0.6760 -2.5300 -0.7481
 8544TIP3   OH247046   2.055   0.545   6.661 -0.8063  0.2758  0.4369
 8544TIP3    H147047   2.062   0.593   6.744 -1.6151 -1.4756  1.5900
 8544TIP3    H247048   1.975   0.577   6.621 -0.5327  0.9746  0.4401
 8545TIP3   OH247049   3.156   4.187  14.463  0.0224 -0.6342 -0.2281
 8545TIP3    H147050   3.130   4.095  14.459  0.2822 -0.7032 -0.3051
 8545TIP3    H247051   3.244   4.185  14.500 -1.0652 -0.2383  2.7117
 8546TIP3   OH247052   1.297   0.772   5.296  0.2817 -0.4258  0.1851
 8546TIP3    H147053   1.367   0.740   5.354  1.1302 -0.4433 -0.8221
 8546TIP3    H247054   1.225   0.710   5.310  0.4256 -0.3601  1.3015
 8547TIP3   OH247055   5.973   0.052  15.168  0.2679 -0.4314  0.1070
 8547TIP3    H147056   5.933   0.029  15.084 -1.0785  0.4504  0.4737
 8547TIP3    H247057   5.999  -0.032  15.206 -0.6681 -0.9827 -0.4355
 8548TIP3   OH247058   3.118   1.541  16.728 -0.2433 -0.2504  0.5452
 8548TIP3    H147059   3.055   1.611  16.714 -0.0328 -0.2086 -0.2348
 8548TIP3    H247060   3.065   1.462  16.735 -0.3923 -0.2248 -0.1675
 8549TIP3   OH247061   2.022   6.596   2.888 -0.4120 -0.8476 -0.0484
 8549TIP3    H147062   2.031   6.683   2.849  2.6715 -0.2943  1.6141
 8549TIP3    H247063   2.007   6.537   2.814 -0.7266  0.8516 -1.3913
 8550TIP3   OH247064   0.065   0.438   2.556  0.1871  0.2205  0.4872
 8550TIP3    H147065   0.087   0.405   2.643 -0.3926 -0.4856  0.3736
 8550TIP3    H247066   0.004   0.374   2.520 -0.3043  0.9818 -0.0819
 8551TIP3   OH247067   2.633   4.347   3.847 -0.1887  0.5826  0.1150
 8551TIP3    H147068   2.539   4.351   3.865 -0.0525  0.1200  0.9847
 8551TIP3    H247069   2.674   4.392   3.922  0.2720  0.9770 -0.3687
 8552TIP3   OH247070   2.758   3.383   5.254 -0.3736  0.2691 -0.3940
 8552TIP3    H147071   2.743   3.458   5.197 -0.8439  0.0993 -0.4943
 8552TIP3    H247072   2.740   3.415   5.342 -0.7465  0.2272 -0.4548
 8553TIP3   OH247073   2.175   6.298   1.468  0.0686  0.5600  0.6209
 8553TIP3    H147074   2.256   6.248   1.470 -1.2281 -1.7619 -0.3500
 8553TIP3    H247075   2.172   6.342   1.552  0.4119 -2.6450  2.4882
 8554TIP3   OH247076   5.418   5.275   1.484  0.5624 -0.3193 -0.0406
 8554TIP3    H147077   5.409   5.198   1.540  0.9651 -0.1998  0.1907
 8554TIP3    H247078   5.400   5.243   1.396  1.2576 -0.7914 -0.0177
 8555TIP3   OH247079   6.396   4.920   1.296  0.5192 -0.2907  0.0366
 8555TIP3    H147080   6.384   5.014   1.305  1.3168 -0.2907  1.5741
 8555TIP3    H247081   6.490   4.909   1.280  0.0862 -0.7311 -2.5203
 8556TIP3   OH247082   6.388   2.571  14.776 -0.1698  0.6718 -0.5087
 8556TIP3    H147083   6.336   2.578  14.696 -1.3473 -0.5462  0.1014
 8556TIP3    H247084   6.478   2.587  14.748 -0.4091 -0.7878 -2.2700
 8557TIP3   OH247085   5.153   3.826   3.677  0.0863  0.1916 -0.4492
 8557TIP3    H147086   5.203   3.749   3.651  0.9182  0.6247 -0.1550
 8557TIP3    H247087   5.077   3.826   3.619 -0.1637 -1.0986 -0.1507
 8558TIP3   OH247088   6.523   5.833   3.238  0.0946 -0.0724 -0.0494
 8558TIP3    H147089   6.494   5.912   3.284  2.1748  0.6347  0.1390
 8558TIP3    H247090   6.456   5.767   3.260 -1.0729  1.3110  0.7209
 8559TIP3   OH247091   2.461   2.478   3.758  0.0328  0.1026 -0.4171
 8559TIP3    H147092   2.493   2.395   3.723  0.5793 -0.0542  0.4228
 8559TIP3    H247093   2.492   2.479   3.849  0.4402  1.4333 -0.5527
 8560TIP3   OH247094   2.397   5.832  15.654  0.0399  0.2516  0.6737
 8560TIP3    H147095   2.350   5.859  15.732 -0.1939 -0.3041  0.7304
 8560TIP3    H247096   2.407   5.912  15.603 -1.1313  0.3531  0.5750
 8561TIP3   OH247097   4.074   2.874   2.451  0.0310  0.5258  0.3324
 8561TIP3    H147098   4.065   2.894   2.544 -1.2429 -4.9386  1.7753
 8561TIP3    H247099   3.985   2.856   2.421  0.6666 -0.2541 -1.2011
 8562TIP3   OH247100   6.493   6.749   2.494  0.1848  0.1264  0.2656
 8562TIP3    H147101   6.524   6.801   2.568  1.4479 -2.5136  1.7495
 8562TIP3    H247102   6.573   6.724   2.447 -0.1780 -1.8049  0.5995
 8563TIP3   OH247103   4.251   2.376   2.451  0.7215 -0.0205 -0.2323
 8563TIP3    H147104   4.225   2.315   2.382  0.8975 -1.1602  0.6760
 8563TIP3    H247105   4.230   2.462   2.417 -0.8785 -0.6783 -0.9739
 8564TIP3   OH247106   2.494   4.229  11.121 -0.3838  0.0546  0.5136
 8564TIP3    H147107   2.540   4.187  11.192 -0.0369  0.0284  0.2764
 8564TIP3    H247108   2.561   4.243  11.054 -0.4122  1.2729  0.7164
 8565TIP3   OH247109   3.178   0.367   3.253  0.2112  0.4348 -0.0070
 8565TIP3    H147110   3.101   0.355   3.309 -0.3212  0.6455 -0.6879
 8565TIP3    H247111   3.160   0.447   3.203  1.2141  0.9220  0.3726
 8566TIP3   OH247112   3.670   3.866   4.221 -0.2195 -0.3065 -0.0183
 8566TIP3    H147113   3.713   3.781   4.211 -1.1590 -0.7211 -0.8102
 8566TIP3    H247114   3.707   3.903   4.301  0.6177 -1.2134  0.0361
 8567TIP3   OH247115   3.702   3.522  17.302 -0.5203  0.7801 -0.1928
 8567TIP3    H147116   3.705   3.604  17.253 -4.1138  1.8276  1.0530
 8567TIP3    H247117   3.640   3.467  17.254 -0.0858 -0.2468  0.3725
 8568TIP3   OH247118   4.617   3.839  12.443 -0.9277 -0.2590 -0.6128
 8568TIP3    H147119   4.541   3.871  12.491 -0.8970  0.0178 -0.7461
 8568TIP3    H247120   4.598   3.860  12.352 -0.2106  0.8333 -0.5437
 8569TIP3   OH247121   4.975   2.676  17.195  0.6175  0.4778  0.0498
 8569TIP3    H147122   5.058   2.724  17.202  0.9775  0.0408 -0.9946
 8569TIP3    H247123   4.993   2.592  17.238  1.1288 -0.1028 -1.2497
 8570TIP3   OH247124   6.068   0.905  12.928 -0.3652  0.1017  0.4703
 8570TIP3    H147125   6.019   0.828  12.897 -0.3630 -0.1510  1.0783
 8570TIP3    H247126   6.146   0.869  12.970 -0.2751  0.4439  0.5999
 8571TIP3   OH247127   4.558   3.416  12.861  0.6441 -0.4983 -0.5068
 8571TIP3    H147128   4.536   3.350  12.926  0.5157 -0.5687 -0.6218
 8571TIP3    H247129   4.592   3.366  12.787 -1.8722 -0.6731 -1.6527
 8572TIP3   OH247130   2.589   2.037  14.656 -0.3827 -0.0747  0.1087
 8572TIP3    H147131   2.601   2.041  14.751  2.1245  0.6164 -0.1889
 8572TIP3    H247132   2.560   2.125  14.632 -0.7946 -0.1861  0.1774
 8573TIP3   OH247133   5.649   3.377   0.613 -0.2607  0.1718 -0.3574
 8573TIP3    H147134   5.731   3.343   0.578 -0.4526  0.0683 -0.7144
 8573TIP3    H247135   5.638   3.332   0.697 -0.7039 -0.9464 -0.9989
 8574TIP3   OH247136   5.249   3.371  17.215 -0.0558  0.5468 -0.6553
 8574TIP3    H147137   5.304   3.356  17.138 -0.5525  0.1138 -0.9362
 8574TIP3    H247138   5.200   3.451  17.194 -0.5307  0.1765 -1.0014
 8575TIP3   OH247139   3.359   4.763  12.465  0.3555  0.1502  0.0905
 8575TIP3    H147140   3.265   4.743  12.458  0.3443  0.5402 -1.0308
 8575TIP3    H247141   3.363   4.832  12.532 -0.0148 -0.7023  1.0269
 8576TIP3   OH247142   0.963   2.865  13.237  0.3137  0.4309  0.2260
 8576TIP3    H147143   1.047   2.909  13.223  0.3284 -0.4995 -3.8556
 8576TIP3    H247144   0.902   2.937  13.257  1.1021  1.9130 -2.2253
 8577TIP3   OH247145   3.485   1.559   2.615 -0.0465  0.4344 -0.0505
 8577TIP3    H147146   3.474   1.530   2.525  0.7793  2.2313 -0.7801
 8577TIP3    H247147   3.419   1.627   2.627 -1.7533 -1.3953  1.5179
 8578TIP3   OH247148   1.951   6.107  14.472  0.5606  0.4661  0.1493
 8578TIP3    H147149   1.987   6.143  14.391  2.2909 -1.1183  0.1242
 8578TIP3    H247150   2.026   6.105  14.532  0.7494 -3.2970  0.0089
 8579TIP3   OH247151   5.753   0.886   4.261  0.3958  0.5824 -0.5819
 8579TIP3    H147152   5.705   0.841   4.192 -2.6031  0.6062  1.2881
 8579TIP3    H247153   5.741   0.979   4.242 -1.7705  0.6211  0.6830
 8580TIP3   OH247154   1.912   3.551  12.946  0.1240  0.3265  0.1430
 8580TIP3    H147155   1.923   3.603  13.026  0.4748  0.2013  0.1779
 8580TIP3    H247156   1.989   3.494  12.944  0.3875  0.6947 -0.5601
 8581TIP3   OH247157   4.660   1.594  15.313  0.5235 -0.1323  0.5416
 8581TIP3    H147158   4.754   1.583  15.298  0.7127  1.9191 -0.1292
 8581TIP3    H247159   4.645   1.688  15.300 -1.9450 -0.6951 -1.2377
 8582TIP3   OH247160   2.430   1.065  11.689  0.3871  0.9445  0.1108
 8582TIP3    H147161   2.447   1.126  11.617 -3.0143  0.9355 -0.8678
 8582TIP3    H247162   2.367   1.111  11.745 -1.3010 -1.1095  0.0342
 8583TIP3   OH247163   1.787   6.455  14.565  0.1834  0.0922  0.1734
 8583TIP3    H147164   1.744   6.383  14.610 -0.8132  0.3601 -0.3231
 8583TIP3    H247165   1.858   6.481  14.623  2.3519 -3.0463 -0.8437
 8584TIP3   OH247166   2.900   6.096   0.692  0.1612 -0.5617  0.4378
 8584TIP3    H147167   2.855   6.174   0.659  1.8992 -0.2748 -1.3967
 8584TIP3    H247168   2.831   6.029   0.694 -0.6100  0.0955 -1.3786
 8585TIP3   OH247169   1.881   5.485  17.038 -0.4997  0.3403  0.5942
 8585TIP3    H147170   1.936   5.563  17.031  0.2217 -0.2954 -2.1502
 8585TIP3    H247171   1.943   5.412  17.040 -1.1723 -0.2951 -0.5489
 8586TIP3   OH247172   2.731   1.398   1.096 -0.0802  0.3111 -0.1449
 8586TIP3    H147173   2.684   1.368   1.174 -2.0172 -0.0771 -1.3912
 8586TIP3    H247174   2.817   1.358   1.103 -0.0024  0.7330  2.0491
 8587TIP3   OH247175   2.573   4.229   6.187 -0.2024 -0.9007 -0.0726
 8587TIP3    H147176   2.575   4.189   6.274  1.1357 -1.0082 -0.1345
 8587TIP3    H247177   2.546   4.319   6.203 -2.9689 -1.6540  0.0985
 8588TIP3   OH247178   1.618   5.114  11.727 -0.5389  0.4474  0.1975
 8588TIP3    H147179   1.525   5.099  11.738 -0.0095 -2.7354  1.6269
 8588TIP3    H247180   1.635   5.098  11.634 -1.3651  0.8466 -0.0245
 8589TIP3   OH247181   1.635   3.880   0.862 -0.1018 -0.6526  0.2212
 8589TIP3    H147182   1.696   3.845   0.927  0.6165  0.1196 -0.0238
 8589TIP3    H247183   1.675   3.859   0.778  0.4160  0.8652  0.0712
 8590TIP3   OH247184   0.001   4.504   5.725 -0.6675 -0.1753  0.4259
 8590TIP3    H147185   0.085   4.473   5.693 -1.3560  0.0541 -1.8065
 8590TIP3    H247186  -0.012   4.588   5.681 -3.2348 -1.4553 -1.5778
 8591TIP3   OH247187   5.466   2.041   0.843 -0.1583 -0.0286  0.2335
 8591TIP3    H147188   5.467   2.047   0.939  2.2994 -1.7041  0.3975
 8591TIP3    H247189   5.460   2.131   0.813 -1.3629  0.5053  1.9348
 8592TIP3   OH247190   6.442   3.885   2.596 -0.0352  0.2647 -0.6862
 8592TIP3    H147191   6.503   3.946   2.638 -1.7078  1.5770 -0.0442
 8592TIP3    H247192   6.389   3.850   2.668  0.0451 -0.9935 -1.2014
 8593TIP3   OH247193   2.327   3.149   0.570 -0.3902  0.4787 -0.4934
 8593TIP3    H147194   2.351   3.202   0.645  4.5561 -2.2740  0.2867
 8593TIP3    H247195   2.314   3.061   0.605 -2.5720 -0.0943 -2.4238
 8594TIP3   OH247196   0.531   5.108   5.795 -0.4049 -0.3216 -0.2729
 8594TIP3    H147197   0.529   5.175   5.727 -1.3705 -2.2952 -2.3240
 8594TIP3    H247198   0.440   5.085   5.809 -0.0518 -2.2733 -0.8187
 8595TIP3   OH247199   4.664   6.470   3.767 -0.9670 -0.0990  0.6717
 8595TIP3    H147200   4.635   6.386   3.732 -0.7339  0.4530 -0.9548
 8595TIP3    H247201   4.610   6.534   3.722 -1.9961  0.5970  2.7902
 8596TIP3   OH247202   1.535   4.314   2.311 -0.0316 -0.3371 -0.0386
 8596TIP3    H147203   1.503   4.278   2.394  1.3511  0.5204  0.9180
 8596TIP3    H247204   1.462   4.304   2.250 -0.8055 -1.7188  1.0642
 8597TIP3   OH247205   2.894   6.596   2.955 -0.1365  0.0851  0.2510
 8597TIP3    H147206   2.827   6.658   2.925 -1.5142 -1.5418 -0.1882
 8597TIP3    H247207   2.910   6.620   3.047 -2.7168 -0.5776  0.9595
 8598TIP3   OH247208   1.487   1.959  14.621  0.2957  0.2795  0.3037
 8598TIP3    H147209   1.411   1.984  14.674  0.5920  0.5273  0.6229
 8598TIP3    H247210   1.560   2.005  14.662  0.2776  1.9295 -1.3850
 8599TIP3   OH247211   1.741   1.983   1.558 -0.1482  0.2958 -0.0041
 8599TIP3    H147212   1.776   1.938   1.635 -1.3941 -2.8503 -1.0945
 8599TIP3    H247213   1.799   1.956   1.487  0.4275  2.3952 -0.3979
 8600TIP3   OH247214   4.478   2.871   2.289 -0.1262 -0.5778 -0.2234
 8600TIP3    H147215   4.506   2.811   2.220  1.7386  0.0072 -0.0390
 8600TIP3    H247216   4.387   2.889   2.269  0.0512 -1.3016 -1.8898
 8601TIP3   OH247217   2.016   2.555  12.378  0.1269 -0.2954  0.4131
 8601TIP3    H147218   1.966   2.479  12.409 -0.0733 -0.6674 -0.7783
 8601TIP3    H247219   2.108   2.527  12.384  0.0056 -1.1834 -1.3453
 8602TIP3   OH247220   1.284   2.695  15.512 -0.1550  0.3817  0.1985
 8602TIP3    H147221   1.377   2.715  15.515 -0.2740  1.6574 -2.1961
 8602TIP3    H247222   1.256   2.696  15.603  2.1597 -0.1026  0.9715
 8603TIP3   OH247223   1.587   0.025   5.226  0.1187 -0.2452 -0.2719
 8603TIP3    H147224   1.519  -0.003   5.165  0.8222  0.6067 -1.4838
 8603TIP3    H247225   1.595   0.119   5.212 -0.5235  0.1979  2.0078
 8604TIP3   OH247226   3.231   0.576  15.922  0.1910  0.7496  0.3879
 8604TIP3    H147227   3.178   0.525  15.983 -0.9065 -0.4987 -1.4945
 8604TIP3    H247228   3.188   0.662  15.920 -0.1372  0.6060  0.9014
 8605TIP3   OH247229   5.982   1.859   1.785  0.8334  0.0026  0.0451
 8605TIP3    H147230   5.951   1.770   1.771 -0.0081  0.0405  1.5333
 8605TIP3    H247231   5.906   1.914   1.768  0.1464  0.1400  3.0162
 8606TIP3   OH247232   2.959   1.744  11.954  0.3087 -0.0766 -0.4745
 8606TIP3    H147233   3.044   1.788  11.948  0.1578  0.1737 -0.8259
 8606TIP3    H247234   2.901   1.810  11.992  0.4872 -0.5664  0.7094
 8607TIP3   OH247235   4.093   6.351  13.022 -0.8200 -0.1361  0.0150
 8607TIP3    H147236   4.143   6.315  13.095  0.2110  0.5605 -0.3359
 8607TIP3    H247237   4.053   6.274  12.981  0.4819 -0.7829 -0.0758
 8608TIP3   OH247238   4.507   3.496  14.940  0.1077  0.4867  0.0074
 8608TIP3    H147239   4.595   3.460  14.952 -1.1021 -2.6689  0.4672
 8608TIP3    H247240   4.493   3.493  14.845 -0.0284 -0.5376  0.0447
 8609TIP3   OH247241   1.165   5.319  11.593  0.0402 -0.2961  0.2751
 8609TIP3    H147242   1.168   5.246  11.532  0.0126 -1.8638  2.0552
 8609TIP3    H247243   1.071   5.336  11.605  0.0549  0.8578 -1.0195
 8610TIP3   OH247244   5.436   0.654   0.170 -0.1565  0.4554 -0.1952
 8610TIP3    H147245   5.482   0.736   0.152 -1.8559  1.1990 -1.4039
 8610TIP3    H247246   5.419   0.655   0.264  0.1333  1.3281 -0.1463
 8611TIP3   OH247247   2.283   3.687  14.732 -0.8182  0.3384 -0.2803
 8611TIP3    H147248   2.346   3.743  14.687 -1.3795  0.3050 -1.1346
 8611TIP3    H247249   2.330   3.654  14.809  0.8842 -1.2159 -1.8866
 8612TIP3   OH247250   4.285   5.718   2.119  0.3254 -0.8331  0.6046
 8612TIP3    H147251   4.283   5.622   2.117  1.0185 -0.8499 -0.5265
 8612TIP3    H247252   4.371   5.741   2.083  1.0418  0.1938  2.7785
 8613TIP3   OH247253   6.355   5.142   0.502 -0.2250 -0.0723  0.1063
 8613TIP3    H147254   6.449   5.160   0.504 -0.2631  0.2675 -0.6781
 8613TIP3    H247255   6.330   5.156   0.411 -0.9797 -0.4764  0.2429
 8614TIP3   OH247256   1.577   5.229  15.942 -0.3354  0.0842 -0.0869
 8614TIP3    H147257   1.489   5.192  15.951  0.7690 -2.3306  1.8706
 8614TIP3    H247258   1.609   5.194  15.858 -1.1674  0.9380 -0.7879
 8615TIP3   OH247259   4.171   6.070  12.141  0.1926  0.2316  0.6532
 8615TIP3    H147260   4.091   6.028  12.111 -0.2136  0.5145  1.3321
 8615TIP3    H247261   4.209   6.108  12.062 -0.2391 -0.0712  0.2972
 8616TIP3   OH247262   4.564   4.662  14.703 -0.2371  0.6511  0.0306
 8616TIP3    H147263   4.656   4.642  14.720 -0.6629 -1.6657 -0.1343
 8616TIP3    H247264   4.553   4.751  14.736  1.7750  0.5539  1.1293
 8617TIP3   OH247265   0.976   2.520  16.285  0.8985 -0.1144 -0.0648
 8617TIP3    H147266   0.998   2.612  16.277 -0.9862  0.3581 -0.3571
 8617TIP3    H247267   1.025   2.477  16.215  1.4036  0.7414 -0.2502
 8618TIP3   OH247268   4.581   5.132  15.663  0.1293  0.0772  0.1646
 8618TIP3    H147269   4.545   5.089  15.586 -1.2053  1.8017 -0.2404
 8618TIP3    H247270   4.628   5.063  15.709 -0.2637 -1.3255 -1.4384
 8619TIP3   OH247271   6.705   3.498  14.484  0.3218 -0.0507  0.0863
 8619TIP3    H147272   6.776   3.434  14.481  0.0859 -0.2890 -2.3540
 8619TIP3    H247273   6.732   3.560  14.552  0.8997 -2.2744  2.0403
 8620TIP3   OH247274   5.762   2.790   3.682  0.7827  0.3214 -0.6844
 8620TIP3    H147275   5.765   2.775   3.777  0.1096  0.9407 -0.5526
 8620TIP3    H247276   5.838   2.845   3.664  0.6164  0.6488 -0.4073
 8621TIP3   OH247277   1.912   6.655  12.683 -0.1571  0.4005  0.2443
 8621TIP3    H147278   1.926   6.570  12.725 -0.2435 -0.3046 -1.0832
 8621TIP3    H247279   1.944   6.719  12.746  4.6908 -0.8074 -0.5789
 8622TIP3   OH247280   3.232   1.074   1.180 -0.1377  1.0933 -0.2654
 8622TIP3    H147281   3.249   1.049   1.090  0.4780  0.2732  0.0602
 8622TIP3    H247282   3.319   1.084   1.219 -0.2195 -2.5654  1.2721
 8623TIP3   OH247283   1.997   1.565  15.964 -0.5046 -0.0982 -0.0032
 8623TIP3    H147284   1.908   1.538  15.984 -1.0785  0.6982 -1.3242
 8623TIP3    H247285   2.030   1.499  15.903 -0.3611 -0.1364  0.1143
 8624TIP3   OH247286   6.546   3.602   0.925 -0.0216  0.6384 -0.4324
 8624TIP3    H147287   6.635   3.578   0.896 -0.4182 -0.8719 -0.5066
 8624TIP3    H247288   6.502   3.518   0.937 -1.6969  1.3675 -1.1509
 8625TIP3   OH247289   3.508   0.529  16.132 -0.3560 -0.1356  0.4920
 8625TIP3    H147290   3.487   0.533  16.225 -2.5870 -0.7493  0.0727
 8625TIP3    H247291   3.555   0.447  16.121  1.0847  0.5525  1.2436
 8626TIP3   OH247292   5.685   3.422  16.338 -0.1513 -0.2669 -0.0456
 8626TIP3    H147293   5.723   3.334  16.336 -1.0001 -0.6561  0.5402
 8626TIP3    H247294   5.664   3.436  16.430 -2.4277 -0.4942 -0.4879
 8627TIP3   OH247295   2.045   1.226   6.513 -0.2878  0.4138  0.0747
 8627TIP3    H147296   2.056   1.138   6.477 -1.2526  0.6876 -0.9429
 8627TIP3    H247297   1.986   1.214   6.588 -0.5360  0.2094 -0.1531
 8628TIP3   OH247298   1.038   2.212   1.185 -0.3956 -0.2561  0.2836
 8628TIP3    H147299   1.027   2.134   1.131  1.9878  0.4613 -1.3599
 8628TIP3    H247300   1.118   2.196   1.235 -0.7705  0.4975  1.1635
 8629TIP3   OH247301   6.032   2.875  14.875 -0.4140 -0.1571 -0.1948
 8629TIP3    H147302   5.975   2.800  14.887  0.6062 -0.8385  0.6097
 8629TIP3    H247303   6.070   2.891  14.961  0.8113  0.0895 -0.7439
 8630TIP3   OH247304   0.588   0.090  15.734 -0.0392  0.5513 -0.2503
 8630TIP3    H147305   0.539   0.008  15.745  0.7518  0.1085  0.0910
 8630TIP3    H247306   0.633   0.102  15.818 -2.5806  3.0244  0.9057
 8631TIP3   OH247307   0.952   2.859   3.178  0.6081  0.9046  0.3811
 8631TIP3    H147308   1.032   2.902   3.150 -0.4420  2.9122  0.2470
 8631TIP3    H247309   0.884   2.927   3.170 -1.3042 -0.9775 -0.4458
 8632TIP3   OH247310   5.829   4.392   3.208 -0.6704 -0.4968  0.1925
 8632TIP3    H147311   5.920   4.408   3.185 -0.3209  1.5951  2.6531
 8632TIP3    H247312   5.779   4.438   3.140  0.1185 -0.2787 -0.2505
 8633TIP3   OH247313   3.738   2.159  10.439  0.3828  0.7222 -0.3187
 8633TIP3    H147314   3.819   2.173  10.392 -0.3231  2.0605 -1.1976
 8633TIP3    H247315   3.669   2.188  10.379 -0.7149  0.1222  0.5933
 8634TIP3   OH247316   3.168   2.501  15.284  0.1971 -0.3848 -0.2241
 8634TIP3    H147317   3.205   2.525  15.199  0.6418 -0.3255 -0.0169
 8634TIP3    H247318   3.164   2.584  15.333  0.0007 -0.4284 -0.1635
 8635TIP3   OH247319   4.377   1.135   3.556 -0.1672  0.2870 -1.2250
 8635TIP3    H147320   4.421   1.189   3.491  0.8425 -0.7301 -1.4270
 8635TIP3    H247321   4.448   1.085   3.596 -1.1395 -1.5620 -1.7121
 8636TIP3   OH247322   2.976   5.415   4.453  0.0755  0.0459  0.4185
 8636TIP3    H147323   2.900   5.448   4.406  0.5911  0.2202 -0.2959
 8636TIP3    H247324   2.955   5.323   4.470 -0.6417  0.2904  0.9588
 8637TIP3   OH247325   5.540   0.302   6.457 -0.1298 -0.0251 -0.3457
 8637TIP3    H147326   5.606   0.351   6.506  1.2850 -2.3351  0.2048
 8637TIP3    H247327   5.464   0.360   6.454  1.5616  2.3166 -0.1013
 8638TIP3   OH247328   6.469   6.019   5.569  0.2106 -0.4937  0.1922
 8638TIP3    H147329   6.433   6.024   5.658 -0.9458 -0.3420 -0.2641
 8638TIP3    H247330   6.427   6.090   5.522  1.1556 -0.2947 -0.3725
 8639TIP3   OH247331   1.523   3.323   6.272 -0.3108 -0.9304  0.0201
 8639TIP3    H147332   1.450   3.272   6.237  0.3216 -0.6370 -1.7878
 8639TIP3    H247333   1.600   3.288   6.228  0.4602 -0.1938  0.7561
 8640TIP3   OH247334   0.719   3.543  12.002  0.5372  0.1760 -0.8960
 8640TIP3    H147335   0.786   3.483  12.031 -0.5975 -1.8574 -2.2484
 8640TIP3    H247336   0.652   3.540  12.070  0.3654 -0.2928 -1.0865
 8641TIP3   OH247337   0.885   6.709  14.289  0.3375 -0.3840  0.5926
 8641TIP3    H147338   0.862   6.798  14.316  1.4677  0.0722  0.1241
 8641TIP3    H247339   0.822   6.653  14.334 -1.6893  0.7702 -0.6439
 8642TIP3   OH247340   1.603   4.755   1.431  0.2233  0.0502 -0.1787
 8642TIP3    H147341   1.584   4.696   1.358 -0.6353  1.0908 -0.8248
 8642TIP3    H247342   1.571   4.708   1.509  0.9793 -0.9893 -0.4763
 8643TIP3   OH247343   4.400   3.938   0.889 -0.0573 -0.5204 -0.0273
 8643TIP3    H147344   4.445   4.015   0.925  0.3567 -1.3231  1.2444
 8643TIP3    H247345   4.328   3.974   0.838 -0.1041  0.7041  0.8579
 8644TIP3   OH247346   4.951   2.927  17.086 -0.2186  0.2228  0.3627
 8644TIP3    H147347   4.935   2.835  17.104 -0.9805  0.5987  1.7669
 8644TIP3    H247348   4.905   2.974  17.156 -1.6879  1.7720 -1.5372
 8645TIP3   OH247349   3.625   2.969   0.659 -0.6891 -0.1912  0.3431
 8645TIP3    H147350   3.536   2.953   0.688  0.2585 -2.0901  2.5211
 8645TIP3    H247351   3.675   2.893   0.690  1.6317  0.5924 -1.1376
 8646TIP3   OH247352   6.038   6.212   3.375  1.0777  0.2543 -0.2735
 8646TIP3    H147353   5.973   6.245   3.312  1.7421  0.5881 -0.7941
 8646TIP3    H247354   6.075   6.134   3.333  1.4476  0.4174 -0.2568
 8647TIP3   OH247355   2.308   3.990  11.035  0.2568  0.3750  0.0463
 8647TIP3    H147356   2.370   3.977  10.963 -0.5498  2.4706 -1.1472
 8647TIP3    H247357   2.223   3.966  10.998  0.0289 -0.1359  0.8723
 8648TIP3   OH247358   1.567   1.958   0.420 -0.1706  0.3842 -0.1045
 8648TIP3    H147359   1.556   1.939   0.327 -0.0321  1.5642 -0.3808
 8648TIP3    H247360   1.643   1.906   0.446 -0.2561 -0.0185 -0.6212
 8649TIP3   OH247361   5.844   3.746  16.040 -0.1823 -0.4505  0.5257
 8649TIP3    H147362   5.771   3.703  15.995  1.4591 -1.3890 -1.4178
 8649TIP3    H247363   5.864   3.688  16.114 -0.2421 -1.1728 -0.0119
 8650TIP3   OH247364   3.700   3.940   5.222 -0.2987  0.4014  0.3900
 8650TIP3    H147365   3.756   3.998   5.273  1.7874 -1.5819  0.5534
 8650TIP3    H247366   3.688   3.986   5.139  1.2430  1.1127  0.5196
 8651TIP3   OH247367   4.348   6.618   1.732 -0.6137 -0.3174  0.0587
 8651TIP3    H147368   4.430   6.660   1.758  0.0546 -1.7252  0.3020
 8651TIP3    H247369   4.331   6.653   1.645 -0.0784  0.4609  0.2551
 8652TIP3   OH247370   5.402   5.549   4.307 -0.1893  0.0944 -0.1664
 8652TIP3    H147371   5.403   5.460   4.273 -1.1003 -0.2050  0.5673
 8652TIP3    H247372   5.359   5.600   4.238  3.1494  0.6557 -2.0800
 8653TIP3   OH247373   1.619   0.296  13.987  0.4165  0.1510  0.2663
 8653TIP3    H147374   1.548   0.291  13.923  0.8624 -0.2760 -0.2059
 8653TIP3    H247375   1.687   0.348  13.944  1.4240 -1.5808 -0.3125
 8654TIP3   OH247376   6.000   3.657   1.251 -0.3638 -0.0583 -0.5979
 8654TIP3    H147377   6.022   3.672   1.159  2.3667 -2.0045 -0.3826
 8654TIP3    H247378   6.026   3.739   1.294 -0.0560  0.2443 -1.3318
 8655TIP3   OH247379   2.382   3.892   6.074  0.0630  0.3458 -0.5507
 8655TIP3    H147380   2.404   3.897   6.167 -0.9977 -0.1226 -0.2703
 8655TIP3    H247381   2.381   3.984   6.045 -1.6996  0.6666  0.4118
 8656TIP3   OH247382   6.014   2.072  13.468  0.4080 -0.0941  0.5700
 8656TIP3    H147383   5.954   2.004  13.436 -1.4117  1.0931  1.2937
 8656TIP3    H247384   6.011   2.140  13.401  1.0380 -0.0500  0.5780
 8657TIP3   OH247385   0.232   4.546  13.726  0.1898  0.1600 -0.1032
 8657TIP3    H147386   0.142   4.578  13.723  0.4708  0.9253 -0.9674
 8657TIP3    H247387   0.229   4.461  13.683 -0.1731  0.0360  0.1636
 8658TIP3   OH247388   4.752   3.307   4.404 -0.5400  0.1181 -0.0669
 8658TIP3    H147389   4.724   3.365   4.333  0.1312 -1.2436 -1.4961
 8658TIP3    H247390   4.691   3.234   4.401 -1.5370  0.8029  1.8879
 8659TIP3   OH247391   2.107   1.867   2.642  0.1046 -0.1923 -0.1495
 8659TIP3    H147392   2.107   1.777   2.608 -0.3222 -0.3622  0.2790
 8659TIP3    H247393   2.111   1.922   2.564  0.3610 -0.5861 -0.4180
 8660TIP3   OH247394   6.564   2.087   0.966 -0.2756  0.4442  0.0991
 8660TIP3    H147395   6.594   2.014   0.912 -1.3342 -0.0649  0.1824
 8660TIP3    H247396   6.601   2.165   0.924 -0.1386 -0.0402 -0.6891
 8661TIP3   OH247397   3.347   5.839  11.955 -0.2467  0.0996  0.2550
 8661TIP3    H147398   3.314   5.893  12.027  1.0388  1.2978  0.0117
 8661TIP3    H247399   3.382   5.761  11.997 -0.4366  0.3157  0.8220
 8662TIP3   OH247400   5.629   1.446   2.550  0.2071 -0.2751  0.0752
 8662TIP3    H147401   5.696   1.511   2.569 -1.0402  1.3550 -0.8693
 8662TIP3    H247402   5.553   1.472   2.602  0.2232 -2.0481  1.0708
 8663TIP3   OH247403   5.540   0.154   1.154 -0.8562 -0.3695  0.0003
 8663TIP3    H147404   5.534   0.118   1.065 -0.4764 -0.1019 -0.1379
 8663TIP3    H247405   5.631   0.140   1.179  0.4211  3.7738 -1.4973
 8664TIP3   OH247406   2.864   4.150   6.142 -0.1043 -0.2598  0.2057
 8664TIP3    H147407   2.776   4.147   6.105  0.2802 -0.6116 -0.7257
 8664TIP3    H247408   2.881   4.243   6.156 -0.6314 -0.1933  0.4154
 8665TIP3   OH247409   4.109   4.171  13.669  0.3446  0.2612 -0.7080
 8665TIP3    H147410   4.177   4.118  13.709  1.4340 -0.0562 -2.8328
 8665TIP3    H247411   4.152   4.252  13.644 -0.7605  1.2361  0.4087
 8666TIP3   OH247412   6.432   1.123   2.623  0.1484 -0.1452 -0.3761
 8666TIP3    H147413   6.341   1.123   2.595  0.3596 -0.2554 -1.0880
 8666TIP3    H247414   6.428   1.112   2.718 -0.5589 -0.8360 -0.4762
 8667TIP3   OH247415   6.355   2.660  15.229 -0.5512  0.2650 -0.0487
 8667TIP3    H147416   6.437   2.633  15.269 -0.3116 -1.1062 -1.3765
 8667TIP3    H247417   6.287   2.632  15.291 -0.0596  1.2079  0.9466
 8668TIP3   OH247418   1.831   2.500  14.054  0.0113  0.1809  0.4429
 8668TIP3    H147419   1.802   2.590  14.039  2.1611  0.5451 -2.6951
 8668TIP3    H247420   1.760   2.459  14.103 -2.0939  2.9563 -0.0404
 8669TIP3   OH247421   4.879   0.090  12.517 -0.5534 -0.2350 -0.4039
 8669TIP3    H147422   4.923   0.076  12.434 -1.1382  0.9509 -0.9411
 8669TIP3    H247423   4.948   0.117  12.577 -0.5389  2.0766 -1.3610
 8670TIP3   OH247424   6.026   3.284  14.270 -0.1055  0.1412  0.3569
 8670TIP3    H147425   6.099   3.222  14.277 -0.6627 -0.4896  0.7229
 8670TIP3    H247426   6.006   3.307  14.361  0.6294  1.5183  0.1952
 8671TIP3   OH247427   0.887   4.499  16.346  0.1204  0.5661  0.1902
 8671TIP3    H147428   0.864   4.411  16.375  0.3500  1.1526  2.2781
 8671TIP3    H247429   0.880   4.494  16.250 -0.9490 -1.3934  0.2998
 8672TIP3   OH247430   4.029   4.958   3.526 -0.3506 -0.7762  0.0496
 8672TIP3    H147431   4.060   4.929   3.441 -0.3178  0.7220 -0.4749
 8672TIP3    H247432   3.970   5.031   3.507  0.1081 -0.0346  1.3297
 8673TIP3   OH247433   4.827   6.555  10.401  0.6367 -0.0533 -0.4693
 8673TIP3    H147434   4.874   6.473  10.417 -0.1145 -0.2245  0.9871
 8673TIP3    H247435   4.896   6.619  10.384  1.3317 -0.5964  0.2396
 8674TIP3   OH247436   5.099   3.267  14.243  0.2458 -0.2288  0.2834
 8674TIP3    H147437   5.136   3.352  14.265 -1.0180  0.3604  0.1872
 8674TIP3    H247438   5.173   3.206  14.251  1.0090  0.7630  1.0124
 8675TIP3   OH247439   2.644   5.972   0.663 -1.0161 -0.2029 -0.5124
 8675TIP3    H147440   2.607   5.935   0.583  1.4620 -1.5276 -1.1413
 8675TIP3    H247441   2.599   5.926   0.733 -1.6267 -0.6696 -1.1953
 8676TIP3   OH247442   0.511   3.972  17.048 -0.0949  0.0423  0.2691
 8676TIP3    H147443   0.482   3.893  17.002 -0.2887  0.0855  0.3163
 8676TIP3    H247444   0.522   3.943  17.139  0.0787  0.0099  0.2376
 8677TIP3   OH247445   0.229   0.653   4.558 -0.2594  0.2687  0.1248
 8677TIP3    H147446   0.137   0.628   4.559 -0.0807 -0.5285 -1.2563
 8677TIP3    H247447   0.274   0.578   4.598 -0.1040  0.1653 -0.2439
 8678TIP3   OH247448   0.221   1.020  16.303 -0.0333  1.0180 -0.1402
 8678TIP3    H147449   0.197   1.037  16.395  0.2444  2.4392 -0.3018
 8678TIP3    H247450   0.302   1.070  16.291  2.3291 -2.4218 -0.0261
 8679TIP3   OH247451   5.322   0.883   4.120 -0.1955  0.3298 -0.0351
 8679TIP3    H147452   5.299   0.891   4.027  1.0242  0.4050 -0.3527
 8679TIP3    H247453   5.412   0.917   4.125  0.4646 -1.4091  0.8246
 8680TIP3   OH247454   1.137   4.006  11.257 -0.4220  0.9823  0.1705
 8680TIP3    H147455   1.083   3.959  11.193  0.7656 -0.5537  0.2298
 8680TIP3    H247456   1.201   3.941  11.286 -1.0731  1.5331  3.1747
 8681TIP3   OH247457   0.813   5.480  16.633 -0.3609  0.5138 -0.0502
 8681TIP3    H147458   0.785   5.529  16.556 -1.7117  0.6711  0.5135
 8681TIP3    H247459   0.906   5.461  16.618 -0.1112  2.2281 -0.8024
 8682TIP3   OH247460   2.247   0.812  16.327 -0.2929  0.3602  0.4245
 8682TIP3    H147461   2.325   0.837  16.277 -0.5661 -0.3320 -0.3797
 8682TIP3    H247462   2.174   0.854  16.281 -0.3398  1.7144  1.6701
 8683TIP3   OH247463   2.232   6.764  10.696 -0.2452 -0.1739 -0.0584
 8683TIP3    H147464   2.229   6.830  10.626  1.9601 -0.6790 -0.7208
 8683TIP3    H247465   2.276   6.809  10.768  1.1900 -0.8243 -0.4821
 8684TIP3   OH247466   1.615   5.921   3.864  0.3383 -0.1975  0.4860
 8684TIP3    H147467   1.664   5.986   3.812 -1.1176  0.1033 -0.5729
 8684TIP3    H247468   1.612   5.843   3.808 -0.6646 -0.0938  0.3730
 8685TIP3   OH247469   6.182   2.128   6.235  0.3772 -0.4236 -0.1501
 8685TIP3    H147470   6.203   2.047   6.280  0.6459 -0.6492 -0.6757
 8685TIP3    H247471   6.105   2.107   6.182 -0.5692  0.1178  0.9749
 8686TIP3   OH247472   6.498   5.545   4.808  0.1034  0.7355 -0.3852
 8686TIP3    H147473   6.579   5.554   4.859  1.1103 -0.3529 -1.7309
 8686TIP3    H247474   6.505   5.612   4.740  0.8238 -0.5829 -1.6639
 8687TIP3   OH247475   1.504   4.443   5.751 -0.3318 -0.2451 -0.4337
 8687TIP3    H147476   1.489   4.538   5.751  2.2957  0.2533 -1.2095
 8687TIP3    H247477   1.514   4.420   5.843  2.1282  0.8963 -0.3330
 8688TIP3   OH247478   0.165   1.458   2.863 -0.2129 -0.7669 -0.8544
 8688TIP3    H147479   0.222   1.394   2.906  1.0331 -0.1227 -1.4726
 8688TIP3    H247480   0.076   1.435   2.890  0.4896 -0.4170  2.0158
 8689TIP3   OH247481   2.791   5.906  16.075 -0.0645 -0.0833  0.3204
 8689TIP3    H147482   2.772   5.911  15.981  1.1179 -1.8217 -0.0542
 8689TIP3    H247483   2.879   5.942  16.085 -0.2769  0.3197  0.8134
 8690TIP3   OH247484   6.091   6.699   1.020  0.1136  0.1859  0.1328
 8690TIP3    H147485   5.998   6.721   1.013  0.1844  0.3066 -0.4777
 8690TIP3    H247486   6.117   6.678   0.930 -0.4782 -4.6815  0.8224
 8691TIP3   OH247487   2.703   0.516  14.658  0.2711 -0.7305  0.7853
 8691TIP3    H147488   2.719   0.502  14.751 -2.5621  1.4555  1.7373
 8691TIP3    H247489   2.617   0.476  14.642 -0.7898  1.7006 -0.0218
 8692TIP3   OH247490   0.822   3.486   2.905  0.4604 -0.0938 -0.4117
 8692TIP3    H147491   0.731   3.515   2.904  0.8072  1.0880 -2.2856
 8692TIP3    H247492   0.819   3.395   2.873 -0.2396 -0.9016  1.7697
 8693TIP3   OH247493   0.993   4.695   0.344  0.3649 -0.9067  0.0608
 8693TIP3    H147494   0.961   4.654   0.424 -2.8059 -0.4782 -0.8427
 8693TIP3    H247495   1.031   4.778   0.373  0.7649 -1.4699  1.2284
 8694TIP3   OH247496   5.357   1.923  13.113 -0.0080  0.0998  0.2120
 8694TIP3    H147497   5.404   1.848  13.077  1.5969  1.0294  0.2525
 8694TIP3    H247498   5.329   1.973  13.036  1.4914  0.9343  0.1552
 8695TIP3   OH247499   6.735   4.031  15.272  0.6211 -0.4273 -0.7981
 8695TIP3    H147500   6.821   4.054  15.307  0.9634  0.0849 -1.9522
 8695TIP3    H247501   6.679   4.022  15.350  1.0335  1.9620 -0.1417
 8696TIP3   OH247502   4.828   5.765  15.845  0.3672 -0.3011  0.4498
 8696TIP3    H147503   4.734   5.751  15.858  0.1479 -0.3395 -0.9861
 8696TIP3    H247504   4.846   5.850  15.886 -0.1231 -0.6718  1.4368
 8697TIP3   OH247505   3.608   5.385   3.029  0.1148 -0.9524 -0.3701
 8697TIP3    H147506   3.600   5.388   2.934  0.7544 -0.4044 -0.4133
 8697TIP3    H247507   3.610   5.292   3.050 -0.6047 -1.0831 -0.8375
 8698TIP3   OH247508   6.421   5.401  15.957  0.0797 -0.4276  0.0240
 8698TIP3    H147509   6.357   5.434  16.020 -0.4559 -1.7945  0.2247
 8698TIP3    H247510   6.369   5.354  15.892  0.8775 -1.8061  0.3393
 8699TIP3   OH247511   2.479   0.965  16.200 -0.0395 -0.3140 -0.8584
 8699TIP3    H147512   2.450   0.904  16.133  0.9335  0.4812 -2.0428
 8699TIP3    H247513   2.492   1.048  16.154 -0.1038  0.4689  0.4663
 8700TIP3   OH247514   2.045   6.361   3.853  0.4077  0.7569 -0.6806
 8700TIP3    H147515   2.044   6.284   3.796  0.5994  0.1765  0.0860
 8700TIP3    H247516   1.956   6.396   3.848 -0.2160 -0.5918  0.3899
 8701TIP3   OH247517   6.317   1.927  14.498  0.5364 -0.3987  0.1481
 8701TIP3    H147518   6.250   1.859  14.486  0.7012 -0.5002 -0.2078
 8701TIP3    H247519   6.400   1.883  14.480  0.5417  0.2668 -1.7653
 8702TIP3   OH247520   0.353   3.643   2.688 -0.7241  1.2180  0.3261
 8702TIP3    H147521   0.366   3.617   2.597  1.3179 -0.9764  1.1437
 8702TIP3    H247522   0.339   3.738   2.684  0.6079  1.3917 -2.1768
 8703TIP3   OH247523   2.374   3.853  16.957  0.2916  0.3476  0.2394
 8703TIP3    H147524   2.426   3.832  16.880 -0.6017 -1.9484  0.2038
 8703TIP3    H247525   2.297   3.898  16.923 -0.1617 -0.7752 -0.2366
 8704TIP3   OH247526   4.196   5.490   1.072 -0.0012 -0.0491  0.0372
 8704TIP3    H147527   4.247   5.501   0.992  0.6982 -0.8051  0.3632
 8704TIP3    H247528   4.211   5.570   1.122  2.2378 -0.9222  0.8679
 8705TIP3   OH247529   1.973   6.639  15.987  0.5197 -0.3442  0.2488
 8705TIP3    H147530   1.984   6.549  15.957 -0.7209 -0.2642 -0.5438
 8705TIP3    H247531   2.047   6.655  16.046  1.0737 -1.6782 -0.0612
 8706TIP3   OH247532   3.411   1.821   3.298 -0.5045 -0.4468 -0.6358
 8706TIP3    H147533   3.383   1.759   3.231 -1.6627  0.7118 -1.2681
 8706TIP3    H247534   3.467   1.883   3.251  1.4813 -1.5375  0.1956
 8707TIP3   OH247535   3.706   0.087  15.393 -0.2683  0.6223  0.6609
 8707TIP3    H147536   3.681   0.081  15.300  2.0563  0.2381  0.0102
 8707TIP3    H247537   3.639   0.036  15.438  0.1339 -1.6786 -1.1473
 8708TIP3   OH247538   0.346   1.407   3.808 -0.1393 -0.1861 -1.0415
 8708TIP3    H147539   0.316   1.495   3.831 -0.2938 -0.8747  1.7522
 8708TIP3    H247540   0.291   1.382   3.734 -2.2096  0.9418  0.0063
 8709TIP3   OH247541   4.924   1.804   0.567 -0.5235 -0.2063  0.4462
 8709TIP3    H147542   4.941   1.842   0.653 -1.4970  2.0618 -0.2749
 8709TIP3    H247543   4.870   1.727   0.584 -0.3125 -0.0620  1.8839
 8710TIP3   OH247544   5.365   1.097  15.786 -0.4603  0.2658  0.4843
 8710TIP3    H147545   5.428   1.095  15.858 -1.2155 -0.4988  1.1447
 8710TIP3    H247546   5.284   1.063  15.824 -0.4782 -1.6462 -1.1374
 8711TIP3   OH247547   3.085   0.404  12.984  0.6925  0.5049  0.1246
 8711TIP3    H147548   3.093   0.325  12.930 -0.3758  0.6130 -0.2101
 8711TIP3    H247549   3.104   0.476  12.924 -0.1618  0.6042 -0.0406
 8712TIP3   OH247550   6.632   6.498  16.639 -0.6833  0.1295  0.0525
 8712TIP3    H147551   6.639   6.567  16.573  2.3381 -0.8243 -0.7685
 8712TIP3    H247552   6.601   6.543  16.718 -0.6029  2.0309 -0.9411
 8713TIP3   OH247553   2.059   1.887  11.947 -0.5548  0.5915 -0.0996
 8713TIP3    H147554   2.125   1.950  11.918 -0.8800  0.8905 -0.2007
 8713TIP3    H247555   2.024   1.924  12.027  0.2179 -0.1520  0.5989
 8714TIP3   OH247556   4.163   4.474  14.655  0.2169 -0.0506  0.2754
 8714TIP3    H147557   4.094   4.442  14.598  0.1095 -0.3580  0.5758
 8714TIP3    H247558   4.223   4.521  14.596 -0.6615  0.9265  0.1382
 8715TIP3   OH247559   6.327   4.963   0.249 -0.4819 -0.1682  0.5046
 8715TIP3    H147560   6.278   4.887   0.279 -0.2935  0.1592  1.7102
 8715TIP3    H247561   6.417   4.947   0.279  0.4987 -1.2973 -2.6240
 8716TIP3   OH247562   1.547   6.067   4.131  0.2303 -0.1866  0.0414
 8716TIP3    H147563   1.589   6.040   4.049  2.4818 -0.9637  1.3546
 8716TIP3    H247564   1.556   5.991   4.189 -2.3396 -0.0640  0.7021
 8717TIP3   OH247565   3.788   4.322   1.816  0.1086  0.0233 -0.4784
 8717TIP3    H147566   3.754   4.403   1.855 -0.2390 -0.1269 -0.4670
 8717TIP3    H247567   3.784   4.258   1.886  0.1283 -0.0737 -0.5654
 8718TIP3   OH247568   2.597   3.497  11.707 -0.3809 -0.9921 -0.0465
 8718TIP3    H147569   2.688   3.488  11.735 -0.1799 -2.5742 -1.1062
 8718TIP3    H247570   2.593   3.584  11.667  0.2909 -0.3362  1.2442
 8719TIP3   OH247571   3.525   2.465  14.329  0.3324 -0.2487  0.3812
 8719TIP3    H147572   3.537   2.545  14.278  1.1982 -0.5816  0.0535
 8719TIP3    H247573   3.574   2.399  14.282  0.8531 -0.6450  1.4554
 8720TIP3   OH247574   6.126   6.515  13.363  0.1024  0.1372  0.3704
 8720TIP3    H147575   6.221   6.525  13.365  0.5364 -2.9102 -0.1260
 8720TIP3    H247576   6.108   6.441  13.420 -1.9210  0.2115 -0.0906
 8721TIP3   OH247577   6.371   0.391  15.220  0.4345 -0.0301 -0.1257
 8721TIP3    H147578   6.326   0.471  15.248 -0.8922 -0.8987  0.2855
 8721TIP3    H247579   6.347   0.325  15.285  0.1273 -1.2032 -1.3923
 8722TIP3   OH247580   5.700   2.707   1.819  0.1354  0.0906  0.2255
 8722TIP3    H147581   5.690   2.802   1.825  1.8077  0.2970  0.2748
 8722TIP3    H247582   5.709   2.690   1.725  2.8804  0.4014  0.3533
 8723TIP3   OH247583   4.635   2.453   1.273 -0.4444  0.1825  0.1009
 8723TIP3    H147584   4.730   2.452   1.262 -0.5283  0.9762 -0.8092
 8723TIP3    H247585   4.620   2.408   1.356  0.5865 -1.7183 -0.6645
 8724TIP3   OH247586   4.402   4.079   1.934 -0.5491 -0.7471  0.4403
 8724TIP3    H147587   4.379   4.117   1.849  1.8628 -0.6260 -0.2321
 8724TIP3    H247588   4.356   4.134   1.997  0.0718  1.1539 -0.6727
 8725TIP3   OH247589   0.189   2.027  11.927 -0.1128 -0.4201  0.3972
 8725TIP3    H147590   0.120   2.001  11.987 -0.5587  1.1925  0.6202
 8725TIP3    H247591   0.270   2.004  11.972 -0.3556  2.2851  2.4712
 8726TIP3   OH247592   4.151   6.428  16.161  0.8844 -0.1472 -0.3330
 8726TIP3    H147593   4.145   6.523  16.159 -0.6336 -0.2271 -0.5146
 8726TIP3    H247594   4.081   6.400  16.220  2.1358 -1.1004  0.7509
 8727TIP3   OH247595   6.529   0.779  15.776  0.2753  0.8257  0.2548
 8727TIP3    H147596   6.557   0.824  15.696  0.6575  0.6463  0.2815
 8727TIP3    H247597   6.552   0.839  15.847 -0.7225  1.2991  0.1922
 8728TIP3   OH247598   3.327   6.217  11.748 -0.1630 -0.0004  0.3116
 8728TIP3    H147599   3.392   6.278  11.713 -0.3683 -0.7664 -1.4707
 8728TIP3    H247600   3.345   6.134  11.705 -1.5984 -0.5183  0.6455
 8729TIP3   OH247601   6.532   5.775  11.680 -0.2819 -0.4783 -0.0529
 8729TIP3    H147602   6.486   5.814  11.605 -0.8586  0.9102  0.9793
 8729TIP3    H247603   6.476   5.796  11.755  0.1447 -2.0896  0.7428
 8730TIP3   OH247604   4.026   3.126  15.137 -0.6044 -0.4990 -0.2259
 8730TIP3    H147605   4.102   3.069  15.121 -0.3783 -0.5970  1.0550
 8730TIP3    H247606   4.011   3.119  15.231 -1.0675  0.9654 -0.1707
 8731TIP3   OH247607   2.290   5.956  15.883 -0.5389 -0.7401 -0.3403
 8731TIP3    H147608   2.216   5.896  15.875 -1.7910  0.6346  0.3763
 8731TIP3    H247609   2.258   6.038  15.845  0.1756  0.2367  1.0695
 8732TIP3   OH247610   4.208   6.428  14.371 -0.8386 -0.2617 -0.6497
 8732TIP3    H147611   4.180   6.482  14.297 -1.7957  0.5757  0.2852
 8732TIP3    H247612   4.261   6.487  14.426 -0.3318 -0.8046 -0.5381
 8733TIP3   OH247613   6.417   3.646  13.852 -0.0322  0.7275  0.1675
 8733TIP3    H147614   6.396   3.733  13.818 -1.7763  0.2506 -0.0729
 8733TIP3    H247615   6.380   3.586  13.787 -0.0031 -0.2004  0.9905
 8734TIP3   OH247616   1.201   4.133   3.362 -0.2546 -0.2673 -0.5335
 8734TIP3    H147617   1.170   4.178   3.283  0.3071  0.3171 -0.4251
 8734TIP3    H247618   1.273   4.187   3.394 -1.2664  0.1972  1.0957
 8735TIP3   OH247619   4.571   4.758   3.587  0.6379 -0.1168 -0.1315
 8735TIP3    H147620   4.510   4.813   3.636 -0.7958  0.8800 -2.8251
 8735TIP3    H247621   4.556   4.669   3.620 -0.5502  0.4406  0.9063
 8736TIP3   OH247622   3.157   5.918   0.168  0.3446 -0.0775 -0.2860
 8736TIP3    H147623   3.128   5.853   0.104  1.0187 -0.6445 -0.0260
 8736TIP3    H247624   3.153   5.873   0.252  1.3940 -0.0011 -0.1718
 8737TIP3   OH247625   3.558   1.700  15.752 -0.3521  0.4899  0.2277
 8737TIP3    H147626   3.484   1.659  15.707  0.4546  0.2227 -0.8926
 8737TIP3    H247627   3.553   1.666  15.842  0.4333 -2.3749 -0.6934
 8738TIP3   OH247628   3.630   4.892  12.531  0.0653 -0.5974  0.4079
 8738TIP3    H147629   3.632   4.809  12.484 -1.0282 -1.3542  1.6087
 8738TIP3    H247630   3.713   4.895  12.578  0.1788 -0.9300  0.2289
 8739TIP3   OH247631   1.543   4.844  14.779  0.3264 -0.3716 -0.0796
 8739TIP3    H147632   1.634   4.868  14.791 -0.1394  1.4289  0.1929
 8739TIP3    H247633   1.503   4.854  14.865 -0.2233 -0.7193 -0.2834
 8740TIP3   OH247634   3.584   2.674  13.521  0.3306  0.0576  0.1785
 8740TIP3    H147635   3.661   2.696  13.468  0.6645 -1.6478 -0.0956
 8740TIP3    H247636   3.618   2.621  13.593 -0.3949  0.6140  0.9548
 8741TIP3   OH247637   0.077   1.849  12.630  0.5729  0.5762  0.3699
 8741TIP3    H147638   0.082   1.944  12.638  2.9243  0.5912 -0.3477
 8741TIP3    H247639   0.159   1.818  12.670 -0.8525 -1.2965  2.0294
 8742TIP3   OH247640   0.307   2.992  16.118  0.4253  0.1692 -0.8449
 8742TIP3    H147641   0.223   2.952  16.093 -0.1217  1.2091 -0.7350
 8742TIP3    H247642   0.303   3.080  16.080  0.6292  0.9153  0.8002
 8743TIP3   OH247643   5.054   4.177   1.935 -0.0789 -0.1858  0.0869
 8743TIP3    H147644   5.107   4.106   1.897 -0.0207 -0.6043  0.9391
 8743TIP3    H247645   4.964   4.151   1.918 -0.0474  0.1860 -0.7444
 8744TIP3   OH247646   1.912   4.453  15.642  0.3051  0.1336 -0.2893
 8744TIP3    H147647   1.900   4.526  15.581  1.6576 -0.2065 -1.0045
 8744TIP3    H247648   2.005   4.455  15.663  0.2300 -0.9823  0.2143
 8745TIP3   OH247649   4.479   0.864  11.849 -0.3413 -0.2724  0.5226
 8745TIP3    H147650   4.408   0.801  11.864 -1.2811  0.7992  0.7663
 8745TIP3    H247651   4.477   0.881  11.755  0.3048 -1.0361  0.3631
 8746TIP3   OH247652   2.777   3.512   4.472  0.2073  0.2186  0.8072
 8746TIP3    H147653   2.717   3.442   4.497 -0.6045  0.6844  0.1898
 8746TIP3    H247654   2.863   3.470   4.471  0.0889 -0.1787  2.8485
 8747TIP3   OH247655   3.443   1.331   0.620  0.3393 -0.0609 -0.0744
 8747TIP3    H147656   3.431   1.280   0.540 -2.8648 -0.6651  0.6438
 8747TIP3    H247657   3.479   1.269   0.683  0.1037 -0.3719 -0.2472
 8748TIP3   OH247658   5.293   3.554   0.818 -0.2469 -0.1806 -0.2288
 8748TIP3    H147659   5.389   3.553   0.809 -0.1061 -3.9091  0.3526
 8748TIP3    H247660   5.261   3.534   0.730 -0.4521 -0.1420 -0.1625
 8749TIP3   OH247661   2.028   3.418   0.062 -0.8732 -0.5145  0.3312
 8749TIP3    H147662   2.119   3.447   0.058 -0.7904 -0.6915  0.8458
 8749TIP3    H247663   2.033   3.324   0.079 -1.1495 -0.6471 -0.3027
 8750TIP3   OH247664   5.674   4.812   0.785 -0.1716  0.4420 -0.3681
 8750TIP3    H147665   5.630   4.897   0.785 -0.3106  0.3721 -0.7588
 8750TIP3    H247666   5.767   4.833   0.793 -0.2122  0.6292 -0.3820
 8751TIP3   OH247667   1.619   3.326  13.854  0.3284 -0.4547  0.1170
 8751TIP3    H147668   1.689   3.365  13.802  1.5849 -0.7441  1.5170
 8751TIP3    H247669   1.539   3.348  13.807  1.2111  1.3556 -0.6466
 8752TIP3   OH247670   6.039   0.470  17.195 -0.3042  0.1664 -0.3216
 8752TIP3    H147671   6.012   0.397  17.250 -2.3971 -0.5570 -2.1626
 8752TIP3    H247672   6.088   0.429  17.123  0.6944  0.8738 -0.0721
 8753TIP3   OH247673   4.302   1.781   2.271 -0.0702 -0.4383  0.2501
 8753TIP3    H147674   4.214   1.780   2.236 -0.0245 -1.0582  0.1423
 8753TIP3    H247675   4.298   1.724   2.348  0.6237 -1.9347 -0.7557
 8754TIP3   OH247676   4.993   0.298  15.372 -0.1102  0.3997  0.0989
 8754TIP3    H147677   4.932   0.354  15.420  1.3601  0.9527  1.4111
 8754TIP3    H247678   5.008   0.223  15.431  0.8947  0.5501  0.0505
 8755TIP3   OH247679   1.202   2.172   5.581 -0.5762 -0.3544  0.2080
 8755TIP3    H147680   1.277   2.200   5.633  0.8894 -4.1832  0.4776
 8755TIP3    H247681   1.161   2.102   5.632 -1.2948 -1.7690 -2.1280
 8756TIP3   OH247682   4.977   2.546   6.006  0.3298  0.3373 -0.2957
 8756TIP3    H147683   4.908   2.534   5.941 -0.8043 -0.9484  1.0672
 8756TIP3    H247684   5.018   2.630   5.984 -1.3963  0.9321 -1.3793
 8757TIP3   OH247685   0.938   4.944  10.526 -0.1469 -0.4840  0.6438
 8757TIP3    H147686   0.963   4.853  10.540  0.6236 -0.3758  0.0399
 8757TIP3    H247687   0.848   4.939  10.492 -0.6522 -0.9256  1.9722
 8758TIP3   OH247688   2.027   5.660   5.909  0.4810  0.4254  0.1987
 8758TIP3    H147689   1.958   5.675   5.973  1.4354  2.6996  0.8068
 8758TIP3    H247690   2.022   5.567   5.889 -0.0207 -0.3619  3.4288
 8759TIP3   OH247691   4.922   2.029  14.535 -0.3796  0.3062  0.2997
 8759TIP3    H147692   4.908   2.023  14.630  0.0067 -1.2563  0.2897
 8759TIP3    H247693   4.923   2.123  14.517  0.0957  0.6526  1.9271
 8760TIP3   OH247694   0.590   5.403   4.670  0.0829  0.5699 -0.1810
 8760TIP3    H147695   0.611   5.391   4.763 -0.4333  1.7733  0.1146
 8760TIP3    H247696   0.507   5.451   4.670 -0.3730 -0.1831 -1.2792
 8761TIP3   OH247697   2.982   2.139   5.549  0.4033  0.6821 -0.0096
 8761TIP3    H147698   3.013   2.141   5.459 -0.0129  0.2487 -0.1700
 8761TIP3    H247699   2.985   2.230   5.578  1.3812  0.7110 -0.1649
 8762TIP3   OH247700   3.437   2.049  16.281  0.3342 -0.0764 -0.4136
 8762TIP3    H147701   3.435   2.103  16.360  1.4402 -0.3243 -0.1858
 8762TIP3    H247702   3.346   2.022  16.267 -0.2947  2.0997 -0.7373
 8763TIP3   OH247703   2.784   1.904  10.894  0.3774 -0.2751 -0.6988
 8763TIP3    H147704   2.802   1.853  10.972 -2.8333 -1.5240 -0.6148
 8763TIP3    H247705   2.826   1.988  10.910  1.5976 -1.2103  1.3982
 8764TIP3   OH247706   4.149   2.643   2.325 -0.3704 -0.0762 -0.0249
 8764TIP3    H147707   4.130   2.734   2.345 -1.6118  0.0529 -1.5641
 8764TIP3    H247708   4.099   2.625   2.245  2.1874 -1.2548 -1.4962
 8765TIP3   OH247709   5.016   2.688  14.159 -0.1505  0.3143 -0.1084
 8765TIP3    H147710   5.072   2.753  14.202 -0.1740 -0.2391  0.7890
 8765TIP3    H247711   5.039   2.693  14.067 -0.6175  2.0718 -0.1699
 8766TIP3   OH247712   0.403   3.979  14.272 -0.1912  0.1910  0.1153
 8766TIP3    H147713   0.450   4.062  14.266 -1.9335  1.2908  0.9475
 8766TIP3    H247714   0.423   3.947  14.360 -0.6869  0.4743  0.3336
 8767TIP3   OH247715   2.083   4.934  10.967 -0.6525 -0.5645  0.6883
 8767TIP3    H147716   2.025   5.007  10.990 -1.6645 -0.8940 -0.6804
 8767TIP3    H247717   2.050   4.860  11.016 -0.9074 -0.5705  0.5083
 8768TIP3   OH247718   2.310   0.598  14.564  0.0248 -0.2764  0.4788
 8768TIP3    H147719   2.355   0.541  14.626 -0.1823 -1.3390 -0.3228
 8768TIP3    H247720   2.255   0.539  14.512 -0.6929  0.7368  0.0532
 8769TIP3   OH247721   1.145   3.522  14.685 -0.4889 -0.0639 -0.0563
 8769TIP3    H147722   1.116   3.493  14.599  0.7056  0.5536 -0.6763
 8769TIP3    H247723   1.234   3.488  14.694 -1.1557 -1.5541  1.6391
 8770TIP3   OH247724   1.479   2.123  17.181  0.3340 -0.5494  0.1335
 8770TIP3    H147725   1.410   2.154  17.239 -0.2864  0.4905 -1.1144
 8770TIP3    H247726   1.492   2.194  17.119  1.9414 -1.0752 -0.1893
 8771TIP3   OH247727   5.253   1.889  11.808  0.9404 -0.5741  0.5187
 8771TIP3    H147728   5.341   1.920  11.785 -0.3788  2.1471 -1.3589
 8771TIP3    H247729   5.217   1.856  11.726 -0.6298  0.7074  0.6280
 8772TIP3   OH247730   3.723   2.945   3.785 -1.0079 -0.0454 -0.0427
 8772TIP3    H147731   3.783   2.879   3.751 -2.2111 -0.4475 -1.4326
 8772TIP3    H247732   3.703   2.915   3.874 -0.0218 -0.4870  0.0426
 8773TIP3   OH247733   3.507   3.086   5.195  0.3672  0.2469  0.1984
 8773TIP3    H147734   3.444   3.153   5.220  0.5616  0.1558  0.9776
 8773TIP3    H247735   3.568   3.082   5.269  0.8833 -0.1464 -0.2414
 8774TIP3   OH247736   2.846   0.491  15.826  0.1307 -0.4814 -0.2346
 8774TIP3    H147737   2.861   0.417  15.768 -1.4777 -0.6393 -0.4919
 8774TIP3    H247738   2.865   0.568  15.773  1.5166 -0.6586 -0.0529
 8775TIP3   OH247739   5.079   1.515  14.954 -0.1850 -0.1070 -0.2696
 8775TIP3    H147740   5.116   1.444  14.903  1.1429  0.7115 -0.4843
 8775TIP3    H247741   5.076   1.482  15.044 -1.4101 -1.1183 -0.6572
 8776TIP3   OH247742   3.046   4.657  15.399 -0.4997 -0.5052  0.5018
 8776TIP3    H147743   3.019   4.688  15.486 -0.4387 -2.2723  1.1951
 8776TIP3    H247744   3.065   4.737  15.350 -3.1283  0.6650  1.2263
 8777TIP3   OH247745   3.088   2.900  11.102  0.4669  0.4967 -0.2080
 8777TIP3    H147746   3.064   2.808  11.112  1.6134  0.3710  1.9569
 8777TIP3    H247747   3.005   2.945  11.089 -0.2274 -0.6858 -0.0595
 8778TIP3   OH247748   2.571   4.709  15.931  0.4459 -0.0467 -0.2015
 8778TIP3    H147749   2.659   4.690  15.961 -0.0366 -0.0630  1.2627
 8778TIP3    H247750   2.555   4.799  15.957 -1.1150 -1.0162  2.5510
 8779TIP3   OH247751   4.726   3.545  16.306 -0.2743  0.0008 -0.0042
 8779TIP3    H147752   4.774   3.470  16.340 -0.0210 -1.1800 -2.6547
 8779TIP3    H247753   4.788   3.618  16.311  0.2808 -0.4997  0.5785
 8780TIP3   OH247754   6.661   3.889  11.154  0.3228 -0.4320 -0.1921
 8780TIP3    H147755   6.607   3.958  11.116 -0.0832  0.5545  2.0209
 8780TIP3    H247756   6.751   3.917  11.138  0.1624  0.2567  0.1138
 8781TIP3   OH247757   3.743   0.380   0.520  0.0893 -0.1601 -0.4376
 8781TIP3    H147758   3.760   0.322   0.594 -1.7671 -0.4528 -0.1801
 8781TIP3    H247759   3.704   0.323   0.453  2.0826  0.0157 -1.8506
 8782TIP3   OH247760   3.801   5.143   4.328 -0.3201 -0.1302 -0.2037
 8782TIP3    H147761   3.721   5.090   4.326 -2.0799  2.3025  0.7289
 8782TIP3    H247762   3.787   5.209   4.260  1.7166 -0.6142 -1.1854
 8783TIP3   OH247763   1.418   4.808   0.373 -0.1922  0.3328  0.6968
 8783TIP3    H147764   1.416   4.884   0.315 -2.9872 -0.2643 -0.1594
 8783TIP3    H247765   1.372   4.838   0.452  0.1884  0.0214  1.0366
 8784TIP3   OH247766   4.699   2.366  16.841 -0.2788 -0.2377  0.0230
 8784TIP3    H147767   4.650   2.288  16.866 -2.2988  0.9960  0.1294
 8784TIP3    H247768   4.685   2.374  16.747  0.7593 -0.5224 -0.1721
 8785TIP3   OH247769   5.066   5.972  13.500  0.0973  0.2166  0.2728
 8785TIP3    H147770   5.046   5.895  13.553 -0.6973  0.7528  0.7879
 8785TIP3    H247771   5.059   5.942  13.410  1.5862 -0.7437  0.4457
 8786TIP3   OH247772   4.479   5.907   2.912 -0.6682 -0.3164  0.5559
 8786TIP3    H147773   4.517   5.959   2.842 -1.6528  0.0043  0.2435
 8786TIP3    H247774   4.550   5.896   2.975  0.0305 -0.0298 -0.1625
 8787TIP3   OH247775   2.163   3.497   4.854 -0.3932 -0.1345 -0.0959
 8787TIP3    H147776   2.105   3.571   4.837 -1.1528 -0.8749 -0.8234
 8787TIP3    H247777   2.121   3.450   4.926 -1.3174 -1.2715 -1.3314
 8788TIP3   OH247778   1.332   2.390  11.963 -0.6561 -0.0992  0.2079
 8788TIP3    H147779   1.300   2.303  11.984  0.5502 -0.5063  0.4262
 8788TIP3    H247780   1.337   2.435  12.047  1.2761 -0.7274  0.4711
 8789TIP3   OH247781   2.235   6.711  14.147  0.3290 -0.3792  0.6175
 8789TIP3    H147782   2.219   6.618  14.129 -0.1776  0.0889 -1.6740
 8789TIP3    H247783   2.320   6.729  14.108  1.2520 -0.2251  2.5935
 8790TIP3   OH247784   6.332   6.480  16.812  0.3982 -0.2205  0.2732
 8790TIP3    H147785   6.336   6.556  16.753 -0.3966 -0.1329  0.3304
 8790TIP3    H247786   6.380   6.507  16.890  1.0697 -0.1749 -0.1473
 8791TIP3   OH247787   1.942   4.544  11.338  0.4165  0.4654  0.2786
 8791TIP3    H147788   1.863   4.564  11.286  0.1856  3.6164  1.6010
 8791TIP3    H247789   1.940   4.449  11.349 -1.1535 -0.0029 -2.8194
 8792TIP3   OH247790   2.661   1.241  15.564  0.1879  0.7317 -0.5532
 8792TIP3    H147791   2.643   1.269  15.654 -1.7106 -0.0430 -0.6346
 8792TIP3    H247792   2.747   1.199  15.568 -0.1106  0.2097  1.0313
 8793TIP3   OH247793   2.262   2.447  16.562 -0.4921  0.3235  0.0757
 8793TIP3    H147794   2.203   2.438  16.637 -2.3239 -1.1826 -1.4402
 8793TIP3    H247795   2.204   2.460  16.487  1.1229 -0.4337 -1.3785
 8794TIP3   OH247796   1.455   1.304  16.118 -0.0671  0.0558  0.0048
 8794TIP3    H147797   1.478   1.380  16.065 -1.7985  0.3129 -0.4509
 8794TIP3    H247798   1.523   1.299  16.185  1.1806  0.7854 -1.1797
 8795TIP3   OH247799   0.640   0.520  14.299  0.0479  0.9414  0.1685
 8795TIP3    H147800   0.725   0.548  14.265 -0.6883  2.3199 -0.6093
 8795TIP3    H247801   0.623   0.579  14.372 -1.2633  2.2067 -1.1175
 8796TIP3   OH247802   4.236   1.907   5.286 -0.2960 -0.4241 -0.6030
 8796TIP3    H147803   4.176   1.839   5.315  1.2633 -1.5150  0.2146
 8796TIP3    H247804   4.190   1.950   5.214 -1.6470 -1.8433 -0.6474
 8797TIP3   OH247805   3.275   3.207  16.248 -0.3657 -0.2007  0.0647
 8797TIP3    H147806   3.235   3.137  16.196 -1.8831 -0.0386  0.9449
 8797TIP3    H247807   3.298   3.165  16.331  1.6844 -0.3685 -0.5426
 8798TIP3   OH247808   6.640   6.244   5.952  1.2229 -0.2593 -0.6652
 8798TIP3    H147809   6.695   6.280   6.022  1.5898 -1.4191 -0.3324
 8798TIP3    H247810   6.597   6.321   5.914 -1.3848  0.2733  2.8140
 8799TIP3   OH247811   3.196   4.636  16.968 -0.3413 -0.7753 -0.1347
 8799TIP3    H147812   3.205   4.722  17.010  0.3600 -0.5589 -0.6965
 8799TIP3    H247813   3.284   4.599  16.971 -0.3352 -0.8785 -1.1167
 8800TIP3   OH247814   5.967   1.439  11.998  0.3820  0.4316  0.0162
 8800TIP3    H147815   6.055   1.411  11.973  0.5653  2.5946 -2.0622
 8800TIP3    H247816   5.916   1.358  12.002  1.7721 -0.5900 -1.6980
 8801TIP3   OH247817   2.179   0.157   3.962  0.7051 -0.1617 -0.2784
 8801TIP3    H147818   2.204   0.249   3.970  0.3335 -0.1784  1.2858
 8801TIP3    H247819   2.093   0.160   3.920  0.3829  0.2476  0.3951
 8802TIP3   OH247820   2.268   5.723   3.669  0.2485 -0.3865  0.6549
 8802TIP3    H147821   2.255   5.632   3.695  0.6940 -1.0917 -1.3901
 8802TIP3    H247822   2.228   5.729   3.582 -2.9267  2.3106  2.0573
 8803TIP3   OH247823   6.081   0.488   5.286 -0.3511  0.1054  0.6133
 8803TIP3    H147824   6.104   0.553   5.220  0.5403 -0.8554 -0.0400
 8803TIP3    H247825   6.150   0.495   5.352  0.0799 -0.5987  0.2365
 8804TIP3   OH247826   1.835   2.608   2.752 -0.2158  0.1326  0.1384
 8804TIP3    H147827   1.827   2.551   2.675  1.6086  1.9048 -1.4875
 8804TIP3    H247828   1.749   2.648   2.761 -0.4602 -0.1069 -0.9935
 8805TIP3   OH247829   5.384   0.586   3.957  0.0069 -0.5802  0.2926
 8805TIP3    H147830   5.411   0.516   3.897  0.6745  0.3991 -0.5782
 8805TIP3    H247831   5.303   0.620   3.919  0.3681 -0.0376 -0.0080
 8806TIP3   OH247832   3.786   3.288   0.384 -0.3063 -0.2619  0.3511
 8806TIP3    H147833   3.776   3.247   0.470 -0.7037  0.1938  0.5256
 8806TIP3    H247834   3.724   3.240   0.328 -4.8560  3.3080  1.6828
 8807TIP3   OH247835   1.774   2.236   3.925 -0.2699 -0.4435  0.4044
 8807TIP3    H147836   1.742   2.326   3.932  0.6333  0.0778 -1.4727
 8807TIP3    H247837   1.713   2.195   3.863 -0.4873 -1.0338  1.0101
 8808TIP3   OH247838   6.082   2.459   3.474  0.1795  0.5607  0.1489
 8808TIP3    H147839   6.029   2.504   3.539 -1.8381 -0.7011 -0.5225
 8808TIP3    H247840   6.164   2.508   3.471  0.0546  1.1081  3.0578
 8809TIP3   OH247841   3.049   5.421   6.464  0.3690  0.4257 -0.1226
 8809TIP3    H147842   2.975   5.401   6.406  0.3972 -0.7533  0.2168
 8809TIP3    H247843   3.086   5.502   6.429  0.1131 -0.0198 -1.4879
 8810TIP3   OH247844   6.329   5.896  13.840  0.2145 -0.1569 -0.0526
 8810TIP3    H147845   6.278   5.939  13.771 -0.3391  2.1982  1.6989
 8810TIP3    H247846   6.270   5.828  13.873 -0.7103  0.6741  0.0673
 8811TIP3   OH247847   0.410   4.220   0.090 -0.2042 -0.0857 -0.2683
 8811TIP3    H147848   0.322   4.215   0.052 -0.8639  1.8704  0.8551
 8811TIP3    H247849   0.403   4.288   0.157  2.2617  0.3164 -0.3407
 8812TIP3   OH247850   2.717   1.225  16.980  0.1690 -0.5493  0.0210
 8812TIP3    H147851   2.792   1.167  16.992  0.1458 -0.4264  0.8008
 8812TIP3    H247852   2.646   1.168  16.950  0.3890 -0.7673 -0.0864
 8813TIP3   OH247853   5.956   0.672   1.897  0.3936 -0.3474  0.3278
 8813TIP3    H147854   5.907   0.623   1.963  2.5829 -0.9878  1.5826
 8813TIP3    H247855   6.035   0.701   1.943  1.6069 -0.1090 -1.8093
 8814TIP3   OH247856   0.957   5.689   3.337  0.0869 -0.0025  0.3871
 8814TIP3    H147857   0.983   5.727   3.253  0.0684  0.1496  0.4487
 8814TIP3    H247858   0.862   5.702   3.341 -0.0099 -0.5980  0.1422
 8815TIP3   OH247859   4.877   2.996  11.905 -0.6271 -0.5950 -0.6975
 8815TIP3    H147860   4.852   2.911  11.941 -1.3962 -1.2232 -2.6032
 8815TIP3    H247861   4.795   3.042  11.892 -0.1579  1.3987  2.2627
 8816TIP3   OH247862   2.653   2.111  16.286 -0.4214  0.7925 -0.1675
 8816TIP3    H147863   2.651   2.163  16.366 -2.0850  0.7673 -0.1475
 8816TIP3    H247864   2.729   2.055  16.295 -0.7811  0.5332  1.5715
 8817TIP3   OH247865   0.432   5.006   3.912 -0.0696 -0.1091 -0.3465
 8817TIP3    H147866   0.496   5.040   3.849 -0.3173  0.8527 -0.0881
 8817TIP3    H247867   0.475   5.018   3.997  0.2893 -1.4582 -0.3159
 8818TIP3   OH247868   0.628   2.731  11.768 -0.5666 -0.1900  0.0530
 8818TIP3    H147869   0.698   2.720  11.832  1.1185 -0.2703 -1.7186
 8818TIP3    H247870   0.566   2.790  11.810  0.5735 -0.0914  1.6764
 8819TIP3   OH247871   0.712   1.581   0.234  0.3327 -0.1649  0.2138
 8819TIP3    H147872   0.737   1.644   0.166  0.3278 -0.7416 -0.3302
 8819TIP3    H247873   0.617   1.589   0.241  0.2977 -0.3271 -0.0694
 8820TIP3   OH247874   0.900   0.863  12.071 -0.1177 -0.5294  0.4879
 8820TIP3    H147875   0.864   0.824  12.151 -0.4638  0.1669  0.6888
 8820TIP3    H247876   0.824   0.905  12.030  0.1258 -0.5997 -0.0360
 8821TIP3   OH247877   2.664   5.026  14.894  0.2659  0.1454 -0.0080
 8821TIP3    H147878   2.659   5.064  14.806 -0.6468  0.4617  0.1782
 8821TIP3    H247879   2.635   4.936  14.883  0.2001  0.1703 -0.0391
 8822TIP3   OH247880   4.698   0.640  13.665  0.0888  0.3096 -0.0606
 8822TIP3    H147881   4.754   0.693  13.609  0.6663  0.8874  1.0221
 8822TIP3    H247882   4.706   0.551  13.630  1.6567  0.3908  0.0224
 8823TIP3   OH247883   5.663   0.452   4.220  0.6272 -0.7488 -0.5146
 8823TIP3    H147884   5.731   0.392   4.250  0.5348 -0.7441 -0.2905
 8823TIP3    H247885   5.610   0.400   4.159 -0.9266 -1.6962  1.5155
 8824TIP3   OH247886   5.979   3.921  12.105  0.6108 -0.0604  0.1591
 8824TIP3    H147887   5.947   4.010  12.090  1.9321  0.1990 -1.3454
 8824TIP3    H247888   6.000   3.918  12.199 -1.0431  0.6392  0.5854
 8825TIP3   OH247889   5.767   3.720  14.049  0.7531  0.0987 -0.3672
 8825TIP3    H147890   5.842   3.779  14.039 -1.2854  2.8421 -0.3641
 8825TIP3    H247891   5.731   3.740  14.135 -0.8031 -0.1531 -0.9278
 8826TIP3   OH247892   5.802   2.478   0.789  0.2382 -0.4373  0.4237
 8826TIP3    H147893   5.826   2.445   0.703  1.3587  2.3761 -0.4740
 8826TIP3    H247894   5.728   2.536   0.772 -1.1969 -1.7950  1.7913
 8827TIP3   OH247895   6.474   0.522  14.368  0.0565 -0.5600 -0.2889
 8827TIP3    H147896   6.506   0.612  14.359 -1.5209  0.0023 -0.5174
 8827TIP3    H247897   6.431   0.504  14.284 -0.2245 -1.2830  0.0103
 8828TIP3   OH247898   4.881   5.324   5.682 -0.1069 -0.4462 -0.2828
 8828TIP3    H147899   4.974   5.313   5.698  0.5761  1.7897 -2.1868
 8828TIP3    H247900   4.841   5.242   5.711  2.7704 -2.6320 -2.0722
 8829TIP3   OH247901   3.205   6.178  12.857  0.2835  0.1686 -0.4678
 8829TIP3    H147902   3.243   6.119  12.792 -0.0721 -2.4793  1.5614
 8829TIP3    H247903   3.123   6.206  12.817  0.2211 -1.1271 -1.3413
 8830TIP3   OH247904   5.435   6.671   0.544 -0.3008  0.1681 -0.4760
 8830TIP3    H147905   5.448   6.706   0.456 -0.9016  0.0063 -0.6396
 8830TIP3    H247906   5.360   6.719   0.578 -2.6445 -2.4075 -1.5571
 8831TIP3   OH247907   5.209   6.499  16.775  0.5895 -0.3356 -0.9839
 8831TIP3    H147908   5.201   6.457  16.861  0.5531 -0.4747 -1.0538
 8831TIP3    H247909   5.120   6.526  16.753  0.8257  1.0017 -0.3363
 8832TIP3   OH247910   1.733   2.727  11.701  0.8436  0.1424  0.0087
 8832TIP3    H147911   1.705   2.807  11.745  0.1023  1.1531 -2.1550
 8832TIP3    H247912   1.826   2.719  11.722  1.0735  1.9185 -0.1920
 8833TIP3   OH247913   2.956   5.296  11.763  0.3139  0.6503  0.0826
 8833TIP3    H147914   2.907   5.246  11.828 -1.2525  1.0730 -0.7431
 8833TIP3    H247915   2.970   5.234  11.691  0.5382  0.6911  0.0889
 8834TIP3   OH247916   6.366   3.809  12.211  0.2413 -0.3042  0.3448
 8834TIP3    H147917   6.404   3.721  12.212 -2.3910 -1.5487 -0.1271
 8834TIP3    H247918   6.372   3.838  12.302  0.9704 -1.0423  0.5497
 8835TIP3   OH247919   3.892   2.719   5.111  0.0380  0.3297  0.4626
 8835TIP3    H147920   3.950   2.712   5.187 -2.1493  0.1350  2.2082
 8835TIP3    H247921   3.850   2.634   5.105 -0.7030  0.7334 -0.2131
 8836TIP3   OH247922   2.166   6.600  12.007  0.1028 -0.0088 -0.6128
 8836TIP3    H147923   2.240   6.570  11.955  2.2758  1.2656  1.5631
 8836TIP3    H247924   2.127   6.671  11.954  0.6494 -0.4315 -1.6074
 8837TIP3   OH247925   2.591   6.761   4.237  0.1388  0.2999  0.3883
 8837TIP3    H147926   2.561   6.670   4.234 -3.2187  1.2397  1.4182
 8837TIP3    H247927   2.518   6.812   4.203  2.1919  2.6466 -0.8315
 8838TIP3   OH247928   2.183   3.331   4.057  1.1868  0.3275  0.3477
 8838TIP3    H147929   2.230   3.274   3.997  1.2710 -1.1991  1.8135
 8838TIP3    H247930   2.129   3.273   4.109 -0.8104  1.8479  0.1066
 8839TIP3   OH247931   3.672   1.767   5.369 -0.4359  0.0040  0.2849
 8839TIP3    H147932   3.626   1.840   5.328 -0.0365  1.1517  1.8383
 8839TIP3    H247933   3.743   1.807   5.419  1.9126 -1.6604 -1.4796
 8840TIP3   OH247934   4.258   1.621   2.503 -0.1598 -0.0821 -0.3858
 8840TIP3    H147935   4.230   1.578   2.584  0.6613  1.2390  0.6529
 8840TIP3    H247936   4.275   1.712   2.529  0.7789  0.2112 -1.8951
 8841TIP3   OH247937   0.617   2.317  14.574 -0.0509 -0.2105  0.4231
 8841TIP3    H147938   0.677   2.384  14.542  1.1123 -0.6456  1.6264
 8841TIP3    H247939   0.578   2.280  14.495  0.9923  0.3283 -0.3628
 8842TIP3   OH247940   4.979   5.808   1.997  0.5848 -0.0362 -0.7822
 8842TIP3    H147941   5.032   5.770   2.068 -0.7241 -0.5713 -0.0562
 8842TIP3    H247942   5.041   5.824   1.927  1.5024 -1.8953 -0.4594
 8843TIP3   OH247943   1.114   4.956   4.777 -0.4303 -0.2429  0.4772
 8843TIP3    H147944   1.102   5.047   4.804 -0.8180 -0.3320  0.6071
 8843TIP3    H247945   1.193   4.928   4.823 -0.6850 -0.1773  0.9532
 8844TIP3   OH247946   2.911   1.696  16.651  0.1877 -0.5450  0.2858
 8844TIP3    H147947   2.821   1.682  16.622 -0.1266 -1.2881  1.5391
 8844TIP3    H247948   2.949   1.755  16.586 -1.0917 -0.5162 -0.4571
 8845TIP3   OH247949   4.051   6.151   0.851 -0.3502  0.2143  0.3853
 8845TIP3    H147950   3.965   6.111   0.861 -0.7214  0.9165  0.0696
 8845TIP3    H247951   4.106   6.107   0.916  0.0167 -2.8041 -1.7638
 8846TIP3   OH247952   0.972   0.085   6.470 -0.2295  0.0919 -0.5785
 8846TIP3    H147953   0.905   0.026   6.505  0.6773 -1.3777 -1.2016
 8846TIP3    H247954   1.052   0.059   6.515  0.3754  0.2038 -1.5601
 8847TIP3   OH247955   0.027   6.702   5.979 -0.0605  0.4611  0.2613
 8847TIP3    H147956   0.057   6.625   6.028 -0.6572  0.5430  0.7640
 8847TIP3    H247957   0.103   6.729   5.928  0.4307  0.0869  0.7837
 8848TIP3   OH247958   4.307   6.123   5.507  0.0756  0.5689 -0.1115
 8848TIP3    H147959   4.375   6.100   5.443 -0.1187 -0.7055  0.1043
 8848TIP3    H247960   4.336   6.080   5.588 -1.2306 -0.4442 -0.1546
 8849TIP3   OH247961   2.662   0.741   1.089 -0.1627  0.0665 -0.4300
 8849TIP3    H147962   2.693   0.832   1.089  1.6317 -0.4930  0.5133
 8849TIP3    H247963   2.742   0.689   1.078 -1.0007 -1.4290  0.2810
 8850TIP3   OH247964   4.715   1.315  12.065  0.6058  0.6502 -0.0047
 8850TIP3    H147965   4.763   1.263  12.129 -1.2298 -0.1846  0.7502
 8850TIP3    H247966   4.664   1.251  12.015  1.7279  1.3051 -2.1390
 8851TIP3   OH247967   6.399   0.150  11.534  0.0701 -0.0570  0.5288
 8851TIP3    H147968   6.399   0.238  11.572 -0.3925 -0.1063  0.6462
 8851TIP3    H247969   6.364   0.094  11.603 -0.5005 -0.1943  0.1373
 8852TIP3   OH247970   3.559   2.124  14.570  0.4779 -0.2184  0.1472
 8852TIP3    H147971   3.526   2.085  14.489  0.8768  0.7866 -0.5228
 8852TIP3    H247972   3.650   2.144  14.551  0.2890  1.0086  0.4624
 8853TIP3   OH247973   6.661   4.725   0.403  0.0673 -0.0205  0.2402
 8853TIP3    H147974   6.589   4.662   0.406 -0.2345  0.3584  1.8238
 8853TIP3    H247975   6.622   4.807   0.433  0.7154  0.6815 -0.7699
 8854TIP3   OH247976   6.395   4.055   5.724 -0.1422 -0.1831 -0.2631
 8854TIP3    H147977   6.444   3.973   5.729 -1.4505 -1.0899 -1.4168
 8854TIP3    H247978   6.416   4.101   5.805  1.8672 -0.9198 -0.3073
 8855TIP3   OH247979   2.985   1.616  10.729  0.0593 -0.3432  0.5342
 8855TIP3    H147980   2.925   1.611  10.653  0.9058  1.7483 -0.3305
 8855TIP3    H247981   3.060   1.562  10.703  0.2641  0.2142 -0.0416
 8856TIP3   OH247982   5.634   6.576   1.677  0.1161  0.2110  0.1672
 8856TIP3    H147983   5.585   6.619   1.748 -1.3278  0.1171 -0.7310
 8856TIP3    H247984   5.568   6.526   1.630  0.9856  0.5301 -1.4454
 8857TIP3   OH247985   4.808   5.172  13.714  0.7289  0.1074 -0.3085
 8857TIP3    H147986   4.822   5.217  13.630  1.3125  0.0359 -0.2575
 8857TIP3    H247987   4.815   5.242  13.779  1.1172  0.0287 -0.2648
 8858TIP3   OH247988   0.985   0.946  15.910  0.1338 -0.4101  0.6868
 8858TIP3    H147989   0.998   0.972  16.002  1.5925 -0.8850  0.6246
 8858TIP3    H247990   1.060   0.891  15.889 -1.1600 -1.9403 -0.2209
 8859TIP3   OH247991   4.515   5.013  11.156  0.0245 -0.1394  0.2908
 8859TIP3    H147992   4.519   4.918  11.148  0.2175 -0.1793  0.7863
 8859TIP3    H247993   4.470   5.043  11.077  0.6362 -0.5837 -0.2334
 8860TIP3   OH247994   0.381   0.870   5.920 -0.7415 -0.3351  0.1322
 8860TIP3    H147995   0.288   0.880   5.938 -0.2837  1.6895  1.7899
 8860TIP3    H247996   0.402   0.781   5.948 -1.7445 -0.0069  2.1312
 8861TIP3   OH247997   4.738   4.333   3.348 -0.3133  0.3032 -0.2333
 8861TIP3    H147998   4.774   4.262   3.402  0.5610 -0.2813 -1.5321
 8861TIP3    H247999   4.653   4.300   3.320  0.7499 -1.0012 -2.1551
 8862TIP3   OH248000   1.810   3.772  14.265 -0.1209 -0.1595  0.0236
 8862TIP3    H148001   1.849   3.761  14.352 -2.6229  0.0977  1.2708
 8862TIP3    H248002   1.771   3.687  14.245  0.7067 -0.3093 -1.0206
 8863TIP3   OH248003   2.980   1.430  17.064  0.3134 -0.7395 -0.7380
 8863TIP3    H148004   3.032   1.399  17.138 -2.7527 -2.7664  0.7817
 8863TIP3    H248005   2.939   1.510  17.097  1.5106  0.2501 -1.5482
 8864TIP3   OH248006   5.892   0.284   3.009 -0.2287  0.1706  0.0127
 8864TIP3    H148007   5.819   0.269   2.949 -1.0665  0.7312  0.8585
 8864TIP3    H248008   5.967   0.301   2.952 -0.8770  0.1407 -0.8677
 8865TIP3   OH248009   4.769   1.565   0.650 -0.0414 -0.2395  0.4308
 8865TIP3    H148010   4.768   1.491   0.712  0.9941 -1.6818 -1.1896
 8865TIP3    H248011   4.677   1.585   0.636 -0.3279 -0.8553  1.3202
 8866TIP3   OH248012   6.684   0.144  16.005  0.3313  0.3849  0.4584
 8866TIP3    H148013   6.768   0.158  15.961  0.5140  0.9796  0.9840
 8866TIP3    H248014   6.652   0.060  15.971  0.3398  0.9488 -1.0175
 8867TIP3   OH248015   0.635   3.106   5.174 -0.8838  0.1545 -0.4663
 8867TIP3    H148016   0.578   3.066   5.108  0.0438  0.0974 -1.2651
 8867TIP3    H248017   0.588   3.096   5.256 -2.6050  1.2232 -1.2634
 8868TIP3   OH248018   5.863   0.347   5.176  0.7286  0.3369 -0.6122
 8868TIP3    H148019   5.823   0.411   5.116 -0.9309  0.7349  0.8363
 8868TIP3    H248020   5.936   0.395   5.216  1.7906  0.1025 -2.1599
 8869TIP3   OH248021   0.224   5.732  12.462  0.2649 -0.2801  0.1600
 8869TIP3    H148022   0.166   5.714  12.389  0.1614  1.0759 -0.1146
 8869TIP3    H248023   0.168   5.727  12.539  0.2000 -0.8787  0.0812
 8870TIP3   OH248024   4.716   5.614   5.088 -0.1579  0.1401 -0.1734
 8870TIP3    H148025   4.788   5.676   5.079 -0.6103  0.4273 -2.1163
 8870TIP3    H248026   4.643   5.666   5.122  0.3481 -0.0406  1.2721
 8871TIP3   OH248027   6.289   4.354  15.746 -0.0752  0.1695 -0.1255
 8871TIP3    H148028   6.280   4.269  15.703  0.9088 -0.1364  0.2508
 8871TIP3    H248029   6.199   4.386  15.752 -0.5896 -1.2847  0.6054
 8872TIP3   OH248030   1.795   2.802   0.836  0.1163 -0.5574 -0.2081
 8872TIP3    H148031   1.880   2.818   0.877  0.1879  1.7206 -1.1097
 8872TIP3    H248032   1.778   2.880   0.784 -1.8241 -1.6315 -1.3199
 8873TIP3   OH248033   5.510   4.676  15.066  0.3417  0.3736  0.2084
 8873TIP3    H148034   5.434   4.734  15.072 -0.2213 -0.2197 -1.0100
 8873TIP3    H248035   5.475   4.589  15.085  0.3625 -0.1527 -2.0102
 8874TIP3   OH248036   3.977   4.102  11.942  0.0940 -0.0491 -0.0236
 8874TIP3    H148037   4.062   4.135  11.971  0.0388 -0.2767  0.4118
 8874TIP3    H248038   3.974   4.012  11.974  0.1094 -0.3787 -0.9244
 8875TIP3   OH248039   5.809   1.467   0.750  0.2767 -0.0334 -0.1494
 8875TIP3    H148040   5.843   1.466   0.661 -1.8181 -0.8675 -1.0005
 8875TIP3    H248041   5.885   1.446   0.805  1.2423 -1.3588 -1.8842
 8876TIP3   OH248042   1.187   4.203   5.296 -0.0152 -0.1933  0.0889
 8876TIP3    H148043   1.235   4.221   5.378 -0.5510 -1.7258  0.7686
 8876TIP3    H248044   1.250   4.157   5.241  0.4188  1.0372 -0.4933
 8877TIP3   OH248045   5.172   0.792  15.146 -0.7208  0.9538 -0.0967
 8877TIP3    H148046   5.090   0.837  15.124 -0.5885  2.3817  2.0573
 8877TIP3    H248047   5.145   0.713  15.192 -0.8968  0.5259 -0.9188
 8878TIP3   OH248048   4.726   4.415  12.927 -0.1196  0.3807  0.0657
 8878TIP3    H148049   4.709   4.321  12.934  0.9255  0.3047  2.5584
 8878TIP3    H248050   4.640   4.454  12.912 -0.7948 -0.8673  0.5666
 8879TIP3   OH248051   2.461   5.139  16.565 -0.4023  0.2650  0.0756
 8879TIP3    H148052   2.484   5.200  16.636  1.7988  0.9228 -1.0898
 8879TIP3    H248053   2.537   5.081  16.558 -1.4297 -1.0852 -0.4666
 8880TIP3   OH248054   5.166   2.261  15.591  0.2342 -0.1887 -0.0987
 8880TIP3    H148055   5.107   2.336  15.587  1.0642  0.4249 -1.8027
 8880TIP3    H248056   5.171   2.229  15.500  0.0098 -2.2343  0.5576
 8881TIP3   OH248057   0.615   0.606  12.329 -0.2602 -0.4128  1.1852
 8881TIP3    H148058   0.581   0.694  12.344  0.1662  0.2384 -1.2249
 8881TIP3    H248059   0.709   0.614  12.346 -0.0785 -0.1515  0.1113
 8882TIP3   OH248060   6.495   4.598   4.152 -0.2057 -0.7853 -0.3991
 8882TIP3    H148061   6.405   4.601   4.119  0.4356 -0.0207 -2.1859
 8882TIP3    H248062   6.486   4.575   4.245 -2.2493 -0.4093 -0.4668
 8883TIP3   OH248063   4.476   2.721   6.699 -0.0101  1.1025  0.4292
 8883TIP3    H148064   4.407   2.774   6.737 -0.5207  0.5962  0.2261
 8883TIP3    H248065   4.515   2.777   6.631 -0.6524  1.1564  0.0998
 8884TIP3   OH248066   5.076   5.285   3.634 -0.1440  0.1074  0.9440
 8884TIP3    H148067   5.085   5.190   3.635  0.1940  0.1177 -0.0035
 8884TIP3    H248068   4.989   5.301   3.597  0.5413  0.1813 -0.7008
 8885TIP3   OH248069   2.975   1.201   1.026 -0.4355  0.0492  0.0929
 8885TIP3    H148070   2.984   1.109   1.004  1.2529  0.0847  0.5327
 8885TIP3    H248071   3.027   1.247   0.960 -1.8194  0.7633 -0.5386
 8886TIP3   OH248072   1.652   4.678   2.626 -0.3132  0.5627  0.2345
 8886TIP3    H148073   1.663   4.648   2.536 -0.8231 -0.5956  0.5349
 8886TIP3    H248074   1.629   4.599   2.675  0.6983  1.0286  1.5240
 8887TIP3   OH248075   6.627   1.885   1.959  0.2912  0.6586 -0.0785
 8887TIP3    H148076   6.673   1.817   2.010 -0.3431 -0.3958 -0.8603
 8887TIP3    H248077   6.536   1.856   1.959 -0.0587  1.7450 -0.0970
 8888TIP3   OH248078   1.282   3.304  13.250  0.1842  0.2947 -0.5256
 8888TIP3    H148079   1.196   3.264  13.257 -0.1633  1.1915  0.8003
 8888TIP3    H248080   1.342   3.231  13.232 -0.7294 -0.4502 -0.5917
 8889TIP3   OH248081   4.006   4.583   1.789 -0.7117 -0.3537  0.3018
 8889TIP3    H148082   3.987   4.615   1.877 -2.0729 -2.1292  0.7065
 8889TIP3    H248083   3.954   4.638   1.731  1.1724  1.6894  0.3963
 8890TIP3   OH248084   2.606   6.613  14.130 -0.1517  0.0192  0.6740
 8890TIP3    H148085   2.610   6.704  14.098  0.6460 -0.4818 -0.7384
 8890TIP3    H248086   2.513   6.598  14.146 -0.7596  0.0553 -2.3279
 8891TIP3   OH248087   5.266   0.647  15.983 -0.1284  0.0248  0.1288
 8891TIP3    H148088   5.325   0.574  16.002 -3.4434 -3.0287 -0.2573
 8891TIP3    H248089   5.210   0.653  16.061 -1.8717  0.0026 -1.0588
 8892TIP3   OH248090   1.394   1.350  14.450 -0.1168 -0.0392 -0.5637
 8892TIP3    H148091   1.472   1.298  14.469  0.2601 -0.0878 -2.0989
 8892TIP3    H248092   1.320   1.291  14.468  0.3108 -1.5151 -3.0968
 8893TIP3   OH248093   5.894   6.716  12.776  0.2691 -0.1908 -0.1377
 8893TIP3    H148094   5.866   6.807  12.773  0.6956 -0.0740 -2.4293
 8893TIP3    H248095   5.984   6.717  12.745  0.9914 -1.1932  1.8112
 8894TIP3   OH248096   1.685   2.920  12.648  0.2383 -0.0212  0.2107
 8894TIP3    H148097   1.739   2.998  12.648  0.2678 -0.0416  0.1302
 8894TIP3    H248098   1.679   2.894  12.741  0.7438 -0.2777  0.1751
 8895TIP3   OH248099   3.608   5.730   0.476  0.2633  0.4130  0.1977
 8895TIP3    H148100   3.580   5.694   0.561  0.6217  1.3911  0.7462
 8895TIP3    H248101   3.558   5.811   0.467  1.5368  1.2289  0.3198
 8896TIP3   OH248102   4.389   1.517   5.976  0.2540 -0.1774  0.3760
 8896TIP3    H148103   4.398   1.580   5.905  2.3437  0.5841  1.2124
 8896TIP3    H248104   4.310   1.544   6.023 -0.9273 -0.4578 -1.3775
 8897TIP3   OH248105   5.488   4.230   0.977 -0.3685  0.2595  0.6345
 8897TIP3    H148106   5.511   4.139   0.992  2.4124  1.0812  1.9965
 8897TIP3    H248107   5.424   4.251   1.046  0.9152 -0.0241  1.9514
 8898TIP3   OH248108   0.121   0.457  16.430  0.2987  0.1450  0.6153
 8898TIP3    H148109   0.136   0.377  16.381 -0.7498  0.4701 -0.2826
 8898TIP3    H248110   0.099   0.428  16.518 -1.9441 -0.6976 -0.1409
 8899TIP3   OH248111   4.325   1.888  13.361  0.1480  0.4938 -0.1641
 8899TIP3    H148112   4.413   1.893  13.324  0.9166 -2.5999  0.9279
 8899TIP3    H248113   4.277   1.832  13.301 -1.0607  1.9195 -0.5901
 8900TIP3   OH248114   6.216   1.766   0.740 -0.3296  0.1041  0.1140
 8900TIP3    H148115   6.224   1.856   0.772  0.8940  0.0178  0.1104
 8900TIP3    H248116   6.292   1.721   0.777  0.0602 -0.4781 -1.3177
 8901TIP3   OH248117   2.607   0.412  16.875 -0.0074 -0.5827 -0.1481
 8901TIP3    H148118   2.674   0.347  16.853  0.1871 -0.2341 -0.6110
 8901TIP3    H248119   2.553   0.418  16.796 -0.2510 -0.4649  0.0295
 8902TIP3   OH248120   5.088   4.274   5.737 -0.5746  0.3739 -0.3007
 8902TIP3    H148121   5.067   4.248   5.827  0.1417 -0.9693 -0.4970
 8902TIP3    H248122   5.184   4.279   5.736 -0.5650  0.1174 -1.0573
 8903TIP3   OH248123   4.869   2.947   3.517  0.0879 -0.2368  0.4016
 8903TIP3    H148124   4.899   2.867   3.475  0.1794 -0.0172  0.0433
 8903TIP3    H248125   4.947   2.982   3.561  0.0667 -0.3055  0.4925
 8904TIP3   OH248126   2.221   3.997   2.851 -0.1575  0.1131  0.5194
 8904TIP3    H148127   2.155   3.929   2.835  0.7092 -0.6593  0.1066
 8904TIP3    H248128   2.274   3.961   2.922  0.3024  0.3726  0.3063
 8905TIP3   OH248129   1.179   5.105  17.268  0.0510  0.5213  0.1061
 8905TIP3    H148130   1.204   5.172  17.205  1.7460  1.9627  2.1740
 8905TIP3    H248131   1.179   5.024  17.217  1.5707  1.5667 -1.7198
 8906TIP3   OH248132   5.393   6.402  15.188 -0.1754 -0.1331  0.0512
 8906TIP3    H148133   5.314   6.438  15.147  0.9983  1.6202 -0.7781
 8906TIP3    H248134   5.465   6.433  15.133  1.1359 -1.4750  0.9308
 8907TIP3   OH248135   4.536   3.342   5.488 -0.3521  0.4370  0.0314
 8907TIP3    H148136   4.600   3.384   5.430 -0.6688  1.3841  0.3479
 8907TIP3    H248137   4.566   3.252   5.494  0.3722  0.6128 -0.6467
 8908TIP3   OH248138   4.340   5.977  16.842  0.2120  0.6021 -0.3196
 8908TIP3    H148139   4.292   6.040  16.896  1.5498  0.5490  0.9994
 8908TIP3    H248140   4.395   5.929  16.904  1.9266  0.6366 -1.7320
 8909TIP3   OH248141   1.456   2.571  16.680 -0.2310  0.5213  0.1535
 8909TIP3    H148142   1.461   2.536  16.591  0.0230 -0.9013  0.7142
 8909TIP3    H248143   1.362   2.587  16.694 -0.3657 -0.0741 -0.0502
 8910TIP3   OH248144   1.407   3.070   5.222 -0.2566 -0.3420  0.3566
 8910TIP3    H148145   1.411   3.073   5.127 -0.4873 -0.6197  0.3343
 8910TIP3    H248146   1.491   3.105   5.252 -0.8498  1.3755  0.0902
 8911TIP3   OH248147   4.753   4.411  12.531  0.0278 -0.0089  0.2769
 8911TIP3    H148148   4.659   4.391  12.523 -0.3069  1.5586 -0.1275
 8911TIP3    H248149   4.791   4.333  12.571 -1.2272 -1.2137 -0.7679
 8912TIP3   OH248150   6.161   5.343  13.163  0.5967  0.2495  0.1644
 8912TIP3    H148151   6.091   5.291  13.123  0.9490  1.4200 -2.1864
 8912TIP3    H248152   6.216   5.279  13.208  0.0730 -1.2084 -1.1623
 8913TIP3   OH248153   1.921   4.194  15.133  0.3169 -0.0698 -0.0038
 8913TIP3    H148154   1.991   4.137  15.164  1.2810 -0.2932 -2.3482
 8913TIP3    H248155   1.845   4.136  15.125  0.6740 -0.5198 -0.2097
 8914TIP3   OH248156   0.216   5.861   1.507 -0.6630  0.5849  0.3109
 8914TIP3    H148157   0.162   5.935   1.478 -0.7729  0.4405  0.1383
 8914TIP3    H248158   0.280   5.849   1.437 -0.3998  0.7649  0.5236
 8915TIP3   OH248159   0.988   4.697   3.374  0.5809  0.1937  0.2248
 8915TIP3    H148160   0.998   4.792   3.380  2.0137  0.0663  0.0808
 8915TIP3    H248161   0.955   4.672   3.461 -1.9772  1.0250 -0.4158
 8916TIP3   OH248162   4.616   1.712   4.185  0.0422  0.2403  0.3698
 8916TIP3    H148163   4.641   1.733   4.275  0.6663 -0.0016  0.2627
 8916TIP3    H248164   4.608   1.797   4.142 -1.9148  0.4490  1.0508
 8917TIP3   OH248165   2.661   4.930  12.109 -0.2080 -0.8373 -0.5586
 8917TIP3    H148166   2.692   4.972  12.190 -1.3473 -2.6321  0.8975
 8917TIP3    H248167   2.627   5.001  12.056  0.6662  0.4127  0.5011
 8918TIP3   OH248168   4.681   2.736   4.292  0.1427 -0.1732  0.0373
 8918TIP3    H148169   4.646   2.816   4.253 -1.1870 -0.4917  0.5252
 8918TIP3    H248170   4.776   2.749   4.294 -0.1643  2.7955  3.0105
 8919TIP3   OH248171   1.119   0.653  14.965 -0.0667  0.2791 -0.7278
 8919TIP3    H148172   1.147   0.579  15.020 -1.6315  0.0552 -0.2028
 8919TIP3    H248173   1.201   0.685  14.926  0.7065 -1.4342 -0.6189
 8920TIP3   OH248174   3.262   0.146  13.004  0.3470 -0.0677 -0.4667
 8920TIP3    H148175   3.191   0.130  12.942  1.3563  0.7829 -1.9113
 8920TIP3    H248176   3.263   0.241  13.014 -0.2883 -0.2325  1.5061
 8921TIP3   OH248177   2.012   1.466  11.582 -0.5492 -0.3216 -0.2549
 8921TIP3    H148178   2.047   1.436  11.666 -1.1864 -0.7639 -0.1434
 8921TIP3    H248179   2.056   1.550  11.567  1.5335 -1.4145 -0.7452
 8922TIP3   OH248180   2.394   3.179   0.913 -0.3745  0.0629 -0.3723
 8922TIP3    H148181   2.406   3.127   0.993 -0.8305  0.5862  0.0424
 8922TIP3    H248182   2.300   3.193   0.908 -0.5493 -1.3294 -1.8868
 8923TIP3   OH248183   1.030   0.152   3.777 -0.2382 -0.3821 -0.4626
 8923TIP3    H148184   1.057   0.064   3.751  0.5473  0.0073 -1.0065
 8923TIP3    H248185   0.955   0.138   3.834 -1.0998 -1.3247 -1.7791
 8924TIP3   OH248186   4.042   2.998   5.467 -0.3735  0.4395  0.1373
 8924TIP3    H148187   4.064   3.031   5.380  0.1428  0.3498  0.2272
 8924TIP3    H248188   4.110   3.035   5.524 -0.2872 -0.0836  0.3784
 8925TIP3   OH248189   0.663   3.865  13.142  0.1715 -0.2732 -0.1060
 8925TIP3    H148190   0.716   3.815  13.081  1.7108 -1.1933  1.8661
 8925TIP3    H248191   0.725   3.925  13.184 -0.7100 -0.0667  0.9405
 8926TIP3   OH248192   3.261   2.512   2.400  0.2871  0.9492  0.4071
 8926TIP3    H148193   3.186   2.571   2.404 -0.5302  0.0207 -0.6933
 8926TIP3    H248194   3.327   2.560   2.350 -0.6604  0.6794 -1.1799
 8927TIP3   OH248195   4.918   1.722   5.032  0.2541 -0.1648  0.1176
 8927TIP3    H148196   4.860   1.798   5.039  0.4794 -0.0615  0.9160
 8927TIP3    H248197   4.917   1.701   4.938 -1.5100 -0.5232  0.1799
 8928TIP3   OH248198   4.841   0.331  13.189 -0.0350 -0.8347  0.3979
 8928TIP3    H148199   4.920   0.293  13.228  1.3798  0.7564 -0.7688
 8928TIP3    H248200   4.795   0.257  13.151  1.1519 -1.7539  0.6976
 8929TIP3   OH248201   1.825   2.658   0.084  0.1743 -0.3009 -0.3148
 8929TIP3    H148202   1.907   2.667   0.036  0.1161  0.3510 -0.3003
 8929TIP3    H248203   1.804   2.747   0.113  0.0149 -0.6231  0.5964
 8930TIP3   OH248204   0.474   5.145   2.234  0.2518 -0.1087 -0.1338
 8930TIP3    H148205   0.420   5.069   2.255  0.4511  0.0062  0.8552
 8930TIP3    H248206   0.442   5.175   2.149  1.5776 -2.5724 -1.6068
 8931TIP3   OH248207   1.405   2.922   5.583  0.5381 -0.3108 -0.2717
 8931TIP3    H148208   1.465   2.980   5.536 -0.6156  2.1751  1.1390
 8931TIP3    H248209   1.376   2.974   5.658  0.4966 -3.2616  1.9188
 8932TIP3   OH248210   1.013   3.849   0.576  0.1573 -0.0124  0.1878
 8932TIP3    H148211   0.989   3.826   0.666 -0.5740 -0.3946 -0.0908
 8932TIP3    H248212   1.003   3.767   0.527  1.3831 -0.0071 -0.0866
 8933TIP3   OH248213   2.828   4.183  13.513 -0.8883 -0.7744  0.7156
 8933TIP3    H148214   2.881   4.197  13.592  1.0162  0.5482 -0.6959
 8933TIP3    H248215   2.886   4.137  13.453 -1.7955 -0.4478 -0.4456
 8934TIP3   OH248216   4.261   2.010   1.249  0.9471 -0.2568 -0.5194
 8934TIP3    H148217   4.227   2.060   1.324  1.7932 -0.7573  0.2190
 8934TIP3    H248218   4.284   2.076   1.184  0.0197  0.1757 -0.4277
 8935TIP3   OH248219   0.210   1.109  12.993 -0.1289 -0.1811 -0.6379
 8935TIP3    H148220   0.154   1.098  12.916  0.0295 -1.1800 -0.6227
 8935TIP3    H248221   0.164   1.173  13.047 -0.9556 -0.5263 -0.9061
 8936TIP3   OH248222   6.517   0.689   2.368  0.4246  0.4720  0.2442
 8936TIP3    H148223   6.581   0.753   2.398 -0.2001  1.2132  0.0145
 8936TIP3    H248224   6.470   0.733   2.297  0.1040 -0.3002 -0.0334
 8937TIP3   OH248225   3.869   3.616  16.562 -0.1293  0.0157 -0.3889
 8937TIP3    H148226   3.872   3.529  16.602  1.5689 -0.2198 -0.9380
 8937TIP3    H248227   3.884   3.601  16.469 -2.2493  0.7215 -0.8956
 8938TIP3   OH248228   0.782   1.165  14.201  0.8519  0.3354  0.3271
 8938TIP3    H148229   0.809   1.168  14.109  1.6466  4.1469  0.5033
 8938TIP3    H248230   0.694   1.204  14.201  0.2480 -0.9902  1.0484
 8939TIP3   OH248231   3.410   5.028   1.257  0.0156  0.0239  0.1125
 8939TIP3    H148232   3.366   5.030   1.172  2.9744  0.0662 -1.5536
 8939TIP3    H248233   3.438   4.937   1.267 -2.2265 -0.5400  2.2389
 8940TIP3   OH248234   3.309   2.999  12.473 -0.1147 -0.5382  0.5521
 8940TIP3    H148235   3.259   2.941  12.416  0.6536 -0.6900  0.0100
 8940TIP3    H248236   3.353   2.940  12.534 -0.5281 -0.4113  0.9792
 8941TIP3   OH248237   1.918   5.055  16.872 -0.5144  0.0406  0.3464
 8941TIP3    H148238   1.944   5.083  16.785  1.5962  1.4910  1.3415
 8941TIP3    H248239   1.850   5.117  16.898 -1.7428 -0.9012 -0.5384
 8942TIP3   OH248240   1.246   2.189   3.856  0.0985  0.4984 -0.5485
 8942TIP3    H148241   1.327   2.239   3.867  0.5419 -0.6452  2.2363
 8942TIP3    H248242   1.244   2.129   3.931 -2.2664 -1.0350 -1.7050
 8943TIP3   OH248243   1.605   0.412  13.356  0.1550 -0.4883  0.0914
 8943TIP3    H148244   1.544   0.394  13.428 -0.4553 -1.7328 -0.7000
 8943TIP3    H248245   1.549   0.419  13.278  0.9731 -1.3637 -0.5999
 8944TIP3   OH248246   5.666   1.089  12.937 -0.0908  0.0888  0.1054
 8944TIP3    H148247   5.591   1.091  12.877 -1.1142 -1.0865  1.2704
 8944TIP3    H248248   5.742   1.102  12.880 -0.7836 -3.2277 -1.8879
 8945TIP3   OH248249   3.236   4.419  15.844 -0.0604 -0.3267  0.2706
 8945TIP3    H148250   3.183   4.458  15.913 -0.0337 -0.2830  0.2658
 8945TIP3    H248251   3.309   4.479  15.832 -0.8981  0.4965 -0.8987
 8946TIP3   OH248252   0.527   2.412  11.962 -0.4478 -0.1631 -0.1236
 8946TIP3    H148253   0.486   2.499  11.964 -0.5296 -0.1084 -2.1812
 8946TIP3    H248254   0.463   2.356  11.919  0.3618 -0.7940 -0.5454
 8947TIP3   OH248255   3.079   4.163  14.965  0.1584 -0.3978 -0.1817
 8947TIP3    H148256   3.139   4.088  14.965  1.4998  0.5556 -2.6250
 8947TIP3    H248257   3.034   4.157  14.881  0.2811  1.4965 -0.4234
 8948TIP3   OH248258   5.130   6.170   1.842 -0.1421  0.4464  0.4301
 8948TIP3    H148259   5.140   6.113   1.918  1.1345  0.0436 -0.0161
 8948TIP3    H248260   5.174   6.124   1.771  1.0816  2.0279  0.0953
 8949TIP3   OH248261   1.472   3.820   2.621  0.1876 -0.5754  0.8457
 8949TIP3    H148262   1.506   3.762   2.689  1.0867 -1.9313 -0.7043
 8949TIP3    H248263   1.510   3.787   2.539 -0.6775  1.1349 -0.3078
 8950TIP3   OH248264   3.220   0.250   5.432 -0.4661  0.5004  0.0115
 8950TIP3    H148265   3.191   0.339   5.413  0.2327  0.2826 -2.3221
 8950TIP3    H248266   3.314   0.250   5.414 -0.4753 -0.7204 -0.1638
 8951TIP3   OH248267   1.359   3.931   0.267  0.4499  0.2209 -0.3093
 8951TIP3    H148268   1.403   3.960   0.187  1.6747  0.5556  0.4513
 8951TIP3    H248269   1.389   3.992   0.334  0.2740 -0.6782  0.6154
 8952TIP3   OH248270   4.092   4.164  17.021 -0.0582 -0.5376  0.1383
 8952TIP3    H148271   4.115   4.071  17.018  1.1100 -0.2345 -1.3176
 8952TIP3    H248272   4.014   4.171  16.965  0.6850 -0.4494 -0.9174
 8953TIP3   OH248273   0.718   3.628  16.488 -0.2133  0.0652 -0.4750
 8953TIP3    H148274   0.654   3.606  16.555 -0.0654  0.6269 -0.1360
 8953TIP3    H248275   0.801   3.634  16.535  0.9529 -4.5935 -1.4751
 8954TIP3   OH248276   1.176   4.515   4.294 -0.2614 -0.8285 -0.5355
 8954TIP3    H148277   1.207   4.451   4.358  0.1308  0.1351  0.2759
 8954TIP3    H248278   1.093   4.480   4.263  0.0372 -1.8125 -0.2540
 8955TIP3   OH248279   2.043   5.254   3.929  0.3775 -0.1939  0.1166
 8955TIP3    H148280   2.127   5.235   3.971  0.5916 -0.0251 -0.2306
 8955TIP3    H248281   2.013   5.169   3.895 -0.8852 -0.8026  2.5154
 8956TIP3   OH248282   2.805   2.218   5.268 -0.1945 -0.2870 -0.0252
 8956TIP3    H148283   2.860   2.290   5.300  1.9035 -1.5174 -0.7133
 8956TIP3    H248284   2.826   2.210   5.176 -2.5506  0.0095 -0.6695
 8957TIP3   OH248285   1.504   4.810   3.411  0.3415  0.1850 -0.3719
 8957TIP3    H148286   1.566   4.738   3.401 -0.5614 -0.7229  0.2310
 8957TIP3    H248287   1.480   4.834   3.322 -0.9099 -1.7125 -0.6209
 8958TIP3   OH248288   0.549   4.765  13.823  0.1771 -0.0247  0.5121
 8958TIP3    H148289   0.641   4.777  13.800 -0.1036 -0.3048 -0.8678
 8958TIP3    H248290   0.518   4.698  13.761 -0.6049 -0.9857  1.8885
 8959TIP3   OH248291   5.343   3.725   5.267 -0.3485 -0.0803  0.6840
 8959TIP3    H148292   5.272   3.784   5.291 -0.0960  0.2680  0.5766
 8959TIP3    H248293   5.305   3.637   5.275 -0.3115  0.0140  2.2505
 8960TIP3   OH248294   2.723   3.662  14.547  0.2141 -0.0888  0.1553
 8960TIP3    H148295   2.790   3.660  14.479  0.9494 -1.3291  0.8741
 8960TIP3    H248296   2.642   3.683  14.501  0.8107 -0.2520 -0.9900
 8961TIP3   OH248297   6.277   5.147  16.203 -0.0139 -0.0881  0.1747
 8961TIP3    H148298   6.192   5.160  16.245  0.6516 -1.8513  2.3292
 8961TIP3    H248299   6.301   5.233  16.169 -1.2156  1.2436  2.4139
 8962TIP3   OH248300   6.146   2.646  15.602  0.5974 -0.5290 -0.1811
 8962TIP3    H148301   6.208   2.665  15.673 -0.4237  1.3912  0.2373
 8962TIP3    H248302   6.193   2.583  15.546  2.2792 -0.3770  0.9911
 8963TIP3   OH248303   2.222   5.822  13.756  0.0297 -0.1162 -0.3641
 8963TIP3    H148304   2.289   5.755  13.763  1.2556  0.8754 -1.9881
 8963TIP3    H248305   2.238   5.880  13.831  0.4073 -0.3978 -0.2260
 8964TIP3   OH248306   0.273   2.398  14.425 -0.7492  0.5201 -0.5847
 8964TIP3    H148307   0.213   2.368  14.494  1.7732 -0.9886  1.0943
 8964TIP3    H248308   0.334   2.456  14.470  2.1438 -1.9950 -0.9600
 8965TIP3   OH248309   6.171   6.757   2.041  0.1962 -0.0936 -0.1369
 8965TIP3    H148310   6.106   6.745   2.111  1.2393 -2.5267  0.5276
 8965TIP3    H248311   6.159   6.681   1.984 -0.6093  1.8171 -2.6908
 8966TIP3   OH248312   2.927   0.867   0.009 -0.7426  0.3105  0.4405
 8966TIP3    H148313   2.902   0.855  -0.083 -0.1232 -1.3942  0.4587
 8966TIP3    H248314   2.962   0.956   0.013  1.0587 -0.2476 -1.4168
 8967TIP3   OH248315   1.086   5.043  12.034 -0.3707 -0.7822  0.0538
 8967TIP3    H148316   1.136   4.968  12.067 -2.1661 -2.4750 -0.8706
 8967TIP3    H248317   1.151   5.097  11.990  1.2108 -1.0599  1.8952
 8968TIP3   OH248318   2.928   1.606   0.425 -0.0803 -0.0347 -0.0759
 8968TIP3    H148319   2.876   1.581   0.501  1.4968  0.6460  1.3149
 8968TIP3    H248320   3.015   1.569   0.442  1.0708  2.4083 -0.1419
 8969TIP3   OH248321   0.525   5.173  14.884  0.0119  0.0246  0.1371
 8969TIP3    H148322   0.590   5.229  14.925 -0.1064  0.9041 -0.8337
 8969TIP3    H248323   0.464   5.150  14.954  1.3906 -0.8929  1.0879
 8970TIP3   OH248324   3.683   1.652   0.623 -0.1166  0.0258 -0.2393
 8970TIP3    H148325   3.677   1.571   0.573  2.9595  0.9519 -2.4786
 8970TIP3    H248326   3.666   1.721   0.559  0.1160  1.2066  0.9223
 8971TIP3   OH248327   6.279   3.003  13.927 -0.2728  0.2141 -0.1320
 8971TIP3    H148328   6.313   3.087  13.896 -2.5454  1.0012 -0.6374
 8971TIP3    H248329   6.357   2.947  13.934  0.9732  1.5426 -2.3554
 8972TIP3   OH248330   6.231   1.932   2.936 -0.0314 -0.0490 -0.0009
 8972TIP3    H148331   6.187   1.848   2.919  0.4697 -0.7464  1.8616
 8972TIP3    H248332   6.313   1.907   2.980  1.4271  1.3165 -1.8023
 8973TIP3   OH248333   5.130   1.883  16.624  0.1090 -0.0382 -0.0251
 8973TIP3    H148334   5.082   1.959  16.657  0.6240  0.5681 -0.6459
 8973TIP3    H248335   5.062   1.825  16.590 -0.2387  0.4865 -0.2354
 8974TIP3   OH248336   1.252   2.314  11.636  0.9979  0.1849 -0.1559
 8974TIP3    H148337   1.313   2.364  11.582  0.2964  1.2555  0.0219
 8974TIP3    H248338   1.265   2.223  11.608  2.4113  0.4289 -0.3608
 8975TIP3   OH248339   1.815   4.701  13.091  0.0288 -0.3070  0.5292
 8975TIP3    H148340   1.780   4.719  13.004 -1.0308  0.2478  1.0616
 8975TIP3    H248341   1.832   4.607  13.090 -2.5073 -0.8286  0.6024
 8976TIP3   OH248342   4.812   5.469  11.495  0.4018  0.1528  0.2085
 8976TIP3    H148343   4.788   5.552  11.454 -1.9678 -0.8508 -0.5957
 8976TIP3    H248344   4.879   5.493  11.559  0.2474  2.5776 -0.4336
 8977TIP3   OH248345   2.114   5.112   0.128 -0.1376  0.1507 -0.1225
 8977TIP3    H148346   2.155   5.192   0.161  2.9733 -1.3730  0.0888
 8977TIP3    H248347   2.034   5.103   0.179 -0.6990  3.1739 -0.2923
 8978TIP3   OH248348   4.214   1.553   1.207 -0.2519 -0.4453 -0.4234
 8978TIP3    H148349   4.222   1.563   1.302 -0.0580 -1.0934 -0.3653
 8978TIP3    H248350   4.136   1.603   1.184  0.7817  1.3709 -0.2097
 8979TIP3   OH248351   0.445   4.293  16.403  0.1110  0.1847 -0.0904
 8979TIP3    H148352   0.498   4.290  16.323 -0.6284  0.4398 -0.6038
 8979TIP3    H248353   0.497   4.246  16.468  0.2359 -1.0021 -1.0157
 8980TIP3   OH248354   3.276   1.820   1.380 -0.1118 -0.1431 -0.2522
 8980TIP3    H148355   3.192   1.786   1.409 -0.0837  1.2293  1.5859
 8980TIP3    H248356   3.334   1.743   1.377 -1.6115 -1.2896 -2.5587
 8981TIP3   OH248357   2.284   0.550  11.320  0.7026 -0.5894  0.2110
 8981TIP3    H148358   2.277   0.485  11.390  1.6653 -0.6387  0.2747
 8981TIP3    H248359   2.289   0.634  11.367  1.1805 -0.6085  0.1921
 8982TIP3   OH248360   4.916   0.026  13.167  0.0358  0.0602  0.5851
 8982TIP3    H148361   4.911   0.021  13.072  0.5863  2.5983  0.3661
 8982TIP3    H248362   4.979  -0.042  13.191  1.3964  0.6669 -1.0805
 8983TIP3   OH248363   4.314   2.857  11.914 -0.3442 -0.3989 -0.1986
 8983TIP3    H148364   4.240   2.902  11.872 -0.8223 -0.3425  0.6806
 8983TIP3    H248365   4.284   2.838  12.002  0.5302 -0.8071  0.0258
 8984TIP3   OH248366   3.719   4.674  14.497  0.1464  0.4167  0.1487
 8984TIP3    H148367   3.636   4.663  14.545 -0.4467  1.0440 -0.6993
 8984TIP3    H248368   3.708   4.623  14.418 -1.1238  3.6044 -1.9610
 8985TIP3   OH248369   5.270   6.426  14.924 -0.5703  0.5573  0.1362
 8985TIP3    H148370   5.321   6.490  14.875 -0.7653  1.4684  1.0844
 8985TIP3    H248371   5.180   6.439  14.894 -0.3360 -0.7694 -1.2369
 8986TIP3   OH248372   6.526   4.913  12.695  0.3900 -0.5931  0.5391
 8986TIP3    H148373   6.478   4.970  12.634 -0.1857 -1.3590  0.2626
 8986TIP3    H248374   6.618   4.923  12.669  0.2340 -0.2773  0.0796
 8987TIP3   OH248375   6.408   3.971   0.450 -0.4934  0.6940  0.3768
 8987TIP3    H148376   6.492   3.926   0.442 -0.8871  0.1530 -1.0193
 8987TIP3    H248377   6.431   4.060   0.478  0.4419  0.2137  1.1871
 8988TIP3   OH248378   2.266   0.732   5.824 -0.2338 -0.9033  0.5520
 8988TIP3    H148379   2.251   0.818   5.863 -1.1401 -0.1338 -1.3419
 8988TIP3    H248380   2.325   0.749   5.751 -1.5894 -1.6069 -0.7589
 8989TIP3   OH248381   5.920   0.524  14.706 -0.5763 -0.0984  1.2209
 8989TIP3    H148382   5.966   0.608  14.695 -1.0607 -0.0219 -0.5796
 8989TIP3    H248383   5.979   0.472  14.760  1.5490  0.1201 -0.7202
 8990TIP3   OH248384   4.276   5.654  13.228  0.1906  0.5285  0.3019
 8990TIP3    H148385   4.185   5.681  13.240  0.7179  2.7945 -0.3107
 8990TIP3    H248386   4.277   5.614  13.141 -0.3217 -0.0221  0.5426
 8991TIP3   OH248387   4.271   3.583  12.269  0.6358 -0.0071  0.1244
 8991TIP3    H148388   4.364   3.564  12.253  0.3231 -0.8657 -0.7759
 8991TIP3    H248389   4.241   3.625  12.189 -0.1913 -1.4578 -0.3654
 8992TIP3   OH248390   5.516   4.051   3.661  0.0738 -0.3307 -0.3776
 8992TIP3    H148391   5.611   4.068   3.663  0.7228 -3.0198 -2.1057
 8992TIP3    H248392   5.510   3.959   3.634 -3.0633 -0.0633 -0.8779
 8993TIP3   OH248393   5.326   5.726   2.438  0.1453  0.3486 -0.3799
 8993TIP3    H148394   5.264   5.653   2.436  2.3181 -1.5872 -0.9842
 8993TIP3    H248395   5.356   5.734   2.347  1.7516  0.3347  0.1200
 8994TIP3   OH248396   3.288   2.688   4.640  0.2363  0.1244  0.5900
 8994TIP3    H148397   3.225   2.621   4.612  2.0228 -1.6574  0.5962
 8994TIP3    H248398   3.239   2.744   4.699 -1.2256 -1.4821  0.9844
 8995TIP3   OH248399   6.233   3.229   0.980  0.3591  0.7126 -0.1127
 8995TIP3    H148400   6.212   3.212   1.072 -2.4614 -0.3357 -0.8203
 8995TIP3    H248401   6.309   3.175   0.962 -0.2039 -0.5765  1.1643
 8996TIP3   OH248402   0.885   2.839  17.132 -0.1235 -0.3301 -0.5564
 8996TIP3    H148403   0.933   2.877  17.205  0.0517 -1.1753 -0.2169
 8996TIP3    H248404   0.952   2.793  17.081 -0.6755 -2.4748  0.5258
 8997TIP3   OH248405   6.506   2.008   6.202  0.6374 -0.2079 -0.5545
 8997TIP3    H148406   6.440   1.942   6.221  0.9553 -0.6142 -0.8465
 8997TIP3    H248407   6.502   2.068   6.276  0.5866 -0.7497 -0.1157
 8998TIP3   OH248408   0.145   1.582  17.316  0.0089 -0.6990 -0.6827
 8998TIP3    H148409   0.133   1.661  17.264 -2.0944 -0.9797 -0.6927
 8998TIP3    H248410   0.239   1.580  17.334  0.0051  2.3427  0.2296
 8999TIP3   OH248411   5.409   1.586   0.647 -0.0986  0.2361  0.0218
 8999TIP3    H148412   5.500   1.615   0.651  0.3916 -0.9744 -1.3994
 8999TIP3    H248413   5.406   1.525   0.572 -1.6700 -1.1535  1.1319
 9000TIP3   OH248414   5.074   0.812   1.428 -0.2201  0.5172  0.1781
 9000TIP3    H148415   5.051   0.852   1.512  0.8647 -1.2706  1.3846
 9000TIP3    H248416   5.053   0.719   1.439 -1.8868  0.5099 -2.2492
 9001TIP3   OH248417   2.173   1.629   2.457 -0.0147  0.3597  0.0319
 9001TIP3    H148418   2.119   1.672   2.391 -0.5602  0.7055  0.6839
 9001TIP3    H248419   2.140   1.540   2.462  0.9910 -0.1085 -1.1866
 9002TIP3   OH248420   5.254   2.111  16.497  0.3288  0.3030  0.0937
 9002TIP3    H148421   5.264   2.155  16.581 -1.3796  0.6397  0.1573
 9002TIP3    H248422   5.228   2.022  16.519  0.8043  0.1104 -0.0893
 9003TIP3   OH248423   0.935   2.630  15.948 -0.1941 -0.8397  0.0519
 9003TIP3    H148424   0.977   2.556  15.990  2.0718  0.1109 -0.4290
 9003TIP3    H248425   0.955   2.705  16.005  1.3507  0.1348 -1.6615
 9004TIP3   OH248426   0.489   0.512   1.385 -0.0028  0.0546 -0.1280
 9004TIP3    H148427   0.567   0.479   1.341 -0.3045 -1.4516  0.4058
 9004TIP3    H248428   0.456   0.581   1.328  0.3404 -0.9753 -1.6261
 9005TIP3   OH248429   5.825   6.413   1.029 -0.3493 -0.2154 -0.6449
 9005TIP3    H148430   5.805   6.469   0.953 -0.0128  2.0937  0.8651
 9005TIP3    H248431   5.901   6.362   1.001  1.2741  2.2810 -1.1694
 9006TIP3   OH248432   0.587   4.419  13.833 -0.1347  0.0349  0.3045
 9006TIP3    H148433   0.616   4.483  13.898 -0.6153 -0.2867  0.8497
 9006TIP3    H248434   0.544   4.351  13.885 -0.3940 -0.2985 -0.3405
 9007TIP3   OH248435   4.812   6.229  15.188 -0.3571 -0.6202  0.1094
 9007TIP3    H148436   4.907   6.225  15.178 -0.5510 -0.1454 -2.6773
 9007TIP3    H248437   4.781   6.142  15.161 -0.8348  0.1731 -2.1237
 9008TIP3   OH248438   3.998   4.501  16.912 -0.1510  0.4292 -0.0099
 9008TIP3    H148439   3.967   4.418  16.949  0.7669  0.1569  0.1599
 9008TIP3    H248440   3.977   4.566  16.979 -1.4578  0.4531 -0.4101
 9009TIP3   OH248441   5.147   5.453   0.118 -0.3878 -0.0361  0.1706
 9009TIP3    H148442   5.172   5.419   0.032 -0.5038  0.7314 -0.1766
 9009TIP3    H248443   5.146   5.376   0.175 -0.9039 -0.6592 -0.6483
 9010TIP3   OH248444   5.845   4.420   0.651 -0.3146 -0.3010  0.0042
 9010TIP3    H148445   5.801   4.336   0.636 -0.6578  0.1291 -1.5998
 9010TIP3    H248446   5.784   4.470   0.704 -0.6430 -0.6363 -0.0533
 9011TIP3   OH248447   2.960   4.996   2.646 -0.0631  0.1246 -0.3295
 9011TIP3    H148448   2.870   5.029   2.642  0.0059  0.2202 -2.1158
 9011TIP3    H248449   2.954   4.907   2.610  0.5427  0.0889 -0.3498
 9012TIP3   OH248450   1.636   0.436  11.888  0.4552 -0.5055  0.1688
 9012TIP3    H148451   1.589   0.361  11.924 -3.5675  1.0096 -1.4304
 9012TIP3    H248452   1.635   0.501  11.958 -0.2150 -0.3382  0.0068
 9013TIP3   OH248453   6.255   3.395   5.123  0.4782  0.1709 -0.4228
 9013TIP3    H148454   6.165   3.374   5.097 -0.0645  1.4768  0.3137
 9013TIP3    H248455   6.275   3.475   5.075  0.7282  0.6608  0.4891
 9014TIP3   OH248456   3.028   4.076  13.768 -0.0665 -0.2121 -0.2251
 9014TIP3    H148457   3.087   4.001  13.755 -0.3344 -0.4484 -0.0807
 9014TIP3    H248458   2.941   4.037  13.772 -0.0906 -0.0657  1.3920
 9015TIP3   OH248459   5.490   5.852   4.215 -0.4559 -0.1615 -0.6902
 9015TIP3    H148460   5.418   5.885   4.161 -0.2301  0.4532 -0.6205
 9015TIP3    H248461   5.552   5.815   4.152 -0.7968 -0.6278 -0.7559
 9016TIP3   OH248462   5.214   2.679  17.323  0.1829  0.6864 -0.0215
 9016TIP3    H148463   5.222   2.703  17.416  1.2317 -1.1280  0.4064
 9016TIP3    H248464   5.297   2.708  17.284 -0.6330  2.3272 -0.6730
 9017TIP3   OH248465   1.344   0.341  11.087  0.6922 -1.0190  0.0910
 9017TIP3    H148466   1.393   0.330  11.005  0.2769  3.0021 -0.9451
 9017TIP3    H248467   1.407   0.383  11.146  0.1742 -1.2786  0.8320
 9018TIP3   OH248468   0.369   3.563   1.189  0.6586  0.3686  0.1833
 9018TIP3    H148469   0.367   3.478   1.232  1.6179 -1.7037 -3.4410
 9018TIP3    H248470   0.281   3.574   1.152  0.6187  0.8388  0.4029
 9019TIP3   OH248471   1.897   4.442  13.059  0.1585  0.1424 -0.5421
 9019TIP3    H148472   1.945   4.479  12.984 -0.6935  0.2792 -1.0314
 9019TIP3    H248473   1.959   4.381  13.099  1.0026  0.8455 -0.7253
 9020TIP3   OH248474   1.657   1.094  12.591  0.8686 -0.2092  0.4030
 9020TIP3    H148475   1.683   1.051  12.672  0.2675  2.2011  1.9739
 9020TIP3    H248476   1.602   1.168  12.619  1.4632  1.3285 -2.1255
 9021TIP3   OH248477   3.979   6.005  16.434  0.1866  0.0016  0.5449
 9021TIP3    H148478   3.956   5.914  16.419 -0.0388  0.1146  0.1941
 9021TIP3    H248479   3.982   6.014  16.530  1.4943 -0.6885  0.5928
 9022TIP3   OH248480   3.248   0.940  12.536  0.0837  0.2840 -0.0874
 9022TIP3    H148481   3.321   0.943  12.475 -0.3795  1.2296 -0.6225
 9022TIP3    H248482   3.277   0.992  12.612 -0.1395  0.9315 -0.4363
 9023TIP3   OH248483   1.424   4.582  15.119 -0.0498 -0.0303 -0.2210
 9023TIP3    H148484   1.431   4.627  15.203  1.8993  1.6008 -1.1757
 9023TIP3    H248485   1.371   4.640  15.064  0.8188  0.1754 -0.8665
 9024TIP3   OH248486   2.116   0.782  12.979  0.4712 -0.2627  0.3836
 9024TIP3    H148487   2.135   0.863  13.026 -0.9500  1.4441 -1.7632
 9024TIP3    H248488   2.187   0.774  12.915 -0.5244  0.5952 -0.8931
 9025TIP3   OH248489   4.545   5.966   5.351 -0.8010  0.0211  0.2359
 9025TIP3    H148490   4.615   6.031   5.362  1.3677 -2.0833 -0.1998
 9025TIP3    H248491   4.557   5.905   5.424 -1.4318 -1.0002 -0.4832
 9026TIP3   OH248492   2.124   3.441  13.064  0.1660 -0.3555  0.1965
 9026TIP3    H148493   2.108   3.352  13.031  0.1440 -0.2438 -0.0931
 9026TIP3    H248494   2.208   3.466  13.027  0.9245 -0.8449  1.5232
 9027TIP3   OH248495   3.530   3.173   2.920  0.4364 -0.7564  0.1187
 9027TIP3    H148496   3.454   3.142   2.969 -1.0384  0.2186 -1.4544
 9027TIP3    H248497   3.550   3.103   2.858  1.1085 -1.1738  0.7795
 9028TIP3   OH248498   3.931   5.493  15.678  0.3464  0.0359  0.1279
 9028TIP3    H148499   3.906   5.571  15.729  1.7565  0.4412  0.2505
 9028TIP3    H248500   3.879   5.422  15.716 -0.7313  0.8623  0.2275
 9029TIP3   OH248501   3.284   4.978   6.746  0.3383 -0.2672 -0.6159
 9029TIP3    H148502   3.218   4.939   6.688 -0.6490 -2.7553  1.9065
 9029TIP3    H248503   3.367   4.939   6.718  0.2450  0.2812 -1.6998
 9030TIP3   OH248504   2.188   0.144   1.727 -0.6761  0.0802 -0.2141
 9030TIP3    H148505   2.189   0.159   1.632  0.9014 -1.4198 -0.4845
 9030TIP3    H248506   2.269   0.186   1.758  0.3813 -1.9666 -0.0336
 9031TIP3   OH248507   0.571   0.904   2.693 -0.3944  0.4061 -0.2901
 9031TIP3    H148508   0.566   0.882   2.600 -0.5743 -0.8243 -0.0101
 9031TIP3    H248509   0.614   0.989   2.695  0.5719 -0.0298 -1.4420
 9032TIP3   OH248510   2.125   1.915   0.195  0.0904 -0.0542 -0.5639
 9032TIP3    H148511   2.161   1.988   0.143  1.1320 -0.3626 -0.2923
 9032TIP3    H248512   2.045   1.890   0.148  0.0450  0.8634 -1.0009
 9033TIP3   OH248513   4.728   3.042   3.753  0.0746  0.6673  0.3636
 9033TIP3    H148514   4.806   2.988   3.764  0.2026  0.6230 -0.6858
 9033TIP3    H248515   4.702   3.029   3.662 -0.9850  0.9184  0.6142
 9034TIP3   OH248516   0.148   3.194  14.175 -0.2159  0.3094  0.1959
 9034TIP3    H148517   0.225   3.183  14.118 -1.3441 -0.3211 -1.2817
 9034TIP3    H248518   0.150   3.286  14.199  1.4443  0.1332  0.8703
 9035TIP3   OH248519   5.732   2.686   5.162 -0.4589 -0.1988  0.2268
 9035TIP3    H148520   5.823   2.660   5.176 -0.6982 -0.6225  1.0009
 9035TIP3    H248521   5.684   2.650   5.236 -1.1436  0.6520  0.2223
 9036TIP3   OH248522   5.130   4.104  16.960 -0.4208 -0.2987  0.3268
 9036TIP3    H148523   5.069   4.029  16.962  1.2960 -1.7614  0.4385
 9036TIP3    H248524   5.140   4.128  17.052  1.1275 -1.7946  0.6082
 9037TIP3   OH248525   4.870   3.025   1.426 -0.8554  0.0195  0.5128
 9037TIP3    H148526   4.893   2.935   1.406  0.6032  0.5056 -0.0809
 9037TIP3    H248527   4.920   3.047   1.505 -0.1513  0.7178 -0.1119
 9038TIP3   OH248528   3.352   1.018  15.805  0.0965 -0.6689 -0.4737
 9038TIP3    H148529   3.431   0.968  15.782  0.0471 -0.0895 -2.0393
 9038TIP3    H248530   3.298   1.015  15.725 -0.6742  0.4213 -0.0151
 9039TIP3   OH248531   4.241   0.015  15.825  0.2425  0.1328 -0.6339
 9039TIP3    H148532   4.277  -0.026  15.903  0.0023 -0.4114 -0.8058
 9039TIP3    H248533   4.167   0.066  15.857 -0.8653 -1.3796 -0.6950
 9040TIP3   OH248534   1.959   0.051   3.343 -1.0394 -0.0269  0.6886
 9040TIP3    H148535   1.867   0.076   3.350 -1.3223 -0.5062 -0.9133
 9040TIP3    H248536   1.961  -0.016   3.275  0.4784 -0.1191  0.7882
 9041TIP3   OH248537   4.504   5.100  16.219  0.5445  0.5091  0.6540
 9041TIP3    H148538   4.502   5.035  16.148  1.1123  0.9040  0.2638
 9041TIP3    H248539   4.541   5.053  16.293 -0.7079 -0.1090  0.9176
 9042TIP3   OH248540   4.421   3.716   3.228  0.0620 -0.1419  0.1531
 9042TIP3    H148541   4.410   3.721   3.323  2.0979  1.2086  0.3807
 9042TIP3    H248542   4.332   3.723   3.193 -0.6891 -0.2842  1.9349
 9043TIP3   OH248543   4.502   3.293  12.241  0.1081  0.3768 -0.4798
 9043TIP3    H148544   4.518   3.386  12.256 -0.2586  0.3201  0.3149
 9043TIP3    H248545   4.427   3.272  12.298 -0.0461 -0.3173 -0.9232
 9044TIP3   OH248546   6.516   3.122  12.361  0.8173  0.4580 -0.5438
 9044TIP3    H148547   6.483   3.035  12.338 -0.5566  0.8900 -0.3024
 9044TIP3    H248548   6.609   3.119  12.339  0.7811 -1.0459 -0.6035
 9045TIP3   OH248549   3.107   0.391   2.889  0.4002  0.5203  0.2435
 9045TIP3    H148550   3.081   0.439   2.968 -1.1183 -1.2615  0.8849
 9045TIP3    H248551   3.199   0.367   2.906  0.6140  1.5977  0.7034
 9046TIP3   OH248552   5.210   0.452  14.981  0.6221 -0.5904 -0.1551
 9046TIP3    H148553   5.147   0.481  14.915 -0.0064 -1.9025 -0.1827
 9046TIP3    H248554   5.170   0.477  15.065  0.8459  0.0071 -0.2230
 9047TIP3   OH248555   1.839   2.963  15.586  0.0320  0.4824  0.0148
 9047TIP3    H148556   1.772   3.023  15.553 -1.4419 -0.5873  0.9321
 9047TIP3    H248557   1.829   2.967  15.681  0.9835 -0.0383  0.1447
 9048TIP3   OH248558   5.520   5.571   0.422  0.1847  0.6446 -0.2180
 9048TIP3    H148559   5.453   5.523   0.471  1.9100  0.3204  1.9720
 9048TIP3    H248560   5.519   5.532   0.334 -1.3919 -0.4018  0.2354
 9049TIP3   OH248561   1.956   5.520   1.488 -0.3467  0.2362 -0.9570
 9049TIP3    H148562   1.862   5.520   1.473 -0.3924 -2.4191 -1.0393
 9049TIP3    H248563   1.992   5.460   1.422  1.2336  0.1200 -0.0602
 9050TIP3   OH248564   0.836   2.224  14.870 -0.4032  0.2038 -0.9686
 9050TIP3    H148565   0.828   2.319  14.875 -0.6387  0.1227  0.5582
 9050TIP3    H248566   0.913   2.204  14.922 -1.1050 -0.5353 -0.1923
 9051TIP3   OH248567   4.423   1.807  15.661 -0.0478  0.2227 -0.3036
 9051TIP3    H148568   4.389   1.848  15.741 -1.8185 -1.1268 -0.3084
 9051TIP3    H248569   4.460   1.724  15.692  1.4845  0.7812 -0.5852
 9052TIP3   OH248570   1.621   1.109  11.668 -0.0645  0.2667 -0.3532
 9052TIP3    H148571   1.708   1.145  11.648 -0.6580  1.0893 -1.6038
 9052TIP3    H248572   1.576   1.108  11.584 -1.3097 -0.0361  0.2969
 9053TIP3   OH248573   1.884   2.886   0.486 -0.5244  0.4323 -0.4582
 9053TIP3    H148574   1.849   2.972   0.509 -1.4963  0.0667 -0.5066
 9053TIP3    H248575   1.949   2.903   0.419 -0.6536  1.1387 -0.4101
 9054TIP3   OH248576   6.667   6.083  12.260  0.0630  0.0629  0.1776
 9054TIP3    H148577   6.661   6.177  12.238 -4.3170 -0.1271 -0.3784
 9054TIP3    H248578   6.717   6.045  12.188  0.9414  1.7840 -0.1858
 9055TIP3   OH248579   1.596   3.691  16.554  0.1295  0.3085  0.2017
 9055TIP3    H148580   1.680   3.651  16.529 -0.0228  0.7161 -1.0168
 9055TIP3    H248581   1.537   3.669  16.483  0.3122  3.5859 -1.1263
 9056TIP3   OH248582   5.507   0.480   4.476  0.0918 -0.5267 -0.1629
 9056TIP3    H148583   5.555   0.472   4.394  0.4548 -0.7986  0.0734
 9056TIP3    H248584   5.479   0.572   4.478  0.3713 -0.4340 -0.4326
 9057TIP3   OH248585   1.466   2.558   2.355 -0.3463  0.1462  0.2351
 9057TIP3    H148586   1.512   2.632   2.315 -0.6523  0.1223 -0.1696
 9057TIP3    H248587   1.435   2.506   2.281  0.5736 -0.8480  0.5241
 9058TIP3   OH248588   2.482   4.890   0.769  0.6909 -0.5282 -0.3177
 9058TIP3    H148589   2.411   4.915   0.829  0.0371 -1.2716 -0.7703
 9058TIP3    H248590   2.465   4.799   0.748  1.8439 -0.7528 -0.3686
 9059TIP3   OH248591   5.124   4.816  11.177  0.2165 -0.6671 -0.1406
 9059TIP3    H148592   5.190   4.877  11.144  1.8867 -1.8895  0.7875
 9059TIP3    H248593   5.149   4.731  11.141 -0.2835 -1.3273  1.0169
 9060TIP3   OH248594   1.402   1.694  16.897 -0.0511 -0.1457 -0.1387
 9060TIP3    H148595   1.307   1.695  16.891 -0.4541 -1.0874  3.6730
 9060TIP3    H248596   1.427   1.603  16.886  0.2583 -0.1079  0.2140
 9061TIP3   OH248597   5.918   2.780   1.605  0.2998  0.1656 -0.1052
 9061TIP3    H148598   5.933   2.757   1.696  0.4225  2.4528  0.4983
 9061TIP3    H248599   5.896   2.697   1.563 -3.8092 -0.4912  2.7778
 9062TIP3   OH248600   5.303   4.302  16.533  0.6258  0.0846  0.3524
 9062TIP3    H148601   5.231   4.274  16.477  0.5133  1.7683 -0.3916
 9062TIP3    H248602   5.326   4.389  16.501  2.3447 -0.0198  1.2157
 9063TIP3   OH248603   4.186   0.258  13.766  0.0217  0.0654 -0.1340
 9063TIP3    H148604   4.275   0.222  13.761  0.3965  0.8019  0.7932
 9063TIP3    H248605   4.169   0.293  13.679 -0.9972 -3.6676 -1.6311
 9064TIP3   OH248606   4.015   6.264  15.496 -0.3097  0.3929  0.6554
 9064TIP3    H148607   3.929   6.244  15.458 -0.8719  1.5554  1.2595
 9064TIP3    H248608   4.078   6.225  15.435 -1.2269  0.8053 -0.5877
 9065TIP3   OH248609   0.922   1.824   4.303  0.4226  0.3196 -0.4218
 9065TIP3    H148610   0.836   1.782   4.307  0.4169  0.2644 -1.0804
 9065TIP3    H248611   0.950   1.813   4.212  0.2182  2.1572 -0.7327
 9066TIP3   OH248612   0.603   5.325  12.664 -0.0857  0.3257 -0.1934
 9066TIP3    H148613   0.557   5.275  12.731 -0.7032  3.3983  1.8409
 9066TIP3    H248614   0.539   5.335  12.593 -1.1965  1.1901  0.9019
 9067TIP3   OH248615   0.449   2.573   0.958  0.2870 -0.1054 -0.5557
 9067TIP3    H148616   0.485   2.658   0.933  0.5763 -0.1973 -0.4558
 9067TIP3    H248617   0.492   2.552   1.041  1.4040 -1.0729 -1.3551
 9068TIP3   OH248618   6.341   3.783   1.039  0.1926 -0.1584  0.1513
 9068TIP3    H148619   6.293   3.709   1.075 -0.1282 -1.0456 -1.9711
 9068TIP3    H248620   6.411   3.743   0.987  0.3563  1.0338 -0.5819
 9069TIP3   OH248621   1.030   6.127  12.475 -0.1823 -0.7195 -0.8815
 9069TIP3    H148622   1.094   6.091  12.414  1.4007  1.3950 -0.6218
 9069TIP3    H248623   1.015   6.057  12.539  2.7435 -1.0060 -0.3593
 9070TIP3   OH248624   1.865   3.164   2.243 -0.1319 -0.2018  0.4674
 9070TIP3    H148625   1.896   3.081   2.278  0.9842  0.5152  1.2383
 9070TIP3    H248626   1.921   3.181   2.167 -0.5042 -0.2564  0.1775
 9071TIP3   OH248627   2.273   2.455  13.791 -0.7668 -0.5025  0.4458
 9071TIP3    H148628   2.324   2.471  13.870 -0.6160 -0.0171  0.2549
 9071TIP3    H248629   2.334   2.470  13.719 -0.6695 -1.7764  0.2394
 9072TIP3   OH248630   2.046   5.884   0.340  0.6165  0.1802  0.4694
 9072TIP3    H148631   2.089   5.953   0.389 -1.0123  0.2638  1.8881
 9072TIP3    H248632   2.052   5.807   0.397  1.0200 -0.4484 -0.3941
 9073TIP3   OH248633   1.774   5.209  11.151  0.0471  0.0436 -0.3454
 9073TIP3    H148634   1.747   5.290  11.108 -0.8890 -0.0848 -0.0242
 9073TIP3    H248635   1.861   5.191  11.116  0.0608  0.9223 -0.7894
 9074TIP3   OH248636   3.719   2.632   1.115 -0.6754  0.3439 -0.1527
 9074TIP3    H148637   3.650   2.586   1.162 -0.5213  0.9682  0.7055
 9074TIP3    H248638   3.789   2.644   1.180  0.1335 -0.0283 -0.9275
 9075TIP3   OH248639   5.707   2.829  14.972 -0.0367  0.2357  0.6481
 9075TIP3    H148640   5.764   2.752  14.980  0.9309  0.8667  0.0349
 9075TIP3    H248641   5.623   2.794  14.943  0.7317 -0.4944 -0.8196
 9076TIP3   OH248642   6.118   0.046  13.912  0.1080 -0.0755  0.2473
 9076TIP3    H148643   6.146  -0.045  13.921 -3.5323 -1.5677 -1.3430
 9076TIP3    H248644   6.044   0.054  13.973 -0.6113  1.3161 -0.7501
 9077TIP3   OH248645   5.281   4.459  15.139  0.2870 -0.4698 -0.1470
 9077TIP3    H148646   5.233   4.508  15.206 -0.5095 -0.8738 -0.4089
 9077TIP3    H248647   5.213   4.428  15.079  0.9973 -0.1031 -1.1575
 9078TIP3   OH248648   6.151   0.089  12.600  0.1042  0.2517  0.3742
 9078TIP3    H148649   6.081   0.051  12.547  1.7753 -0.8928 -1.1183
 9078TIP3    H248650   6.215   0.019  12.611  0.9459  1.1772  1.8948
 9079TIP3   OH248651   1.288   4.205   1.889 -0.5106  0.4339 -0.4329
 9079TIP3    H148652   1.328   4.290   1.906  3.7412 -1.6820  2.0405
 9079TIP3    H248653   1.312   4.185   1.798  0.1291  1.1235 -0.4297
 9080TIP3   OH248654   6.158   4.659   5.497 -0.5625  0.1983 -0.0495
 9080TIP3    H148655   6.190   4.700   5.417 -1.3755  0.3545 -0.3019
 9080TIP3    H248656   6.190   4.715   5.567  2.8783 -1.5675  0.0585
 9081TIP3   OH248657   3.156   4.644   2.797  0.1839 -0.5225 -0.4374
 9081TIP3    H148658   3.200   4.589   2.862  0.3863 -0.3423 -0.4207
 9081TIP3    H248659   3.226   4.693   2.755 -0.1495  1.3965  1.0880
 9082TIP3   OH248660   2.953   1.303   2.256 -0.1700 -0.1921 -0.2440
 9082TIP3    H148661   2.933   1.316   2.163  0.7556 -0.1309 -0.4416
 9082TIP3    H248662   3.028   1.243   2.256 -2.1929 -2.9174  0.5530
 9083TIP3   OH248663   5.888   6.649   4.937  0.6081 -0.0729  0.2464
 9083TIP3    H148664   5.899   6.583   5.006  1.1359  0.5939  0.8208
 9083TIP3    H248665   5.838   6.719   4.979  0.8386  0.2894 -0.0774
 9084TIP3   OH248666   3.296   5.476  16.022 -0.5056 -0.0471  0.0695
 9084TIP3    H148667   3.282   5.477  15.928  0.8564 -0.0271 -0.1624
 9084TIP3    H248668   3.228   5.419  16.057 -0.9745 -0.1077 -0.9307
 9085TIP3   OH248669   3.081   4.395  14.087  0.3219 -0.0620 -0.0319
 9085TIP3    H148670   3.150   4.455  14.058  0.0969  1.1531  1.7694
 9085TIP3    H248671   3.009   4.453  14.112 -0.2521 -1.1403  0.8560
 9086TIP3   OH248672   0.981   4.955  13.378  0.0829 -0.6703 -0.1607
 9086TIP3    H148673   1.076   4.963  13.383  0.1039 -1.2879  0.8468
 9086TIP3    H248674   0.949   5.013  13.447 -0.4684  1.9649 -2.4523
 9087TIP3   OH248675   1.953   5.986   2.276 -0.0048 -0.4908 -0.2521
 9087TIP3    H148676   1.890   5.930   2.229 -2.2484  2.5034 -1.1530
 9087TIP3    H248677   1.982   6.049   2.211  3.1845 -1.0292  0.4791
 9088TIP3   OH248678   0.946   2.231   4.129  0.4030 -0.0087  0.4531
 9088TIP3    H148679   1.037   2.220   4.156  0.1407 -1.8559  0.7018
 9088TIP3    H248680   0.898   2.164   4.177 -1.2946  1.6704  1.1960
 9089TIP3   OH248681   1.742   5.577  11.662 -0.4438  0.0355  0.1335
 9089TIP3    H148682   1.767   5.649  11.604 -2.3376  1.3633  0.8968
 9089TIP3    H248683   1.704   5.512  11.603  0.7889 -0.1411 -0.4975
 9090TIP3   OH248684   6.328   2.066   1.104 -0.0927 -0.1271  0.1517
 9090TIP3    H148685   6.411   2.069   1.058 -0.6813 -0.7861 -0.9954
 9090TIP3    H248686   6.331   2.139   1.166  1.4198 -0.2921  0.2975
 9091TIP3   OH248687   2.343   6.527   4.107  0.3352  0.2927 -0.5116
 9091TIP3    H148688   2.423   6.483   4.137  0.7052  1.2813 -0.0166
 9091TIP3    H248689   2.325   6.487   4.022 -0.3914 -2.1175  0.6784
 9092TIP3   OH248690   0.992   2.960   2.019 -0.3618  0.5941  0.0019
 9092TIP3    H148691   1.019   2.882   2.068 -0.5012  0.5900  0.0741
 9092TIP3    H248692   0.980   3.027   2.086  0.9186  1.0211 -0.1701
 9093TIP3   OH248693   5.907   5.073  12.817 -0.0203  0.3045  0.6332
 9093TIP3    H148694   5.902   5.081  12.912  0.1461  0.0335  0.6662
 9093TIP3    H248695   5.974   5.006  12.802  0.8858  1.2525  0.2954
 9094TIP3   OH248696   5.442   6.319  16.357  0.2808 -0.0516 -0.1489
 9094TIP3    H148697   5.445   6.282  16.268  1.3547  0.9832 -0.5695
 9094TIP3    H248698   5.501   6.394  16.353 -0.6337  0.7562  1.1165
 9095TIP3   OH248699   0.338   6.226  14.109  0.1653  0.2175 -0.2008
 9095TIP3    H148700   0.252   6.265  14.122  0.3186  0.0189  1.6699
 9095TIP3    H248701   0.344   6.211  14.015 -1.7760  0.3567 -0.3736
 9096TIP3   OH248702   2.027   3.548  11.522 -0.3944  0.2430 -0.2908
 9096TIP3    H148703   2.028   3.632  11.570 -0.3958  0.4229 -0.6044
 9096TIP3    H248704   2.031   3.573  11.430  1.6828 -0.1408 -0.3592
 9097TIP3   OH248705   5.674   6.412   4.983  0.0861 -0.4061 -0.0649
 9097TIP3    H148706   5.730   6.466   5.038  1.3848 -0.9039 -0.8415
 9097TIP3    H248707   5.711   6.421   4.895 -0.3251 -1.6965 -0.3974
 9098TIP3   OH248708   5.231   4.681   0.137  0.1888 -0.2443  0.3092
 9098TIP3    H148709   5.270   4.728   0.211  1.0932 -2.2277  1.1860
 9098TIP3    H248710   5.257   4.731   0.060 -0.3632  1.6125  1.2667
 9099TIP3   OH248711   3.451   3.879   6.251  0.1052 -0.1245  0.3859
 9099TIP3    H148712   3.459   3.932   6.330  0.3594  0.4757 -0.0294
 9099TIP3    H248713   3.484   3.936   6.181  2.6398 -1.6386  0.2264
 9100TIP3   OH248714   4.307   5.737  13.494  0.2760  0.0611  0.0464
 9100TIP3    H148715   4.230   5.680  13.503 -0.5536  1.2278  0.5123
 9100TIP3    H248716   4.305   5.765  13.403  1.5486 -1.7986 -0.6160
 9101TIP3   OH248717   5.341   2.527  14.661 -0.8005  0.3042  0.0349
 9101TIP3    H148718   5.277   2.463  14.631 -0.7079 -0.0387  0.5537
 9101TIP3    H248719   5.343   2.516  14.757 -1.2357  1.5060  0.1967
 9102TIP3   OH248720   2.169   0.507  15.437  0.2764 -0.0779 -0.2860
 9102TIP3    H148721   2.084   0.465  15.426 -0.3013  0.0824  2.7216
 9102TIP3    H248722   2.153   0.600  15.425  0.0912 -0.0809 -0.0597
 9103TIP3   OH248723   4.216   2.950   3.564 -0.0559 -0.4858  0.2334
 9103TIP3    H148724   4.227   3.032   3.612  0.8701  0.4897 -1.5314
 9103TIP3    H248725   4.292   2.945   3.506 -2.4572 -0.0162 -3.3047
 9104TIP3   OH248726   4.418   3.862   0.444 -0.2376 -0.0020  0.0554
 9104TIP3    H148727   4.418   3.958   0.442  2.3143  0.0465 -1.0804
 9104TIP3    H248728   4.397   3.840   0.534 -1.5211  1.5879  0.1949
 9105TIP3   OH248729   1.032   4.245  14.078 -1.0506 -0.7033  0.1587
 9105TIP3    H148730   1.036   4.189  14.001 -2.0895 -1.6370  0.7511
 9105TIP3    H248731   0.939   4.260  14.092 -0.8088  0.9577  0.1965
 9106TIP3   OH248732   0.637   2.422  14.252  0.3210  0.3102  0.0343
 9106TIP3    H148733   0.651   2.516  14.262  0.4490  0.2901  0.0559
 9106TIP3    H248734   0.719   2.391  14.212  0.1142  0.2736 -0.3694
 9107TIP3   OH248735   1.650   5.869  14.890 -0.4790 -0.7217 -0.4919
 9107TIP3    H148736   1.726   5.876  14.831  0.3102  1.0553  0.6566
 9107TIP3    H248737   1.672   5.797  14.949  1.2031  0.8642  0.9435
 9108TIP3   OH248738   5.215   5.851  10.574 -0.3149 -0.5387 -0.7044
 9108TIP3    H148739   5.157   5.878  10.503 -0.1589  2.2508  0.1019
 9108TIP3    H248740   5.161   5.858  10.653  0.0811 -1.6042 -0.3290
 9109TIP3   OH248741   0.140   0.693   4.101 -0.2701 -0.1249  0.4047
 9109TIP3    H148742   0.067   0.723   4.156 -0.6417 -0.9019  0.3466
 9109TIP3    H248743   0.206   0.662   4.163  0.3852  1.3231  0.4974
 9110TIP3   OH248744   4.051   3.681   0.483  0.1660  0.3841 -0.2437
 9110TIP3    H148745   4.059   3.640   0.397 -1.5857 -0.4633 -0.0465
 9110TIP3    H248746   4.037   3.774   0.465 -1.0184  0.0877 -0.9256
 9111TIP3   OH248747   6.425   0.034  12.822 -0.2223 -0.2928  0.0082
 9111TIP3    H148748   6.344   0.070  12.859  1.5430  2.9381  1.1675
 9111TIP3    H248749   6.408  -0.060  12.813 -3.8954  0.1800  0.5868
 9112TIP3   OH248750   4.596   6.168  14.102  0.9832  0.2038 -0.5334
 9112TIP3    H148751   4.617   6.198  14.190  0.8031 -1.1698 -0.0012
 9112TIP3    H248752   4.542   6.090  14.115  1.0211 -0.0711 -1.8621
 9113TIP3   OH248753   6.704   4.168   5.450 -0.0682  0.1877  0.4596
 9113TIP3    H148754   6.665   4.109   5.386  1.0414 -1.2423  1.0378
 9113TIP3    H248755   6.641   4.169   5.522 -0.4549  0.3296  0.1247
 9114TIP3   OH248756   5.334   1.422  15.720 -0.3518  0.5324  0.3364
 9114TIP3    H148757   5.355   1.452  15.808 -0.3965  1.5850  0.0028
 9114TIP3    H248758   5.390   1.345  15.707 -1.7512 -0.8381  1.9865
 9115TIP3   OH248759   4.484   2.979   3.561 -0.1680  0.0240 -0.3381
 9115TIP3    H148760   4.528   3.041   3.503  2.1240 -1.0484  0.1804
 9115TIP3    H248761   4.438   3.035   3.624  0.5604  1.1892 -0.8040
 9116TIP3   OH248762   0.238   3.124   0.896 -0.5953  0.3550 -0.6420
 9116TIP3    H148763   0.239   3.028   0.897 -0.3246  0.3401  1.2378
 9116TIP3    H248764   0.328   3.148   0.872 -0.4546  0.1243 -0.3611
 9117TIP3   OH248765   6.515   4.047  10.976 -0.1450  0.1948 -0.2617
 9117TIP3    H148766   6.561   3.985  10.919  0.3261 -1.5781  1.9098
 9117TIP3    H248767   6.528   4.132  10.934  2.3049 -0.6855 -1.4795
 9118TIP3   OH248768   0.616   0.097   0.411 -0.4346  0.5474 -0.2166
 9118TIP3    H148769   0.588   0.029   0.473  1.9118  0.5927  1.0010
 9118TIP3    H248770   0.604   0.179   0.459 -0.4675  0.7600 -0.5833
 9119TIP3   OH248771   0.490   1.894   3.767  0.3771 -0.5163 -0.0097
 9119TIP3    H148772   0.396   1.912   3.760  0.5424  0.2247 -0.4795
 9119TIP3    H248773   0.530   1.949   3.699  0.9695 -2.3771 -1.2324
 9120TIP3   OH248774   3.471   2.504   2.141  0.4259  0.2576  0.0587
 9120TIP3    H148775   3.553   2.533   2.100  1.3938 -2.4142 -0.1001
 9120TIP3    H248776   3.433   2.444   2.078 -0.9212  0.3344  0.7762
 9121TIP3   OH248777   2.226   6.488  13.983 -0.1528 -0.3479  0.0199
 9121TIP3    H148778   2.286   6.413  13.992  0.0126 -0.2246 -0.0488
 9121TIP3    H248779   2.250   6.527  13.899 -0.4710 -0.4207 -0.1058
 9122TIP3   OH248780   3.582   5.186   6.150  0.5458  0.3060  0.1771
 9122TIP3    H148781   3.654   5.142   6.105  1.5315 -0.2289  2.1654
 9122TIP3    H248782   3.611   5.277   6.159 -2.0151  2.0296 -5.0624
 9123TIP3   OH248783   4.459   1.182  15.179  0.1319  0.4053  0.4879
 9123TIP3    H148784   4.532   1.209  15.235 -1.1962  2.6071  1.3050
 9123TIP3    H248785   4.387   1.166  15.240 -0.4946 -0.2516 -0.4029
 9124TIP3   OH248786   4.542   6.225   4.320 -0.2827  0.1399  0.0135
 9124TIP3    H148787   4.515   6.282   4.248 -0.9063 -0.4420 -0.2291
 9124TIP3    H248788   4.629   6.195   4.296 -0.4882 -0.0535 -0.5144
 9125TIP3   OH248789   2.746   1.218  14.648  0.4048 -0.0248  0.5110
 9125TIP3    H148790   2.715   1.138  14.607 -0.7981  0.6475  0.0635
 9125TIP3    H248791   2.676   1.243  14.709  0.1739  1.3629 -0.2945
 9126TIP3   OH248792   5.338   6.304  13.655 -0.5864 -0.6012  0.9020
 9126TIP3    H148793   5.250   6.308  13.618 -0.9295  0.6019  1.7772
 9126TIP3    H248794   5.334   6.362  13.731  1.2537  0.2936  0.3599
 9127TIP3   OH248795   0.710   2.168  12.561 -0.4405 -0.2805  0.1382
 9127TIP3    H148796   0.617   2.192  12.555 -0.5525 -0.0804  2.0674
 9127TIP3    H248797   0.726   2.160  12.655  1.6791  0.3440 -0.1332
 9128TIP3   OH248798   3.667   4.740  15.112  0.1962 -0.3242  0.1707
 9128TIP3    H148799   3.620   4.665  15.148 -2.3573  0.6554 -0.8356
 9128TIP3    H248800   3.651   4.811  15.175  0.7364 -0.0951  0.0497
 9129TIP3   OH248801   2.157   5.478   2.114 -0.2451  0.1683 -0.5437
 9129TIP3    H148802   2.120   5.417   2.177  1.0541 -0.4045 -0.3003
 9129TIP3    H248803   2.185   5.422   2.041 -0.3828  0.6534 -0.9736
 9130TIP3   OH248804   3.394   4.476  13.228 -0.2761 -0.4562  0.3440
 9130TIP3    H148805   3.475   4.522  13.248 -1.0486  0.6553  1.0662
 9130TIP3    H248806   3.373   4.429  13.309 -1.2929  0.7731  0.8338
 9131TIP3   OH248807   2.480   2.020   1.730 -0.0050  0.1114  0.6442
 9131TIP3    H148808   2.416   2.003   1.799  0.2332  0.6739  1.0090
 9131TIP3    H248809   2.561   2.039   1.776  0.0951  0.7476  0.2145
 9132TIP3   OH248810   2.118   1.583  12.106 -0.0928 -0.1342 -0.2079
 9132TIP3    H148811   2.093   1.520  12.172 -0.3002  0.8900  0.7225
 9132TIP3    H248812   2.172   1.647  12.152  1.4670 -0.4668 -1.4571
 9133TIP3   OH248813   2.145   3.080  16.895  0.9089  0.6646  0.5558
 9133TIP3    H148814   2.203   3.034  16.835 -0.7155 -0.7153 -0.0400
 9133TIP3    H248815   2.079   3.015  16.920  0.3427  1.7915  2.2181
 9134TIP3   OH248816   3.226   1.188  12.119  0.1317 -0.0086 -0.3168
 9134TIP3    H148817   3.184   1.122  12.064  2.2496 -1.7064 -0.0458
 9134TIP3    H248818   3.163   1.260  12.123 -2.4744 -2.1064 -0.3763
 9135TIP3   OH248819   0.289   6.464   2.850 -0.0142 -0.3856 -0.1343
 9135TIP3    H148820   0.265   6.372   2.863  2.0147 -1.0852 -0.9957
 9135TIP3    H248821   0.368   6.477   2.902  1.1148  0.1628 -1.9070
 9136TIP3   OH248822   2.062   0.108  12.920  0.4001 -0.0002  0.0986
 9136TIP3    H148823   2.034   0.142  12.835 -0.6920  3.2780  1.5945
 9136TIP3    H248824   1.982   0.102  12.971  1.3684  1.6596  1.9682
 9137TIP3   OH248825   5.418   5.146  15.129  0.4148  0.2940 -0.5457
 9137TIP3    H148826   5.345   5.200  15.100  1.5375  2.2583  0.0865
 9137TIP3    H248827   5.381   5.059  15.139 -1.8248  1.1986 -0.3187
 9138TIP3   OH248828   1.703   2.542  14.674  0.4688 -0.0882  0.5124
 9138TIP3    H148829   1.715   2.466  14.617  0.2285 -0.2090  0.6206
 9138TIP3    H248830   1.776   2.537  14.735  1.3807  0.6698 -0.4713
 9139TIP3   OH248831   3.112   4.696   5.475  0.1564 -0.1754  0.4278
 9139TIP3    H148832   3.192   4.733   5.511 -0.2890  0.6288  0.6184
 9139TIP3    H248833   3.094   4.619   5.531  0.2635  0.2122  1.0061
 9140TIP3   OH248834   5.949   2.986  11.252  0.3000  0.3476 -0.2051
 9140TIP3    H148835   5.934   2.897  11.281  0.5875  0.8015  1.4276
 9140TIP3    H248836   5.898   2.994  11.171  1.2294 -1.6280 -1.0412
 9141TIP3   OH248837   2.685   0.616   4.669 -0.0777 -0.7297 -0.5671
 9141TIP3    H148838   2.770   0.582   4.697 -0.9697 -1.0568  2.0521
 9141TIP3    H248839   2.676   0.699   4.716 -2.0834 -1.7535  1.0208
 9142TIP3   OH248840   3.669   1.389   3.295 -0.1690  0.3885  0.4779
 9142TIP3    H148841   3.604   1.423   3.234  0.7780 -0.1665 -0.8843
 9142TIP3    H248842   3.678   1.457   3.362 -1.3728  0.9140  0.1239
 9143TIP3   OH248843   5.080   3.073   3.650  0.2394  0.3178  0.0710
 9143TIP3    H148844   5.120   3.056   3.736  0.8919  0.1698 -0.2577
 9143TIP3    H248845   5.065   3.168   3.649  1.6342  0.5504 -0.2418
 9144TIP3   OH248846   2.603   2.452  15.214 -0.3985  0.5209 -1.1302
 9144TIP3    H148847   2.693   2.483  15.220 -0.1194 -0.1007 -1.8713
 9144TIP3    H248848   2.558   2.521  15.165 -1.1568  2.4395  1.9825
 9145TIP3   OH248849   6.658   2.554   5.751  0.0201  0.2484 -1.1051
 9145TIP3    H148850   6.696   2.467   5.741  0.2044  0.3153 -0.9908
 9145TIP3    H248851   6.690   2.603   5.675 -0.0905  0.2132 -1.1740
 9146TIP3   OH248852   2.053   4.459  16.957 -0.1890  0.0422 -0.2009
 9146TIP3    H148853   2.143   4.441  16.930  0.2323  0.5518  0.7931
 9146TIP3    H248854   2.035   4.395  17.025  0.0179  0.9688  0.7521
 9147TIP3   OH248855   5.666   2.118   1.949  0.3246 -0.4968 -0.2792
 9147TIP3    H148856   5.745   2.160   1.914  0.5680 -1.1045 -0.4735
 9147TIP3    H248857   5.596   2.182   1.933  1.0640  0.8439  1.5290
 9148TIP3   OH248858   1.243   0.903   5.648 -0.0380  0.2260 -0.3255
 9148TIP3    H148859   1.183   0.887   5.576  0.0652 -0.0874 -0.3452
 9148TIP3    H248860   1.198   0.965   5.705 -0.6337 -0.4827 -0.0208
 9149TIP3   OH248861   3.616   2.840  13.836 -0.4439  0.9646 -0.2096
 9149TIP3    H148862   3.678   2.838  13.909  0.0032 -1.2723 -0.5846
 9149TIP3    H248863   3.657   2.787  13.768 -2.1082  0.6430 -1.0158
 9150TIP3   OH248864   0.360   5.844  10.662  0.6477 -0.2919 -0.2014
 9150TIP3    H148865   0.316   5.926  10.685 -2.5817 -1.9451  0.0244
 9150TIP3    H248866   0.426   5.870  10.597 -0.2161  2.4722 -0.1203
 9151TIP3   OH248867   0.975   5.720  12.690 -0.1949  0.2322  0.2672
 9151TIP3    H148868   1.013   5.806  12.708 -3.2504  2.0196 -1.0049
 9151TIP3    H248869   0.900   5.713  12.749 -0.7093 -1.0171 -0.4739
 9152TIP3   OH248870   3.267   4.661  11.982 -0.0767  0.0326 -0.0832
 9152TIP3    H148871   3.347   4.714  11.981  0.3727 -0.6471 -0.7492
 9152TIP3    H248872   3.215   4.699  12.053  0.0219  1.6761 -0.8251
 9153TIP3   OH248873   5.419   3.346   2.985 -0.4521  0.3104 -0.3422
 9153TIP3    H148874   5.420   3.311   3.074  0.1099 -1.1714 -0.9003
 9153TIP3    H248875   5.334   3.390   2.977 -2.1558 -2.7103 -0.2065
 9154TIP3   OH248876   3.621   3.632  12.750 -0.1197  0.5099  0.2349
 9154TIP3    H148877   3.599   3.721  12.778  0.3044  0.3680  1.0803
 9154TIP3    H248878   3.680   3.644  12.676  1.9148  1.0255  1.8265
 9155TIP3   OH248879   2.600   2.281  15.975 -0.0174  0.6919 -0.2644
 9155TIP3    H148880   2.681   2.248  16.012 -0.2476  0.5342  0.1031
 9155TIP3    H248881   2.568   2.210  15.919 -0.2855  0.4577  0.1810
 9156TIP3   OH248882   0.713   0.005   5.835  0.0287  0.0897 -0.0689
 9156TIP3    H148883   0.683  -0.077   5.873  0.4759 -0.4145 -0.7759
 9156TIP3    H248884   0.720  -0.014   5.741 -1.0668  1.2883 -0.4256
 9157TIP3   OH248885   6.547   1.219  12.839  0.1931 -0.3866  0.0006
 9157TIP3    H148886   6.630   1.252  12.805  0.0011  0.3682  0.2413
 9157TIP3    H248887   6.488   1.219  12.763  0.6829 -1.8925 -0.4003
 9158TIP3   OH248888   0.292   2.742  15.942  0.0337 -0.5390 -1.2434
 9158TIP3    H148889   0.256   2.831  15.942  0.5983 -0.1848  1.6909
 9158TIP3    H248890   0.302   2.721  16.035  2.9719 -2.4292 -1.8558
 9159TIP3   OH248891   3.753   0.506   2.272  0.0061 -0.6963  0.3425
 9159TIP3    H148892   3.730   0.419   2.304  0.2715 -1.3858 -1.2249
 9159TIP3    H248893   3.669   0.547   2.251 -0.0817 -0.9495  0.1937
 9160TIP3   OH248894   0.388   2.916   4.927 -0.3174  0.1185 -0.0000
 9160TIP3    H148895   0.453   2.985   4.915 -0.3291  0.0242 -0.6430
 9160TIP3    H248896   0.405   2.882   5.015  0.0971  0.5126  0.0748
 9161TIP3   OH248897   5.589   3.983  16.878 -0.1000 -0.1794  0.1314
 9161TIP3    H148898   5.542   3.981  16.961  0.7228 -1.1432  0.5823
 9161TIP3    H248899   5.536   4.041  16.823 -3.0333 -2.7827 -0.0915
 9162TIP3   OH248900   2.483   6.536   3.066  0.0373 -0.5826  0.2810
 9162TIP3    H148901   2.551   6.599   3.091 -1.5508  0.9327  0.9865
 9162TIP3    H248902   2.440   6.514   3.148 -0.4962 -1.3325 -0.1902
 9163TIP3   OH248903   0.845   5.310  10.690  0.1599 -0.1914 -0.1154
 9163TIP3    H148904   0.751   5.321  10.705  0.5379  1.4138  1.4308
 9163TIP3    H248905   0.886   5.372  10.750  2.3832 -3.5747  2.1371
 9164TIP3   OH248906   5.761   3.777   4.721  0.3653  0.0806 -0.1180
 9164TIP3    H148907   5.719   3.803   4.803  0.3398 -1.3534  0.3513
 9164TIP3    H248908   5.843   3.827   4.720 -0.2346  1.1054  0.1160
 9165TIP3   OH248909   0.201   2.504   4.497 -0.1945 -0.1262  0.1360
 9165TIP3    H148910   0.295   2.499   4.512  0.3906 -2.8096 -3.1458
 9165TIP3    H248911   0.162   2.453   4.568  0.6108  1.9199  2.1541
 9166TIP3   OH248912   2.217   0.072   3.701  0.2955 -0.6338 -0.4236
 9166TIP3    H148913   2.132   0.028   3.692 -0.3917  0.7199 -0.8616
 9166TIP3    H248914   2.228   0.085   3.795  0.2668 -1.2804 -0.3298
 9167TIP3   OH248915   2.655   6.562  16.441 -0.1255 -0.3566 -0.1895
 9167TIP3    H148916   2.620   6.643  16.404  0.5951  0.0314 -0.0383
 9167TIP3    H248917   2.578   6.512  16.465 -0.6289  1.3494  2.0662
 9168TIP3   OH248918   2.300   0.762   2.541 -0.2064  0.3158  0.6245
 9168TIP3    H148919   2.257   0.731   2.621 -0.7282 -2.7065 -0.7045
 9168TIP3    H248920   2.229   0.784   2.482  0.1137 -0.3808 -0.0354
 9169TIP3   OH248921   4.813   5.949  14.306 -0.3484 -0.6783 -0.3628
 9169TIP3    H148922   4.745   5.913  14.249  0.8458 -1.4804 -1.3293
 9169TIP3    H248923   4.863   6.007  14.249 -0.9333  0.9010  0.6506
 9170TIP3   OH248924   3.259   1.037  15.498 -0.1093 -0.0249 -0.0232
 9170TIP3    H148925   3.235   1.031  15.405 -0.2512 -2.0532  0.1081
 9170TIP3    H248926   3.327   1.104  15.500  0.7327 -0.7454 -1.7956
 9171TIP3   OH248927   2.606   1.757  15.644 -0.5813 -0.1894 -0.1071
 9171TIP3    H148928   2.540   1.724  15.704 -0.6035  1.9342  1.1435
 9171TIP3    H248929   2.562   1.825  15.594  0.2955  0.3079 -0.2313
 9172TIP3   OH248930   5.582   2.974   1.503  1.2390 -0.2142 -0.3990
 9172TIP3    H148931   5.661   3.027   1.498  1.6297 -0.7021  0.4856
 9172TIP3    H248932   5.510   3.036   1.492  1.7401  0.1939 -1.4604
 9173TIP3   OH248933   1.326   1.923  17.055 -0.0786 -0.3468 -0.0093
 9173TIP3    H148934   1.391   1.860  17.025 -1.0397 -0.5724 -1.7457
 9173TIP3    H248935   1.377   1.999  17.084  1.0190 -1.2949  0.5909
 9174TIP3   OH248936   2.831   6.381  12.105 -0.1606 -0.5107 -0.1148
 9174TIP3    H148937   2.778   6.310  12.140  1.6861 -1.3642  1.0627
 9174TIP3    H248938   2.773   6.458  12.109 -2.3473 -1.9407 -1.8358
 9175TIP3   OH248939   5.065   4.485   6.363  0.1598 -0.4113 -0.8034
 9175TIP3    H148940   5.138   4.423   6.356 -0.8922 -1.5708 -1.8655
 9175TIP3    H248941   5.091   4.558   6.306  0.8885 -0.3823 -0.4513
 9176TIP3   OH248942   3.469   5.588   6.542  0.0247  0.4082  0.5675
 9176TIP3    H148943   3.542   5.645   6.566 -0.6340  1.6077 -0.1871
 9176TIP3    H248944   3.475   5.514   6.603  1.9834  0.3719  0.3753
 9177TIP3   OH248945   0.402   0.926   1.436  0.3261  0.0370  0.2187
 9177TIP3    H148946   0.453   0.974   1.370 -0.7841  0.3001 -0.4826
 9177TIP3    H248947   0.382   0.842   1.393  1.6092 -0.7952  1.1510
 9178TIP3   OH248948   1.442   0.546   4.147 -0.2706  0.0899 -0.2619
 9178TIP3    H148949   1.475   0.457   4.161  0.7235 -0.0281 -2.7406
 9178TIP3    H248950   1.379   0.560   4.217 -1.1043 -2.8950 -0.2692
 9179TIP3   OH248951   2.805   6.632   0.245  0.1069 -0.4723 -0.9677
 9179TIP3    H148952   2.767   6.685   0.176  0.2026 -0.9551 -1.4004
 9179TIP3    H248953   2.876   6.686   0.281 -1.8078  1.0044  0.7843
 9180TIP3   OH248954   3.619   1.655  16.318 -0.2021  0.2616  0.4250
 9180TIP3    H148955   3.572   1.716  16.376 -0.3114  1.2308 -0.6447
 9180TIP3    H248956   3.638   1.707  16.240  0.6413 -0.7931 -0.0911
 9181TIP3   OH248957   3.616   0.266  17.054 -0.6211 -0.3596  0.3373
 9181TIP3    H148958   3.682   0.320  17.095 -0.5499  0.3456 -0.6687
 9181TIP3    H248959   3.658   0.181  17.041  0.2761  0.2332 -0.7556
 9182TIP3   OH248960   4.428   0.632   6.786  0.8662  0.0050 -0.3391
 9182TIP3    H148961   4.419   0.727   6.778  0.4271 -0.2090 -4.4268
 9182TIP3    H248962   4.338   0.599   6.790  1.0020 -0.3193  0.2203
 9183TIP3   OH248963   3.874   6.304  17.255  0.4500  0.5245 -0.3660
 9183TIP3    H148964   3.963   6.324  17.225  1.0335  0.4236  1.1522
 9183TIP3    H248965   3.879   6.315  17.350 -1.2305  0.7059 -0.2720
 9184TIP3   OH248966   3.605   3.599   2.551 -0.3059  0.2922  0.0965
 9184TIP3    H148967   3.628   3.552   2.631  0.2574  1.3552  0.5667
 9184TIP3    H248968   3.675   3.663   2.539  0.3905 -0.7594 -2.0253
 9185TIP3   OH248969   2.252   2.221   3.337  0.1174  0.2003 -0.1348
 9185TIP3    H148970   2.190   2.294   3.340 -0.6496 -0.4765  0.9457
 9185TIP3    H248971   2.336   2.262   3.317 -0.7783  1.0423 -2.5036
 9186TIP3   OH248972   3.878   1.395  15.252  0.1701 -0.6674 -0.3505
 9186TIP3    H148973   3.795   1.389  15.300  1.2465  0.1754  1.7575
 9186TIP3    H248974   3.857   1.368  15.163 -2.3769 -0.4333  0.1166
 9187TIP3   OH248975   3.304   2.048   1.223 -0.0738  0.0577  0.9537
 9187TIP3    H148976   3.281   1.966   1.266 -0.3053 -0.1667  0.4263
 9187TIP3    H248977   3.243   2.113   1.259 -1.1158 -0.3902  0.0771
 9188TIP3   OH248978   0.255   0.500  15.668  0.5274 -0.0546 -0.0315
 9188TIP3    H148979   0.196   0.572  15.649 -1.2985 -1.2664  0.6872
 9188TIP3    H248980   0.261   0.451  15.586 -0.8974 -0.8667  0.3169
 9189TIP3   OH248981   1.107   0.470   0.181 -0.1453 -0.5447 -0.0618
 9189TIP3    H148982   1.073   0.445   0.267  1.7362  0.3498  1.0096
 9189TIP3    H248983   1.054   0.545   0.154 -2.0005 -1.9861 -0.6179
 9190TIP3   OH248984   2.973   6.766  16.731  0.1982  0.3041 -0.4783
 9190TIP3    H148985   3.048   6.706  16.730  0.3943  0.5091  0.6023
 9190TIP3    H248986   2.966   6.793  16.822 -1.5423 -0.1538 -0.4428
 9191TIP3   OH248987   4.449   2.936  14.510 -0.2222  0.2817 -0.3742
 9191TIP3    H148988   4.389   3.006  14.485  0.1371  0.6861 -0.0994
 9191TIP3    H248989   4.501   2.919  14.431 -1.0807 -0.4735 -0.8011
 9192TIP3   OH248990   5.482   3.921  11.758 -0.1976  0.1578  0.2705
 9192TIP3    H148991   5.514   3.889  11.843  1.2333  1.6989  0.3673
 9192TIP3    H248992   5.535   3.998  11.741 -1.4354  0.6823 -1.3859
 9193TIP3   OH248993   1.588   3.980   5.119 -0.8265 -0.1956 -0.3336
 9193TIP3    H148994   1.605   3.907   5.178  0.1522  0.7180  0.5569
 9193TIP3    H248995   1.672   4.025   5.112 -1.5664  1.2570 -0.2863
 9194TIP3   OH248996   3.715   2.082  16.551  0.0537  0.7399 -0.0690
 9194TIP3    H148997   3.773   2.099  16.626  1.0624 -0.4647 -0.5338
 9194TIP3    H248998   3.770   2.033  16.489 -1.4899 -0.5023 -0.5156
 9195TIP3   OH248999   6.488   0.075   5.162 -0.6287  0.0766 -0.2114
 9195TIP3    H149000   6.486   0.054   5.256 -1.9437  1.3252  0.0750
 9195TIP3    H249001   6.420   0.142   5.151 -0.6057 -0.1658 -2.0996
 9196TIP3   OH249002   1.406   1.412  11.905  0.1959  0.2268 -0.0398
 9196TIP3    H149003   1.369   1.382  11.988  1.5571  0.5514  0.7184
 9196TIP3    H249004   1.379   1.504  11.899  0.2022  0.2389  0.1076
 9197TIP3   OH249005   4.530   5.922   2.455  0.4969  0.6706 -0.3461
 9197TIP3    H149006   4.554   5.839   2.414  0.4750  0.1274  0.7199
 9197TIP3    H249007   4.483   5.970   2.386 -2.6487 -1.6264 -0.0030
 9198TIP3   OH249008   4.107   4.823   2.318  0.0563 -0.5831  0.4593
 9198TIP3    H149009   4.166   4.875   2.263 -2.1051  0.4538 -1.0400
 9198TIP3    H249010   4.163   4.785   2.385  2.1833  1.4515 -0.0430
 9199TIP3   OH249011   6.380   4.882  13.657  0.3948 -0.2759  0.0632
 9199TIP3    H149012   6.316   4.935  13.704 -1.1443  0.0768 -2.2606
 9199TIP3    H249013   6.350   4.883  13.566  3.1355 -1.0021 -0.9536
 9200TIP3   OH249014   3.190   5.766   5.738  0.3786 -0.1418  0.3633
 9200TIP3    H149015   3.133   5.689   5.744  0.1867  0.0860  1.7574
 9200TIP3    H249016   3.278   5.730   5.736  0.2687 -0.4217  0.4884
 9201TIP3   OH249017   2.566   0.138  16.273 -0.2069  0.5770 -0.2423
 9201TIP3    H149018   2.476   0.122  16.245 -0.2566  0.3586  0.0433
 9201TIP3    H249019   2.619   0.082  16.216 -0.2406  0.7844 -0.4806
 9202TIP3   OH249020   4.225   1.396   4.686  0.0803 -0.1030  0.3875
 9202TIP3    H149021   4.210   1.337   4.761  1.8389 -2.5182 -1.0225
 9202TIP3    H249022   4.144   1.390   4.635  0.5639 -2.2081 -0.2344
 9203TIP3   OH249023   0.758   5.230  15.377  0.0558  1.3813 -0.1383
 9203TIP3    H149024   0.675   5.237  15.329  1.4630  0.3699 -2.9326
 9203TIP3    H249025   0.761   5.139  15.407  0.3756  1.2461 -0.5605
 9204TIP3   OH249026   2.114   5.332  17.013  0.8965  0.7270 -0.5843
 9204TIP3    H149027   2.183   5.345  17.079  0.2698 -1.1918  0.5354
 9204TIP3    H249028   2.138   5.249  16.971 -1.4435 -0.7782  0.8532
 9205TIP3   OH249029   2.897   3.163  12.748 -0.0370 -0.1047  0.2868
 9205TIP3    H149030   2.925   3.085  12.796 -0.5607 -2.9574 -3.5862
 9205TIP3    H249031   2.967   3.180  12.685 -1.8093 -0.2644 -1.8619
 9206TIP3   OH249032   1.603   1.463   3.439 -0.4511 -0.1753 -0.1157
 9206TIP3    H149033   1.625   1.490   3.529 -2.3222  0.6037  0.1586
 9206TIP3    H249034   1.530   1.520   3.415  0.1910 -0.1877 -2.2585
 9207TIP3   OH249035   1.005   5.136   4.510 -0.0972 -0.0672  0.2145
 9207TIP3    H149036   1.033   5.056   4.465 -1.0389 -0.3155  0.0328
 9207TIP3    H249037   1.073   5.200   4.490 -1.2580  0.3457 -3.0283
 9208TIP3   OH249038   5.085   2.484  11.513 -0.2013 -0.0076  0.2631
 9208TIP3    H149039   5.056   2.523  11.430  0.4271  0.8290  0.4185
 9208TIP3    H249040   5.170   2.446  11.493  0.1816  0.6401  0.6375
 9209TIP3   OH249041   1.164   0.391  15.085  0.2123 -0.2249  0.1321
 9209TIP3    H149042   1.202   0.309  15.054  0.2707 -0.4616  0.8137
 9209TIP3    H249043   1.070   0.380  15.074  0.0904 -1.0087  1.6366
 9210TIP3   OH249044   4.925   5.674   3.974  0.7879 -0.0193 -0.0535
 9210TIP3    H149045   4.860   5.721   4.026  0.2251  2.0163 -2.4216
 9210TIP3    H249046   4.960   5.607   4.033 -1.0895  0.9641  2.3001
 9211TIP3   OH249047   5.972   2.307  10.932  0.2947 -0.2156  0.3076
 9211TIP3    H149048   5.912   2.295  10.858  0.0293  2.2447  0.0560
 9211TIP3    H249049   6.058   2.318  10.891  0.0019  2.2320  0.1835
 9212TIP3   OH249050   1.066   5.589  15.852 -0.2530  0.1552  0.0745
 9212TIP3    H149051   0.983   5.549  15.825 -0.6518  0.1039  1.3360
 9212TIP3    H249052   1.047   5.683  15.855  0.7311  0.5869 -3.0698
 9213TIP3   OH249053   3.651   5.395  15.682 -0.1665 -0.5980 -0.1887
 9213TIP3    H149054   3.624   5.447  15.758  1.2798 -1.1227  0.7333
 9213TIP3    H249055   3.667   5.459  15.613 -0.6550 -0.0329  0.2143
 9214TIP3   OH249056   5.485   4.110   4.908  0.3429 -0.0789 -0.1418
 9214TIP3    H149057   5.445   4.092   4.823  0.2202 -2.1434  0.3115
 9214TIP3    H249058   5.473   4.030   4.958  3.2435 -0.0865  0.7321
 9215TIP3   OH249059   0.731   0.362  11.697 -0.3067 -0.3657 -0.4187
 9215TIP3    H149060   0.680   0.281  11.700 -0.6546 -0.1226  0.9119
 9215TIP3    H249061   0.794   0.354  11.768 -0.4835  0.6176 -0.1329
 9216TIP3   OH249062   6.012   1.180  17.200 -0.0984 -0.4895 -0.2919
 9216TIP3    H149063   5.983   1.258  17.246  0.0066  0.1730 -1.3022
 9216TIP3    H249064   5.967   1.108  17.243 -3.1138  0.4468 -1.6197
 9217TIP3   OH249065   6.086   2.435   4.919  0.0358  0.2368 -0.5034
 9217TIP3    H149066   6.040   2.513   4.887 -0.3328  0.9616  1.6067
 9217TIP3    H249067   6.177   2.463   4.930  0.0998  0.0813 -0.6358
 9218TIP3   OH249068   0.636   1.994   6.515  0.2311 -0.0367 -0.4994
 9218TIP3    H149069   0.645   1.970   6.608  2.1638  0.7266 -0.4563
 9218TIP3    H249070   0.700   1.940   6.470 -1.1892 -0.9379 -1.5491
 9219TIP3   OH249071   1.928   4.295  14.114 -0.1216  0.2265 -0.3611
 9219TIP3    H149072   1.925   4.302  14.018 -0.5269  1.6515 -0.2634
 9219TIP3    H249073   1.874   4.367  14.145  0.3419  0.0308  0.9572
 9220TIP3   OH249074   3.379   5.792  11.239 -0.2682 -0.0976 -0.2189
 9220TIP3    H149075   3.337   5.706  11.235 -0.3772 -0.0265 -0.7308
 9220TIP3    H249076   3.449   5.782  11.303 -0.6373 -0.4072  0.1437
 9221TIP3   OH249077   3.059   4.236  16.546 -0.1374  0.0789  0.4084
 9221TIP3    H149078   3.098   4.152  16.572 -0.7007  0.1636  1.5977
 9221TIP3    H249079   3.015   4.267  16.625 -0.8607  0.9776 -0.3268
 9222TIP3   OH249080   2.898   0.335  15.148 -0.2859  0.1456 -0.0770
 9222TIP3    H149081   2.831   0.389  15.190 -0.3115  2.2960 -2.6423
 9222TIP3    H249082   2.878   0.246  15.177 -2.9998  0.9700  0.8739
 9223TIP3   OH249083   4.751   5.489   2.804 -0.3156 -0.0578  0.0914
 9223TIP3    H149084   4.695   5.541   2.747  1.5446 -1.1794 -2.9463
 9223TIP3    H249085   4.787   5.552   2.866  0.5698  2.0746 -2.4189
 9224TIP3   OH249086   4.661   1.124   2.790 -0.1585  0.3503  0.3849
 9224TIP3    H149087   4.661   1.120   2.695 -2.8061 -0.0327  0.3288
 9224TIP3    H249088   4.726   1.059   2.817  0.3477  0.1942 -1.1416
 9225TIP3   OH249089   6.477   3.602   3.923 -0.4197 -0.7613 -0.3188
 9225TIP3    H149090   6.420   3.528   3.905 -1.0410 -0.1345 -1.0201
 9225TIP3    H249091   6.565   3.573   3.898 -0.9045 -0.7144 -2.2296
 9226TIP3   OH249092   5.218   1.119  14.499  0.2048 -0.5738 -0.0722
 9226TIP3    H149093   5.166   1.075  14.566  1.0958 -1.0681  0.3139
 9226TIP3    H249094   5.248   1.200  14.541  0.5979 -0.7861  0.0517
 9227TIP3   OH249095   1.229   1.672   0.927  0.0301 -0.0039 -0.2586
 9227TIP3    H149096   1.296   1.733   0.958 -0.2571  1.1611 -1.7966
 9227TIP3    H249097   1.151   1.726   0.914  0.1656 -0.3221 -3.0459
 9228TIP3   OH249098   3.796   0.656  16.048 -0.4434 -0.4148  0.2479
 9228TIP3    H149099   3.732   0.616  15.989 -1.1933 -0.8453  1.3264
 9228TIP3    H249100   3.772   0.625  16.135  1.8783 -1.4463  0.6004
 9229TIP3   OH249101   3.239   2.163  17.263  0.3077  0.1929  0.1188
 9229TIP3    H149102   3.208   2.110  17.336 -1.8476 -0.3909 -1.1010
 9229TIP3    H249103   3.310   2.111  17.224  0.5459 -0.1398  0.9856
 9230TIP3   OH249104   1.061   5.931  16.787  0.3184  0.0982 -0.4856
 9230TIP3    H149105   1.093   5.859  16.732 -0.2314  0.7527 -1.7115
 9230TIP3    H249106   0.991   5.972  16.735  0.0396  0.9902  0.5476
 9231TIP3   OH249107   6.081   0.798   1.537  0.5000  0.3928  0.0437
 9231TIP3    H149108   6.176   0.792   1.536  0.5353  0.7346  0.6462
 9231TIP3    H249109   6.063   0.868   1.600 -0.2632 -1.8308  2.4561
 9232TIP3   OH249110   5.303   0.716   0.401 -0.2561 -0.2133 -0.4401
 9232TIP3    H149111   5.323   0.696   0.493 -0.7698  0.2041 -0.2311
 9232TIP3    H249112   5.239   0.787   0.406  1.5711  1.5723 -1.1736
 9233TIP3   OH249113   0.474   1.250  15.817 -0.3045 -0.0793  0.2042
 9233TIP3    H149114   0.450   1.162  15.790 -2.2743  0.6849 -0.7677
 9233TIP3    H249115   0.485   1.298  15.734  1.3646  0.4598  0.6985
 9234TIP3   OH249116   1.945   4.375   5.493  0.6355 -0.2496 -0.1855
 9234TIP3    H149117   1.876   4.429   5.532  0.9337 -1.0427  1.5765
 9234TIP3    H249118   1.898   4.300   5.456  0.4135  0.0564 -0.5267
 9235TIP3   OH249119   2.641   5.786   4.729 -0.1090  0.1358  0.7888
 9235TIP3    H149120   2.734   5.801   4.749 -0.2173  1.5911  0.3483
 9235TIP3    H249121   2.594   5.848   4.784 -0.9015 -1.1328  1.5932
 9236TIP3   OH249122   1.496   1.792  15.874  0.5724  0.3939 -0.2033
 9236TIP3    H149123   1.518   1.862  15.935  0.6728  0.1038  0.1006
 9236TIP3    H249124   1.551   1.809  15.797  0.2978  0.8752 -0.2949
 9237TIP3   OH249125   5.306   4.756  15.699  0.4209 -0.1941 -0.2002
 9237TIP3    H149126   5.356   4.827  15.739  0.2012 -0.1367 -0.0179
 9237TIP3    H249127   5.370   4.704  15.651  0.4383  0.7259 -1.2171
 9238TIP3   OH249128   4.741   0.419  15.872 -0.1866 -0.5976 -0.2932
 9238TIP3    H149129   4.687   0.363  15.817 -1.2962  0.6461 -0.5036
 9238TIP3    H249130   4.687   0.495  15.891  1.3706  0.5625 -0.2541
 9239TIP3   OH249131   1.804   4.505   1.814  0.1539  0.1606  0.1825
 9239TIP3    H149132   1.828   4.598   1.813 -1.3823  0.6138 -2.1594
 9239TIP3    H249133   1.885   4.459   1.790  0.8566  0.8844  1.0911
 9240TIP3   OH249134   5.015   0.133  16.836  0.4935  0.5661  0.1279
 9240TIP3    H149135   5.066   0.214  16.836 -1.2153  1.7178  1.5210
 9240TIP3    H249136   5.068   0.071  16.886  2.1945  0.4965 -1.6418
 9241TIP3   OH249137   0.514   3.568   4.498 -0.4042  0.2964 -0.2075
 9241TIP3    H149138   0.593   3.518   4.475 -0.8591 -0.5181 -0.0461
 9241TIP3    H249139   0.546   3.655   4.520  0.4378  0.0121 -0.2745
 9242TIP3   OH249140   0.909   0.255   1.992 -0.5777  0.2894  0.3339
 9242TIP3    H149141   0.948   0.170   2.010  2.5863  1.8309  1.5480
 9242TIP3    H249142   0.833   0.259   2.050 -1.4313 -2.0077 -0.4970
 9243TIP3   OH249143   4.765   5.966   2.020 -0.0970  0.5087 -0.2621
 9243TIP3    H149144   4.840   5.915   1.989 -0.0110  0.5027 -0.0517
 9243TIP3    H249145   4.761   6.041   1.960  0.8597  1.1749  0.4515
 9244TIP3   OH249146   1.701   4.598   4.286  0.5964  0.0505  0.2939
 9244TIP3    H149147   1.747   4.516   4.272  0.0254  0.0094 -1.6117
 9244TIP3    H249148   1.626   4.594   4.227 -0.9580  0.8195  2.1102
 9245TIP3   OH249149   1.045   3.148  16.523  0.7355 -0.0471  0.2639
 9245TIP3    H149150   1.078   3.236  16.504 -1.4001  0.5093 -1.1670
 9245TIP3    H249151   0.987   3.159  16.598  0.5234 -0.2503  0.1299
 9246TIP3   OH249152   5.205   4.074   3.701  0.2607 -0.1963  0.2427
 9246TIP3    H149153   5.114   4.098   3.718 -0.0980 -0.8356 -0.6689
 9246TIP3    H249154   5.206   3.978   3.708  0.2283 -0.4706 -2.4047
 9247TIP3   OH249155   3.272   1.862  12.109  0.4920  0.2464  0.1368
 9247TIP3    H149156   3.293   1.776  12.073  2.3880  1.5714 -2.3232
 9247TIP3    H249157   3.350   1.915  12.090 -1.2480  2.9259 -0.0535
 9248TIP3   OH249158   2.463   2.199  14.385 -0.0593  0.9442 -0.5011
 9248TIP3    H149159   2.398   2.144  14.427 -0.6305  3.2412  1.9439
 9248TIP3    H249160   2.421   2.230  14.305 -1.8257  1.8888  0.7144
 9249TIP3   OH249161   3.813   3.431   4.096 -0.2223 -0.5272 -0.5206
 9249TIP3    H149162   3.898   3.386   4.099  0.2968  0.2972 -1.6232
 9249TIP3    H249163   3.822   3.502   4.159 -0.2885 -0.7663 -0.2434
 9250TIP3   OH249164   3.858   5.122   3.402  0.3376 -0.3123  0.1770
 9250TIP3    H149165   3.825   5.201   3.358 -0.8711  0.1727  1.8510
 9250TIP3    H249166   3.797   5.053   3.376 -0.0896 -0.1301  0.6693
 9251TIP3   OH249167   3.179   2.594   4.266  0.2193 -0.1032  0.0685
 9251TIP3    H149168   3.272   2.613   4.255 -0.0105  0.4170 -1.1011
 9251TIP3    H249169   3.146   2.668   4.317 -0.0959  1.2190 -1.9723
 9252TIP3   OH249170   2.640   5.007   4.826  0.3257  0.0642 -0.4099
 9252TIP3    H149171   2.573   4.947   4.860 -0.1478  1.6946  1.7992
 9252TIP3    H249172   2.592   5.069   4.771  0.2606  0.3166 -0.0729
 9253TIP3   OH249173   1.455   0.823   1.276 -0.0809 -0.3582 -0.0863
 9253TIP3    H149174   1.534   0.864   1.311 -0.5192  0.0891  0.3734
 9253TIP3    H249175   1.476   0.807   1.184  0.8392 -0.9771  0.2164
 9254TIP3   OH249176   4.131   5.880   4.638 -0.0841 -0.1659 -0.2102
 9254TIP3    H149177   4.098   5.967   4.662  0.4743  0.1530 -0.5994
 9254TIP3    H249178   4.084   5.821   4.697  1.0171  0.5763  1.4853
 9255TIP3   OH249179   5.887   5.524   1.064 -0.4740  0.0975  0.7705
 9255TIP3    H149180   5.866   5.615   1.086 -0.1497  0.5792 -0.8119
 9255TIP3    H249181   5.860   5.474   1.142 -2.2728  1.3192  0.9930
 9256TIP3   OH249182   4.604   1.588  13.358 -0.2321  0.2343  0.8619
 9256TIP3    H149183   4.542   1.588  13.285 -2.1557  0.5640  2.4436
 9256TIP3    H249184   4.588   1.670  13.404  0.6899 -0.1347  1.8946
 9257TIP3   OH249185   5.787   6.166  14.271  0.3973 -0.1213  0.0836
 9257TIP3    H149186   5.793   6.164  14.367  0.9958 -0.8900  0.0314
 9257TIP3    H249187   5.693   6.157  14.253  0.0323  1.9149  0.6242
 9258TIP3   OH249188   3.945   5.700   5.214 -0.1384 -0.5256 -0.3959
 9258TIP3    H149189   3.928   5.626   5.155 -0.5682 -0.4612 -0.3552
 9258TIP3    H249190   3.878   5.693   5.281  0.1689 -0.4214 -0.0746
 9259TIP3   OH249191   0.832   0.050  16.465 -0.4175  1.0935  0.3304
 9259TIP3    H149192   0.873  -0.010  16.403 -1.8835  0.5025 -0.1077
 9259TIP3    H249193   0.865   0.022  16.551 -1.2526 -0.5292  0.1592
 9260TIP3   OH249194   4.661   1.053   4.430 -0.3735  0.3555 -0.2556
 9260TIP3    H149195   4.647   0.981   4.491  0.9625 -0.7758 -1.1987
 9260TIP3    H249196   4.712   1.014   4.359 -0.7627  1.9286 -1.4616
 9261TIP3   OH249197   0.353   5.497   2.179 -0.1616  0.4945  0.0571
 9261TIP3    H149198   0.437   5.452   2.180  1.2048  2.8584 -1.0947
 9261TIP3    H249199   0.299   5.447   2.118  1.7094  1.0455 -2.1606
 9262TIP3   OH249200   5.295   5.438   0.519 -0.3932 -0.2152 -0.4953
 9262TIP3    H149201   5.239   5.361   0.507  0.8365 -0.9469 -1.7250
 9262TIP3    H249202   5.233   5.510   0.534 -1.5694 -1.4058  0.6137
 9263TIP3   OH249203   3.334   0.271  17.108 -0.1819  0.2047 -0.7842
 9263TIP3    H149204   3.283   0.309  17.037  1.4151  1.9027 -1.0939
 9263TIP3    H249205   3.425   0.278  17.080  0.3207 -2.4829 -0.1285
 9264TIP3   OH249206   0.971   0.475  17.021 -0.5430 -0.3875  0.9826
 9264TIP3    H149207   1.011   0.556  17.051  2.8472 -2.7877  3.7550
 9264TIP3    H249208   0.996   0.469  16.929 -0.6134  1.5108  0.8027
 9265TIP3   OH249209   4.699   2.512  14.993 -0.4465 -0.1839  0.1840
 9265TIP3    H149210   4.774   2.455  15.011 -1.0663 -1.2694 -0.5863
 9265TIP3    H249211   4.671   2.488  14.905 -0.5617  1.5266 -0.2834
 9266TIP3   OH249212   4.866   2.697   2.882  0.3537  0.3225 -0.2857
 9266TIP3    H149213   4.861   2.789   2.858 -1.4913 -0.2994 -2.6779
 9266TIP3    H249214   4.919   2.657   2.813  0.6525 -0.5418  0.4114
 9267TIP3   OH249215   0.948   6.185   5.115  0.0178  0.6204 -0.2463
 9267TIP3    H149216   0.963   6.276   5.141 -1.7242  0.6236  0.9282
 9267TIP3    H249217   0.879   6.155   5.174  2.7060 -2.4829  1.6546
 9268TIP3   OH249218   4.928   2.436   1.597 -0.4733 -0.2231  0.4299
 9268TIP3    H149219   5.019   2.426   1.626 -0.8280  0.3728  1.8505
 9268TIP3    H249220   4.931   2.509   1.535  0.1390 -0.7506 -0.1691
 9269TIP3   OH249221   1.601   2.384   3.006 -0.0823  0.6776 -0.1295
 9269TIP3    H149222   1.532   2.407   3.069 -1.0569  0.0752 -0.9535
 9269TIP3    H249223   1.653   2.318   3.052 -1.5803 -0.7566 -0.3841
 9270TIP3   OH249224   3.791   5.499  11.559  0.0832  0.4689  0.2047
 9270TIP3    H149225   3.753   5.414  11.583  1.2391  0.1516  1.0039
 9270TIP3    H249226   3.762   5.513  11.469  0.9800 -1.4495 -0.4511
 9271TIP3   OH249227   1.962   6.692   3.595  0.1480  0.0117 -0.2617
 9271TIP3    H149228   1.870   6.666   3.596 -0.2123  1.2853  0.5641
 9271TIP3    H249229   1.968   6.754   3.523 -0.0293  1.2626  0.7803
 9272TIP3   OH249230   6.193   2.512   0.709 -0.4119 -0.2886  0.1121
 9272TIP3    H149231   6.133   2.537   0.639 -0.9396 -1.3457  0.1571
 9272TIP3    H249232   6.158   2.554   0.787 -1.9728 -1.9923  0.4183
 9273TIP3   OH249233   3.684   3.060   0.067  0.3359  0.8977  0.7131
 9273TIP3    H149234   3.600   3.023   0.040  0.7988 -0.5722  1.1930
 9273TIP3    H249235   3.661   3.125   0.134 -0.3493 -0.7401  2.1424
 9274TIP3   OH249236   3.649   4.381   4.140  0.4153 -0.0443 -0.1631
 9274TIP3    H149237   3.721   4.426   4.095  0.6544 -1.1767 -0.9496
 9274TIP3    H249238   3.573   4.395   4.083 -0.4835  2.6321  1.5015
 9275TIP3   OH249239   1.523   6.338   4.205  0.0223 -0.6683  0.6303
 9275TIP3    H149240   1.555   6.248   4.210  0.4220 -0.5451  0.2742
 9275TIP3    H249241   1.458   6.344   4.275 -2.5307 -2.2295 -1.4374
 9276TIP3   OH249242   5.110   1.596  16.095  0.6732 -0.4768 -0.2488
 9276TIP3    H149243   5.060   1.648  16.031  0.5164  0.6818  0.7728
 9276TIP3    H249244   5.152   1.662  16.151  0.2565 -1.4664  1.2621
 9277TIP3   OH249245   1.199   5.266   4.322 -0.1919  0.7178 -0.2862
 9277TIP3    H149246   1.265   5.196   4.325  1.6167  2.3319 -0.2183
 9277TIP3    H249247   1.170   5.268   4.231 -1.8671 -1.4533  0.1210
 9278TIP3   OH249248   4.688   0.602  13.960  0.1382 -0.0055 -0.3559
 9278TIP3    H149249   4.636   0.672  14.000  0.1451 -0.3934  0.3446
 9278TIP3    H249250   4.673   0.612  13.866 -1.8967 -0.6079 -0.1615
 9279TIP3   OH249251   2.053   4.663  16.173 -0.5665 -0.1108  0.5461
 9279TIP3    H149252   2.042   4.575  16.136 -1.8686 -0.0146  0.6518
 9279TIP3    H249253   2.033   4.652  16.266  0.1356  0.1356  0.7272
 9280TIP3   OH249254   0.724   3.779   1.525 -0.7849 -0.4094  0.0644
 9280TIP3    H149255   0.637   3.770   1.486 -0.1279 -1.6977 -1.2109
 9280TIP3    H249256   0.720   3.861   1.573 -3.0606 -0.9801  0.9969
 9281TIP3   OH249257   1.785   0.561   1.537 -0.1331 -0.8378 -0.7303
 9281TIP3    H149258   1.730   0.593   1.465  0.3438  0.7212 -0.4223
 9281TIP3    H249259   1.829   0.639   1.571 -0.6157 -1.4766  1.5081
 9282TIP3   OH249260   2.644   2.209  16.741  0.1664 -0.1303  0.1506
 9282TIP3    H149261   2.624   2.293  16.782  2.1241  0.3370  0.2520
 9282TIP3    H249262   2.677   2.154  16.812 -0.7543 -0.8988  0.0163
 9283TIP3   OH249263   1.674   5.500   4.549  0.4269 -0.1295  0.3437
 9283TIP3    H149264   1.758   5.469   4.582 -0.2795 -1.9094  0.6338
 9283TIP3    H249265   1.628   5.532   4.627  0.2889 -0.5405  0.4341
 9284TIP3   OH249266   5.990   6.064  12.603 -0.1708  0.0803 -0.0066
 9284TIP3    H149267   6.069   6.056  12.657  0.5057 -2.0193 -1.2164
 9284TIP3    H249268   6.004   6.003  12.531 -1.8314  1.5125 -1.6209
 9285TIP3   OH249269   1.520   1.960  13.868 -0.2722  0.6367 -0.1706
 9285TIP3    H149270   1.497   1.920  13.784 -1.6779  2.0092 -0.4826
 9285TIP3    H249271   1.517   2.054  13.851  4.4839  1.0810  0.0772
 9286TIP3   OH249272   1.958   2.984  16.483 -0.2486  0.5581 -0.1153
 9286TIP3    H149273   2.051   2.997  16.505 -0.6242  1.5822  0.9313
 9286TIP3    H249274   1.944   3.038  16.405  0.1047  0.1010 -0.5094
 9287TIP3   OH249275   3.008   3.727  12.900  0.0054  0.3249  0.1892
 9287TIP3    H149276   2.961   3.679  12.968 -1.6297  0.0010 -1.0979
 9287TIP3    H249277   2.939   3.762  12.844  1.2845 -0.2074 -1.8241
 9288TIP3   OH249278   0.162   0.456   0.306 -0.3723 -0.0726 -0.2340
 9288TIP3    H149279   0.255   0.478   0.313 -0.4718  0.8491 -1.5943
 9288TIP3    H249280   0.132   0.502   0.229 -2.3286  0.8373  1.0006
 9289TIP3   OH249281   5.192   3.895  14.856 -0.0005 -0.5678 -0.5382
 9289TIP3    H149282   5.209   3.912  14.763  0.7814  0.6394 -0.1995
 9289TIP3    H249283   5.106   3.934  14.872  0.3879  0.2992 -0.4995
 9290TIP3   OH249284   2.145   4.655  16.722 -0.4096  0.0518  0.4882
 9290TIP3    H149285   2.080   4.725  16.711 -0.4202  0.0592  0.5902
 9290TIP3    H249286   2.101   4.590  16.776 -0.6978 -0.4289 -0.3085
 9291TIP3   OH249287   6.006   6.703  10.338 -0.2100  0.1801  0.0654
 9291TIP3    H149288   6.074   6.761  10.372 -1.2050  0.9877  0.7706
 9291TIP3    H249289   6.000   6.633  10.402 -1.6079  1.3423  1.3071
 9292TIP3   OH249290   5.106   2.531   5.000  0.0594 -0.3739  0.6606
 9292TIP3    H149291   5.194   2.494   5.005 -0.1356 -1.2574 -1.4887
 9292TIP3    H249292   5.070   2.497   4.918 -2.7284 -0.9828  2.0113
 9293TIP3   OH249293   6.362   1.251   2.309 -0.1920 -0.5007  0.0483
 9293TIP3    H149294   6.398   1.338   2.291  2.0392 -1.7777 -2.2912
 9293TIP3    H249295   6.271   1.267   2.332  0.2722  2.4757  0.1934
 9294TIP3   OH249296   3.658   4.963   0.604 -0.4647  0.6406  0.1261
 9294TIP3    H149297   3.633   4.877   0.637 -0.4134  0.4198 -0.4039
 9294TIP3    H249298   3.715   4.999   0.671 -3.3101  1.7894  2.1357
 9295TIP3   OH249299   2.916   6.579   1.746 -0.5123  0.6504  0.0780
 9295TIP3    H149300   2.831   6.621   1.760 -1.2590 -0.4956 -0.8388
 9295TIP3    H249301   2.943   6.608   1.659 -1.1232 -0.8497 -0.6476
 9296TIP3   OH249302   3.667   2.438  12.174  0.0860 -0.5316  0.3075
 9296TIP3    H149303   3.630   2.474  12.094  1.4475  1.4783  0.4727
 9296TIP3    H249304   3.640   2.500  12.243  0.2837 -1.3162  1.1131
 9297TIP3   OH249305   4.838   3.291  11.374  0.2058 -0.4229 -0.4810
 9297TIP3    H149306   4.797   3.214  11.334 -1.1387  1.3265 -2.7237
 9297TIP3    H249307   4.920   3.301  11.326  0.5218 -0.6303  0.0174
 9298TIP3   OH249308   4.723   4.869   4.377 -0.1633 -0.8059  0.2511
 9298TIP3    H149309   4.729   4.843   4.469 -0.3804  0.8840  0.7748
 9298TIP3    H249310   4.679   4.954   4.379  3.5205  1.3509 -1.0215
 9299TIP3   OH249311   0.636   0.405   4.804 -0.0304  0.9452 -0.1060
 9299TIP3    H149312   0.573   0.338   4.830  0.1699  0.3342 -1.1460
 9299TIP3    H249313   0.714   0.386   4.856 -0.1786  0.7399  0.0423
 9300TIP3   OH249314   0.726   1.292   2.503  0.1667  0.1565 -0.4064
 9300TIP3    H149315   0.666   1.235   2.552  0.2530 -1.4174 -2.0337
 9300TIP3    H249316   0.690   1.380   2.515 -0.8346 -0.4006  0.9589
 9301TIP3   OH249317   4.858   3.279   1.556 -0.0524  0.2764  0.0031
 9301TIP3    H149318   4.837   3.349   1.495  0.3319  0.8785  0.5521
 9301TIP3    H249319   4.953   3.272   1.552 -0.0366  0.2328  0.4362
 9302TIP3   OH249320   1.299   5.384   5.912 -0.0301 -0.0851 -0.2096
 9302TIP3    H149321   1.296   5.428   5.827  1.9720  0.3295 -0.1206
 9302TIP3    H249322   1.349   5.444   5.968 -0.7448 -0.6514  1.0865
 9303TIP3   OH249323   3.026   2.862  15.197  0.3566 -0.0993 -0.0059
 9303TIP3    H149324   3.067   2.838  15.280  0.3588  1.1566  0.3718
 9303TIP3    H249325   2.945   2.811  15.193  0.6886 -0.6680  0.4397
 9304TIP3   OH249326   3.558   1.119  13.141 -0.4935 -0.5530  0.1450
 9304TIP3    H149327   3.502   1.192  13.113 -0.1285  0.0986  1.0825
 9304TIP3    H249328   3.514   1.041  13.108 -0.2309  0.1382 -2.0286
 9305TIP3   OH249329   5.624   4.739  17.274 -0.0220  0.5559 -0.4707
 9305TIP3    H149330   5.606   4.770  17.363 -2.2404 -0.2434 -0.5877
 9305TIP3    H249331   5.632   4.644  17.282 -0.8899  0.4104 -1.2100
 9306TIP3   OH249332   2.694   1.820  11.673  0.2604  0.0217  0.2424
 9306TIP3    H149333   2.629   1.858  11.614 -1.5625 -1.3417  1.2608
 9306TIP3    H249334   2.703   1.884  11.744  1.5965  1.1350 -0.8864
 9307TIP3   OH249335   4.776   3.880   2.141 -0.0960  0.0505 -0.1245
 9307TIP3    H149336   4.826   3.854   2.218  1.9641  1.7620 -0.7716
 9307TIP3    H249337   4.685   3.872   2.167  0.5250  0.9517  2.6434
 9308TIP3   OH249338   3.347   5.206  17.290  0.0271  0.2049  0.0254
 9308TIP3    H149339   3.420   5.152  17.258 -0.5996 -1.5507  1.3543
 9308TIP3    H249340   3.269   5.154  17.271 -0.6787  0.9697  0.7586
 9309TIP3   OH249341   3.985   3.304  16.152  0.3348 -0.2924 -0.4031
 9309TIP3    H149342   4.012   3.373  16.213 -0.0835 -0.0208 -0.5212
 9309TIP3    H249343   4.049   3.310  16.081 -0.8775  1.3888 -1.4411
 9310TIP3   OH249344   3.138   6.463  17.023  0.3739  0.4641  0.1985
 9310TIP3    H149345   3.081   6.468  16.946  0.9314  1.9501 -0.1582
 9310TIP3    H249346   3.198   6.391  17.004 -1.1367 -0.9024  0.4305
 9311TIP3   OH249347   5.366   6.377   2.350 -0.3305  0.6934 -0.1991
 9311TIP3    H149348   5.370   6.465   2.387  0.9250 -0.4836  2.7569
 9311TIP3    H249349   5.343   6.321   2.424 -1.1937 -1.4965 -2.0052
 9312TIP3   OH249350   3.207   5.402  14.038  0.5241 -0.4067  0.3059
 9312TIP3    H149351   3.295   5.376  14.066 -0.0784 -2.8083  0.1597
 9312TIP3    H249352   3.157   5.408  14.119  0.8599  1.3019  0.4219
 9313TIP3   OH249353   2.216   6.487  14.440  0.4950 -0.1124 -0.0273
 9313TIP3    H149354   2.271   6.413  14.412  0.7246  0.3445 -0.8021
 9313TIP3    H249355   2.135   6.476  14.391 -0.5696 -1.3796  1.8843
 9314TIP3   OH249356   1.387   3.097   1.519  0.3105  0.6142  0.3731
 9314TIP3    H149357   1.334   3.173   1.492  0.3578  1.3615  2.2395
 9314TIP3    H249358   1.465   3.136   1.558  0.7350 -0.4410  0.5965
 9315TIP3   OH249359   4.608   0.148   2.095  0.4034 -0.2649 -0.1044
 9315TIP3    H149360   4.703   0.144   2.080  0.5929  2.3628 -0.0928
 9315TIP3    H249361   4.580   0.057   2.091  2.9776 -1.1755  0.2611
 9316TIP3   OH249362   0.583   2.503   4.800  0.2581  0.4489 -0.2992
 9316TIP3    H149363   0.632   2.462   4.729 -0.2918  0.0254 -0.4423
 9316TIP3    H249364   0.642   2.570   4.835  0.8475  0.0941 -0.6080
 9317TIP3   OH249365   2.387   0.017   2.812 -0.1220  0.0079 -0.0632
 9317TIP3    H149366   2.403  -0.053   2.750  0.7165 -1.5023  1.7410
 9317TIP3    H249367   2.378  -0.028   2.897 -1.5793  1.9166  0.8730
 9318TIP3   OH249368   0.579   4.493   3.787  0.4308  0.1278  0.7323
 9318TIP3    H149369   0.503   4.465   3.736  1.7162  1.5062 -2.1860
 9318TIP3    H249370   0.543   4.554   3.851 -0.9998  0.4319 -0.2893
 9319TIP3   OH249371   1.008   1.142  12.081  0.1800  0.1822 -0.0620
 9319TIP3    H149372   0.959   1.173  12.005 -0.2196  0.7077  0.4049
 9319TIP3    H249373   0.988   1.048  12.085 -0.2104  0.2537 -0.2963
 9320TIP3   OH249374   2.364   1.533  16.273  0.2405  0.4646  0.3670
 9320TIP3    H149375   2.376   1.621  16.309 -1.0104  1.0014 -0.4667
 9320TIP3    H249376   2.270   1.520  16.272  0.2629  0.1805 -1.9807
 9321TIP3   OH249377   2.143   6.142   4.786  0.6661 -0.4004 -0.6039
 9321TIP3    H149378   2.122   6.081   4.856  0.1990  0.3238 -0.0953
 9321TIP3    H249379   2.066   6.199   4.779  1.6591  1.1118  0.0144
 9322TIP3   OH249380   1.095   4.159   4.053  0.2607 -0.0686 -0.3719
 9322TIP3    H149381   1.069   4.251   4.064  0.1154  0.4045 -3.6495
 9322TIP3    H249382   1.097   4.124   4.142  2.7724  3.7127  1.3517
 9323TIP3   OH249383   1.049   6.178  12.072  0.2354  0.8434  0.0570
 9323TIP3    H149384   0.999   6.122  12.132  2.2952 -0.5358  0.5998
 9323TIP3    H249385   1.066   6.258  12.123  1.6303 -0.1545  1.2415
 9324TIP3   OH249386   3.269   6.064   3.274 -0.1086 -0.1740 -0.0204
 9324TIP3    H149387   3.257   5.969   3.270 -1.8072 -0.0380  0.6834
 9324TIP3    H249388   3.291   6.090   3.185  0.5883 -1.2420 -0.1715
 9325TIP3   OH249389   1.929   2.031   3.232  0.1363  0.1868  0.0983
 9325TIP3    H149390   1.934   1.979   3.152 -0.4447 -2.2183  1.5270
 9325TIP3    H249391   2.021   2.051   3.252  0.2297  1.9384 -1.7746
 9326TIP3   OH249392   4.554   5.126   4.807  0.3470 -0.7831  0.1126
 9326TIP3    H149393   4.539   5.212   4.847 -1.6029 -0.9515 -0.1652
 9326TIP3    H249394   4.548   5.064   4.880 -0.7545 -0.8765 -0.0410
 9327TIP3   OH249395   4.684   0.440  12.070  0.0899 -0.5635  0.0774
 9327TIP3    H149396   4.771   0.446  12.109  0.5310  2.2791 -1.1024
 9327TIP3    H249397   4.690   0.491  11.989 -2.2247 -1.7483 -0.9521
 9328TIP3   OH249398   2.004   6.439  16.271  0.3725  1.2847  0.3058
 9328TIP3    H149399   2.069   6.475  16.212  0.3653  1.0388  0.1456
 9328TIP3    H249400   2.020   6.345  16.270  0.6333  1.3151  1.0082
 9329TIP3   OH249401   5.381   0.586  12.040  0.2394 -0.4777  0.1187
 9329TIP3    H149402   5.395   0.572  11.947 -0.2020  1.8654 -0.3583
 9329TIP3    H249403   5.316   0.521  12.065 -0.2117 -0.6211 -1.3844
 9330TIP3   OH249404   2.734   6.263   2.062  0.2159 -0.0842 -0.2225
 9330TIP3    H149405   2.788   6.339   2.040 -2.1514  1.4000 -1.2225
 9330TIP3    H249406   2.784   6.188   2.030  0.7798  1.3614 -3.0616
 9331TIP3   OH249407   2.909   0.427  16.492 -0.6834 -0.5650  0.1063
 9331TIP3    H149408   2.972   0.454  16.425 -2.4042  0.7288 -1.0660
 9331TIP3    H249409   2.914   0.331  16.491  0.1656 -0.5365 -1.0316
 9332TIP3   OH249410   2.915   3.241  11.892 -0.2254  0.1553 -0.2508
 9332TIP3    H149411   2.891   3.175  11.827 -1.4887 -0.4896  0.8216
 9332TIP3    H249412   2.970   3.195  11.955  1.6663  0.9701 -1.2254
 9333TIP3   OH249413   3.913   5.346   0.791  0.1864 -0.2243  0.2838
 9333TIP3    H149414   3.826   5.366   0.826  1.0155  0.5474  2.0198
 9333TIP3    H249415   3.965   5.320   0.867  1.9379  0.9779 -0.4280
 9334TIP3   OH249416   3.852   3.019  11.382 -0.1858  0.0282 -0.3852
 9334TIP3    H149417   3.843   3.022  11.287  2.1564 -0.8031 -0.6973
 9334TIP3    H249418   3.870   3.109  11.408  1.6300 -0.1047 -1.0751
 9335TIP3   OH249419   4.542   5.575  11.256 -0.5598 -0.3562  0.3949
 9335TIP3    H149420   4.494   5.533  11.184 -0.7890 -0.7872  0.7913
 9335TIP3    H249421   4.478   5.634  11.296  0.0621  1.2308 -0.8289
 9336TIP3   OH249422   3.394   2.630   1.443 -0.0926 -0.2469  0.3964
 9336TIP3    H149423   3.398   2.661   1.533 -0.8214 -0.7982  0.6232
 9336TIP3    H249424   3.478   2.584   1.430  0.2263  0.2616  0.6193
 9337TIP3   OH249425   4.530   4.617   0.983 -0.2412  0.8864 -0.0313
 9337TIP3    H149426   4.609   4.567   0.963 -0.1818  0.2809  1.5567
 9337TIP3    H249427   4.484   4.625   0.900  0.5835 -0.3510 -0.6266
 9338TIP3   OH249428   1.445   5.885   2.001  0.3423 -0.0469  0.2522
 9338TIP3    H149429   1.505   5.959   2.003  0.2349  0.0343  1.9245
 9338TIP3    H249430   1.358   5.924   2.009  0.1998 -0.2711 -0.2127
 9339TIP3   OH249431   3.094   3.707  13.530 -0.1662 -0.4431 -0.1703
 9339TIP3    H149432   3.055   3.623  13.505 -1.2338  0.4064 -1.4708
 9339TIP3    H249433   3.171   3.716  13.473 -0.1370 -0.4576 -0.1343
 9340TIP3   OH249434   3.662   2.799   0.898  0.2601 -0.2634  0.6686
 9340TIP3    H149435   3.722   2.798   0.972  0.5010 -1.3634  0.4731
 9340TIP3    H249436   3.641   2.707   0.882  1.3921 -0.2050 -1.5692
 9341TIP3   OH249437   3.774   5.656   4.845 -0.1649  0.2385 -0.1617
 9341TIP3    H149438   3.860   5.640   4.807  0.7462 -0.5926  2.0451
 9341TIP3    H249439   3.744   5.569   4.874 -1.6710  0.5426 -0.7193
 9342TIP3   OH249440   4.328   6.731   4.109 -0.6469  0.2044 -0.2651
 9342TIP3    H149441   4.265   6.795   4.142 -1.2268 -1.1381  1.3824
 9342TIP3    H249442   4.275   6.666   4.063 -0.6417 -1.2831  1.6930
 9343TIP3   OH249443   2.959   3.004   2.739  0.4043 -0.2083 -0.4543
 9343TIP3    H149444   3.044   3.047   2.732  0.2478  0.0383 -0.8738
 9343TIP3    H249445   2.940   2.974   2.650 -0.9964  1.7402 -0.8875
 9344TIP3   OH249446   6.309   0.879   5.039  0.6347  0.6220  0.5141
 9344TIP3    H149447   6.308   0.795   5.086  1.9076 -0.3862 -1.1040
 9344TIP3    H249448   6.397   0.883   5.000 -0.0971  1.7037 -1.1609
 9345TIP3   OH249449   2.277   3.689  16.250 -0.6139  0.3987  0.0248
 9345TIP3    H149450   2.233   3.774  16.246  2.1794  1.9134 -2.2307
 9345TIP3    H249451   2.250   3.644  16.170  0.2675  0.4512 -0.3072
 9346TIP3   OH249452   5.778   1.239  11.637 -0.6247 -0.5319 -0.3296
 9346TIP3    H149453   5.772   1.195  11.722 -0.1235 -0.5892 -0.3189
 9346TIP3    H249454   5.870   1.229  11.612  0.1805  2.7121  0.8690
 9347TIP3   OH249455   1.510   2.696   4.937  0.3847 -0.1271  0.2943
 9347TIP3    H149456   1.465   2.682   5.021  1.1806 -0.4147  0.6826
 9347TIP3    H249457   1.457   2.648   4.873 -0.8817  1.0403  0.4182
 9348TIP3   OH249458   4.363   4.591  14.495 -0.1018 -0.3590 -0.2292
 9348TIP3    H149459   4.435   4.621  14.550  0.3484 -1.0656 -0.4362
 9348TIP3    H249460   4.396   4.598  14.405 -0.8115  0.7329 -0.4341
 9349TIP3   OH249461   3.251   0.485   6.090 -0.3058  0.4255 -0.4902
 9349TIP3    H149462   3.322   0.548   6.091 -1.4518  1.7595  0.3203
 9349TIP3    H249463   3.243   0.456   6.180 -2.0466  1.8200 -0.1361
 9350TIP3   OH249464   2.536   2.476   4.452 -0.1408  0.0300 -0.3248
 9350TIP3    H149465   2.559   2.542   4.386  0.4188  0.8415  0.6515
 9350TIP3    H249466   2.474   2.521   4.509  0.8191 -0.0339  0.7870
 9351TIP3   OH249467   4.372   4.501   2.227  0.2926  0.1387 -0.9096
 9351TIP3    H149468   4.449   4.482   2.281  0.4486 -1.6996 -1.7089
 9351TIP3    H249469   4.381   4.594   2.204  0.7145  0.7225  1.3911
 9352TIP3   OH249470   1.322   0.036  16.632  0.4737  0.5424  0.4617
 9352TIP3    H149471   1.269  -0.018  16.690 -0.2694  0.1595 -0.5504
 9352TIP3    H249472   1.406   0.044  16.678 -0.1514  0.4444  1.6845
 9353TIP3   OH249473   2.417   4.814   4.379  0.1194 -0.3535  0.6213
 9353TIP3    H149474   2.362   4.818   4.301  0.6800 -0.3621  0.2286
 9353TIP3    H249475   2.359   4.846   4.449 -1.5963 -3.7055  0.9234
 9354TIP3   OH249476   0.039   5.316   0.923 -0.8051 -0.0556  0.2024
 9354TIP3    H149477   0.028   5.378   0.995 -0.5218 -0.3517  0.5056
 9354TIP3    H249478   0.132   5.324   0.900 -0.3049 -1.6980  1.4843
 9355TIP3   OH249479   0.656   3.650  16.101 -0.1549  0.7641 -0.2215
 9355TIP3    H149480   0.690   3.572  16.145  0.0171 -0.1694 -1.9021
 9355TIP3    H249481   0.571   3.664  16.140 -1.1695 -1.6322 -1.3089
 9356TIP3   OH249482   4.753   0.907   1.507  0.1417 -0.3714 -0.2560
 9356TIP3    H149483   4.820   0.975   1.515 -1.2504  1.0295  0.2522
 9356TIP3    H249484   4.771   0.865   1.423  2.4170 -0.9694  0.4632
 9357TIP3   OH249485   5.063   3.271   6.004 -0.4097  0.2865  0.5206
 9357TIP3    H149486   5.018   3.196   5.966  0.2713  0.7947 -1.4004
 9357TIP3    H249487   5.017   3.288   6.086 -0.6333 -2.1573  0.9802
 9358TIP3   OH249488   4.223   2.467   0.066 -0.5835 -0.0877 -0.1323
 9358TIP3    H149489   4.181   2.551   0.082 -0.1668  0.0003  0.5383
 9358TIP3    H249490   4.184   2.435  -0.016  0.0756  1.2725 -1.0036
 9359TIP3   OH249491   1.332   4.042   2.751  0.2431 -0.2629  0.3014
 9359TIP3    H149492   1.377   4.100   2.812 -0.9879  0.2527  0.7669
 9359TIP3    H249493   1.396   3.974   2.730  1.2741  0.5317  0.7846
 9360TIP3   OH249494   0.059   4.972   3.079  0.1708  0.5196  0.1423
 9360TIP3    H149495   0.014   5.038   3.131 -0.4948  1.0062 -0.9935
 9360TIP3    H249496   0.152   4.990   3.091  0.0420  0.4299  1.3599
 9361TIP3   OH249497   4.228   1.754   0.469 -0.1078 -0.1906  0.5074
 9361TIP3    H149498   4.274   1.836   0.485 -0.8603  0.6431 -1.3139
 9361TIP3    H249499   4.161   1.777   0.404 -0.6291 -2.1474  0.3041
 9362TIP3   OH249500   1.586   5.485   5.566 -0.0990  0.5103  0.2445
 9362TIP3    H149501   1.562   5.418   5.501 -0.6650  0.9916 -0.0559
 9362TIP3    H249502   1.526   5.470   5.639  0.9752 -0.4545  0.9617
 9363TIP3   OH249503   6.093   3.541  13.793  0.2145 -0.0730  0.5626
 9363TIP3    H149504   6.129   3.454  13.773 -0.5219 -0.6561  1.6692
 9363TIP3    H249505   6.013   3.523  13.842 -2.3131  1.1277 -2.7534
 9364TIP3   OH249506   0.024   5.122  16.016  0.9988  0.2865 -0.6301
 9364TIP3    H149507  -0.029   5.199  16.033  2.9398  2.4311 -3.4198
 9364TIP3    H249508   0.104   5.135  16.066  1.1766 -0.1302 -0.7942
 9365TIP3   OH249509   3.805   4.435  12.452 -0.0252 -0.2792 -0.1167
 9365TIP3    H149510   3.857   4.499  12.500 -0.9430  0.0869  0.4026
 9365TIP3    H249511   3.777   4.481  12.373 -1.8286  0.4528  0.8979
 9366TIP3   OH249512   4.005   1.590  11.488 -0.0867 -0.0315 -0.3145
 9366TIP3    H149513   3.981   1.635  11.407  2.3315 -2.3708 -2.5347
 9366TIP3    H249514   4.087   1.632  11.515 -1.2178  1.1907  1.4279
 9367TIP3   OH249515   4.859   5.003   1.385 -0.2330 -0.1073 -0.1194
 9367TIP3    H149516   4.899   5.085   1.413  0.9774 -0.9561  0.7688
 9367TIP3    H249517   4.803   4.977   1.459  0.2497 -0.6179  0.0739
 9368TIP3   OH249518   6.285   0.406  10.489 -0.6848 -0.2324 -0.2674
 9368TIP3    H149519   6.295   0.498  10.463  0.4243  0.2628  1.7016
 9368TIP3    H249520   6.209   0.405  10.547  2.7280  0.8532  4.8949
 9369TIP3   OH249521   4.491   4.969  14.481 -0.1781 -0.0719 -0.2679
 9369TIP3    H149522   4.546   4.902  14.441 -0.1100  0.0912 -0.4464
 9369TIP3    H249523   4.409   4.965  14.432 -0.4548 -0.5541  0.2222
 9370TIP3   OH249524   6.130   5.323   1.747  0.4247 -0.4385  0.6552
 9370TIP3    H149525   6.081   5.282   1.676 -1.2788  0.1468  1.4363
 9370TIP3    H249526   6.112   5.268   1.823  0.1838  0.3234  1.1633
 9371TIP3   OH249527   2.598   6.333  11.563 -0.2534  0.2219  0.1811
 9371TIP3    H149528   2.656   6.310  11.635 -2.4986 -0.9061  1.7066
 9371TIP3    H249529   2.627   6.421  11.537  0.6391  0.6468  2.4174
 9372TIP3   OH249530   0.572   4.218  16.913 -0.3098 -0.2685  0.1929
 9372TIP3    H149531   0.619   4.283  16.964 -2.2539  1.3883 -0.0197
 9372TIP3    H249532   0.542   4.154  16.978  1.1545 -0.6905  0.4746
 9373TIP3   OH249533   6.621   2.196  11.519  0.2989  0.0240 -0.0819
 9373TIP3    H149534   6.703   2.172  11.562  0.1330 -0.6017 -0.1019
 9373TIP3    H249535   6.556   2.197  11.589 -0.1000 -1.6318 -0.3832
 9374TIP3   OH249536   3.496   4.638  14.649 -0.1412 -0.1250 -0.9699
 9374TIP3    H149537   3.457   4.705  14.705  2.3398 -0.7536  1.7349
 9374TIP3    H249538   3.423   4.603  14.599 -2.1612  1.9147  0.3726
 9375TIP3   OH249539   3.824   2.556  17.009  0.3935 -0.2332  0.1286
 9375TIP3    H149540   3.753   2.547  16.946 -0.2632 -2.6629  1.1069
 9375TIP3    H249541   3.901   2.522  16.963  0.1234 -1.0767  0.2873
 9376TIP3   OH249542   1.085   6.396  10.734  0.2232 -0.0520 -0.2923
 9376TIP3    H149543   1.046   6.344  10.663 -0.4768 -1.9000  1.3327
 9376TIP3    H249544   1.038   6.479  10.732 -1.0909 -0.7821 -0.8522
 9377TIP3   OH249545   5.839   3.989   0.748  0.3755  0.6010 -0.0315
 9377TIP3    H149546   5.748   4.015   0.731  0.2827  0.5530  0.3979
 9377TIP3    H249547   5.885   4.012   0.667  0.3631  2.4026  0.4207
 9378TIP3   OH249548   6.276   2.863   0.109  0.3067  0.1075 -0.1875
 9378TIP3    H149549   6.293   2.852   0.202  2.7835  1.7969 -0.3593
 9378TIP3    H249550   6.359   2.843   0.066 -0.5871  0.0442 -2.0018
 9379TIP3   OH249551   2.769   6.243  15.529 -0.0649  0.4099 -0.0450
 9379TIP3    H149552   2.773   6.207  15.618 -1.3110  0.4488  0.0509
 9379TIP3    H249553   2.858   6.271  15.510 -0.0659  1.9376  1.8691
 9380TIP3   OH249554   3.385   1.248   6.521  0.2906 -0.2887 -0.2050
 9380TIP3    H149555   3.446   1.203   6.463 -0.5881 -1.0709 -0.5689
 9380TIP3    H249556   3.437   1.274   6.597  1.1224 -0.6664 -0.6410
 9381TIP3   OH249557   1.208   5.002   0.865 -0.9323  0.0262 -0.1111
 9381TIP3    H149558   1.180   5.009   0.774 -2.5597  1.5444  0.4377
 9381TIP3    H249559   1.279   4.939   0.864 -2.0504 -1.3040 -2.1877
 9382TIP3   OH249560   5.218   3.971   6.248 -0.4227  0.0860 -0.0981
 9382TIP3    H149561   5.209   3.907   6.319 -1.6849  0.7134  0.3458
 9382TIP3    H249562   5.248   3.920   6.173 -0.1719 -0.7942  0.5933
 9383TIP3   OH249563   3.100   3.076   1.180 -0.3171 -0.3794  0.1702
 9383TIP3    H149564   3.112   3.053   1.088  0.1516 -1.3656  0.4687
 9383TIP3    H249565   3.185   3.110   1.208 -0.3675 -0.3789  0.3236
 9384TIP3   OH249566   6.041   2.009   4.936 -0.2413 -0.1420  0.2279
 9384TIP3    H149567   6.047   2.078   5.002 -1.9941 -0.4631  0.7950
 9384TIP3    H249568   6.033   2.056   4.853 -2.1026  0.4138  0.6669
 9385TIP3   OH249569   3.129   6.111  15.815  0.5103 -0.4727  0.7628
 9385TIP3    H149570   3.184   6.185  15.789  0.9054 -0.6373  1.1120
 9385TIP3    H249571   3.126   6.055  15.737 -1.9234  1.1180 -0.4058
 9386TIP3   OH249572   6.670   2.330  14.602  0.0354 -0.2713 -0.2917
 9386TIP3    H149573   6.634   2.267  14.665  1.2313 -2.9782 -2.1236
 9386TIP3    H249574   6.763   2.332  14.622  0.0846  0.5607 -0.5916
 9387TIP3   OH249575   6.060   1.930   3.366 -0.3035  0.3361 -0.6427
 9387TIP3    H149576   5.995   1.888   3.422  0.7170 -0.9232 -0.3383
 9387TIP3    H249577   6.117   1.978   3.427  0.1728 -0.1535 -0.6888
 9388TIP3   OH249578   2.373   2.758  16.884 -0.5915  0.1652  0.2928
 9388TIP3    H149579   2.306   2.801  16.830 -0.3529  2.2192  1.5370
 9388TIP3    H249580   2.449   2.750  16.827 -0.3172  2.3703  0.2472
 9389TIP3   OH249581   4.287   6.185  15.863  0.1995  0.2074 -0.0127
 9389TIP3    H149582   4.273   6.229  15.947  2.3015 -0.0944  0.5706
 9389TIP3    H249583   4.299   6.256  15.800 -0.5658  0.4341  0.0848
 9390TIP3   OH249584   6.759   4.697   2.535  0.2398  0.3797 -0.1484
 9390TIP3    H149585   6.797   4.755   2.601  1.1910 -0.9098  0.4984
 9390TIP3    H249586   6.754   4.750   2.456  0.5608  1.4965  0.5608
 9391TIP3   OH249587   5.176   6.229   0.796  0.4306 -0.0167 -0.0888
 9391TIP3    H149588   5.190   6.324   0.801  1.3042 -0.0480 -1.3155
 9391TIP3    H249589   5.101   6.213   0.852  0.1392  1.4351 -0.0112
 9392TIP3   OH249590   5.658   0.986   2.491 -0.2262  0.5039 -0.3669
 9392TIP3    H149591   5.602   1.000   2.568  1.5799 -0.1989  1.1685
 9392TIP3    H249592   5.647   1.065   2.439 -3.0058  0.1694 -0.4282
 9393TIP3   OH249593   4.784   0.027  13.944  0.2618 -0.4700  0.8053
 9393TIP3    H149594   4.875   0.002  13.928 -0.1133 -1.5269  0.2049
 9393TIP3    H249595   4.790   0.107  13.995  1.5403  0.4936 -0.7630
 9394TIP3   OH249596   1.699   0.382  12.832 -0.5564  0.5455 -0.0206
 9394TIP3    H149597   1.755   0.435  12.776  1.2621 -1.7364 -0.5260
 9394TIP3    H249598   1.688   0.300  12.785 -0.6118 -0.7254  2.0625
 9395TIP3   OH249599   1.746   3.907  16.270 -0.3150  0.3410  0.4036
 9395TIP3    H149600   1.660   3.866  16.274 -0.1726 -0.6229 -3.3108
 9395TIP3    H249601   1.807   3.834  16.263 -0.1047  0.5418 -7.2011
 9396TIP3   OH249602   4.266   2.846  17.184 -0.1347  0.3170 -0.0969
 9396TIP3    H149603   4.239   2.797  17.262 -1.5844 -0.0373 -0.7948
 9396TIP3    H249604   4.201   2.823  17.117  0.4429  1.4674 -1.0924
 9397TIP3   OH249605   4.301   5.890  11.930 -0.2196  0.0658 -0.2228
 9397TIP3    H149606   4.208   5.872  11.947 -0.3356 -0.2717 -1.1272
 9397TIP3    H249607   4.303   5.982  11.904 -0.6149 -0.4398 -2.1779
 9398TIP3   OH249608   4.302   1.074   5.200  0.2268  0.1757 -0.4367
 9398TIP3    H149609   4.241   1.002   5.218 -0.0186  0.4021 -0.3565
 9398TIP3    H249610   4.280   1.141   5.265  0.1269  0.5224 -0.8256
 9399TIP3   OH249611   5.864   6.539   5.448 -0.0961 -0.0293 -0.0911
 9399TIP3    H149612   5.776   6.568   5.472 -0.8935 -1.8910 -0.5890
 9399TIP3    H249613   5.894   6.488   5.522 -0.0663 -0.6675 -0.5355
 9400TIP3   OH249614   1.475   5.903   5.233  0.2518  0.0379 -0.6321
 9400TIP3    H149615   1.488   5.815   5.197  2.1755  0.0161 -0.0124
 9400TIP3    H249616   1.492   5.893   5.327  1.1484  1.1630 -0.6459
 9401TIP3   OH249617   0.119   4.108   4.849  0.1351  0.2117 -0.6662
 9401TIP3    H149618   0.205   4.111   4.891 -0.1670 -1.1412  0.0983
 9401TIP3    H249619   0.076   4.032   4.888 -1.7775  1.4069 -0.3387
 9402TIP3   OH249620   2.160   0.218  14.889 -0.1482 -0.6361 -0.2777
 9402TIP3    H149621   2.195   0.212  14.977 -0.0344 -0.2780 -0.2977
 9402TIP3    H249622   2.074   0.174  14.894 -0.2109 -0.4754  0.0464
 9403TIP3   OH249623   1.254   5.675  10.755  0.1586 -0.3260 -0.1620
 9403TIP3    H149624   1.174   5.727  10.766  1.1176  0.8559  1.8189
 9403TIP3    H249625   1.300   5.686  10.838  2.5919 -0.6228 -1.4022
 9404TIP3   OH249626   6.621   6.737   3.280 -0.2297 -0.3914 -0.3470
 9404TIP3    H149627   6.548   6.688   3.242 -0.0166 -0.9287 -0.0843
 9404TIP3    H249628   6.641   6.690   3.361  1.1175 -0.9193 -0.9505
 9405TIP3   OH249629   3.365   5.213  16.478  0.5012  0.2732 -0.2653
 9405TIP3    H149630   3.396   5.123  16.489 -0.5080 -0.1363 -0.5566
 9405TIP3    H249631   3.328   5.215  16.390 -2.7037 -0.0912  0.9320
 9406TIP3   OH249632   1.550   0.663   3.156 -0.0214  0.4216 -0.1649
 9406TIP3    H149633   1.549   0.674   3.061  2.0062  1.8692 -0.0870
 9406TIP3    H249634   1.624   0.715   3.185 -1.4855  1.2516  2.3875
 9407TIP3   OH249635   3.859   2.762   4.377  0.3714 -0.0600  0.5752
 9407TIP3    H149636   3.941   2.746   4.330 -0.4804 -1.2074 -0.6031
 9407TIP3    H249637   3.791   2.755   4.310 -0.6619  1.6912  1.3668
 9408TIP3   OH249638   2.532   2.524   0.724  0.0664 -0.0482  0.6149
 9408TIP3    H149639   2.478   2.516   0.802 -0.4788 -0.7535  0.1760
 9408TIP3    H249640   2.474   2.500   0.651  0.4362  1.0474 -0.0591
 9409TIP3   OH249641   5.246   1.379   5.625  0.5103  0.1343 -0.5541
 9409TIP3    H149642   5.214   1.465   5.597 -1.5675 -0.3568  0.0684
 9409TIP3    H249643   5.262   1.389   5.719 -0.7393 -0.3700 -0.2578
 9410TIP3   OH249644   1.976   2.079   4.870 -0.0207 -0.2299  0.3306
 9410TIP3    H149645   1.932   2.006   4.912  0.6463 -0.4780  0.6154
 9410TIP3    H249646   2.067   2.072   4.898  0.1241  0.5047  0.0809
 9411TIP3   OH249647   2.525   6.424  15.592  0.0012 -0.5943 -0.1735
 9411TIP3    H149648   2.608   6.394  15.555  0.3737  0.4997 -0.2640
 9411TIP3    H249649   2.464   6.425  15.518  0.4433  0.4911 -0.5504
 9412TIP3   OH249650   6.079   4.588  14.182 -0.1889  0.5878  0.4237
 9412TIP3    H149651   6.137   4.516  14.161 -0.5183  0.6248 -0.7096
 9412TIP3    H249652   6.111   4.661  14.129 -1.8478  0.3185 -1.0714
 9413TIP3   OH249653   3.352   5.549   0.880  0.4644 -0.7205  0.6913
 9413TIP3    H149654   3.357   5.517   0.790  1.5151 -0.1803  0.5520
 9413TIP3    H249655   3.402   5.630   0.881 -0.2176 -0.2838  1.5846
 9414TIP3   OH249656   1.565   2.176   1.774  0.4973 -0.2168 -0.2300
 9414TIP3    H149657   1.549   2.153   1.682 -1.0896  1.0513 -0.3315
 9414TIP3    H249658   1.638   2.237   1.771 -0.8110  1.4078 -0.9412
 9415TIP3   OH249659   2.409   3.113   5.312 -0.0824 -0.3530 -0.3748
 9415TIP3    H149660   2.386   3.065   5.391  0.1816  1.7033  1.0246
 9415TIP3    H249661   2.499   3.085   5.292  0.7696  0.8540  1.5078
 9416TIP3   OH249662   3.782   3.646   0.936  0.2103  0.2605  0.0200
 9416TIP3    H149663   3.707   3.675   0.989  0.5752  1.7013 -0.1960
 9416TIP3    H249664   3.791   3.553   0.956 -2.2756 -0.2095 -0.7281
 9417TIP3   OH249665   0.887   6.647  16.234 -0.2334 -0.0604  0.2087
 9417TIP3    H149666   0.824   6.652  16.162 -1.1396  0.4635  1.0016
 9417TIP3    H249667   0.969   6.622  16.193 -1.2143 -1.9693 -0.7229
 9418TIP3   OH249668   4.010   1.926  13.621  0.4269 -0.3195 -0.1791
 9418TIP3    H149669   4.065   1.989  13.574  1.1105 -1.3535 -0.8062
 9418TIP3    H249670   3.925   1.968  13.628  1.3164  1.4157  0.9824
 9419TIP3   OH249671   0.586   1.124  13.331  0.4616  0.0483  0.1071
 9419TIP3    H149672   0.524   1.062  13.369  0.5122  0.1129  0.2980
 9419TIP3    H249673   0.628   1.076  13.260  1.0655 -0.4012  0.7504
 9420TIP3   OH249674   0.985   4.475   3.174 -0.0668 -0.0075  0.0085
 9420TIP3    H149675   0.971   4.520   3.257 -0.5608 -0.2441  0.0569
 9420TIP3    H249676   0.904   4.425   3.160  1.3596 -2.8318  1.1634
 9421TIP3   OH249677   0.091   3.980  10.768 -0.1427  0.0805  0.2858
 9421TIP3    H149678   0.128   3.905  10.721 -1.1557  0.5026 -1.2316
 9421TIP3    H249679   0.162   4.045  10.768  1.1525 -1.1841  2.5793
 9422TIP3   OH249680   4.085   6.349   1.711 -0.8347 -0.6441 -0.0099
 9422TIP3    H149681   3.995   6.359   1.682 -0.3008 -0.0573 -1.5423
 9422TIP3    H249682   4.096   6.416   1.779 -1.5081 -0.6529  0.1115
 9423TIP3   OH249683   4.263   4.291   2.035  0.1976 -0.7656  0.5203
 9423TIP3    H149684   4.177   4.331   2.051 -0.1820 -2.0777  1.9783
 9423TIP3    H249685   4.319   4.326   2.103  0.4585 -0.9724  0.4136
 9424TIP3   OH249686   3.038   5.429  12.118  0.0755  0.3106 -0.0727
 9424TIP3    H149687   3.050   5.413  12.024 -1.1750 -2.5936  0.1835
 9424TIP3    H249688   3.109   5.380  12.159 -1.1375 -0.9243  0.5962
 9425TIP3   OH249689   6.247   4.196   2.114 -0.3035  0.2880  0.0638
 9425TIP3    H149690   6.221   4.279   2.154  0.7508  0.6356  0.0625
 9425TIP3    H249691   6.338   4.184   2.142 -0.5177 -0.9840  0.2541
 9426TIP3   OH249692   1.819   3.804   0.676  0.1924 -0.8119 -0.0614
 9426TIP3    H149693   1.899   3.836   0.717  0.0012  0.0834 -0.3699
 9426TIP3    H249694   1.841   3.796   0.583  0.1217 -1.2175 -0.0461
 9427TIP3   OH249695   5.162   1.198   0.351  0.5790 -0.3431 -0.0568
 9427TIP3    H149696   5.226   1.149   0.300  0.5125 -0.5971  0.1028
 9427TIP3    H249697   5.088   1.210   0.292  1.1342  0.7476 -0.5459
 9428TIP3   OH249698   2.548   0.320   2.523 -0.0988  0.3142  0.2277
 9428TIP3    H149699   2.605   0.392   2.494  0.9122 -0.8175 -0.6629
 9428TIP3    H249700   2.500   0.357   2.597  0.3560  1.9304 -0.2351
 9429TIP3   OH249701   6.346   1.328  15.016  0.0162 -0.1408  0.5120
 9429TIP3    H149702   6.282   1.368  15.075 -0.1676 -0.4050  0.4967
 9429TIP3    H249703   6.369   1.398  14.954  1.2262  0.5588  1.6873
 9430TIP3   OH249704   2.182   3.635  13.883 -0.2876  0.0873  0.0439
 9430TIP3    H149705   2.248   3.592  13.829  0.1081  0.6982  0.0376
 9430TIP3    H249706   2.198   3.602  13.972 -0.8086 -0.7581 -0.1549
 9431TIP3   OH249707   5.496   2.588  14.201 -0.2867  0.1825 -0.3441
 9431TIP3    H149708   5.467   2.503  14.236 -1.0691  0.9726  1.0078
 9431TIP3    H249709   5.435   2.651  14.239  0.0826  1.3227 -1.5997
 9432TIP3   OH249710   0.823   5.685   5.535 -0.4489  0.0972  0.0253
 9432TIP3    H149711   0.863   5.668   5.621 -0.4238 -0.2452 -0.0547
 9432TIP3    H249712   0.865   5.766   5.505  0.0100 -0.1294  0.0501
 9433TIP3   OH249713   5.067   1.329   5.908  0.2139 -0.2759 -0.3259
 9433TIP3    H149714   5.144   1.386   5.902 -0.7305  0.8894 -2.0818
 9433TIP3    H249715   5.037   1.339   5.998 -0.0265  2.2098 -0.6258
 9434TIP3   OH249716   1.926   2.315  12.495 -0.1613 -0.0311  0.1328
 9434TIP3    H149717   1.831   2.311  12.488 -0.0655  0.1853 -1.7460
 9434TIP3    H249718   1.948   2.244  12.556 -1.2912 -2.6302 -2.2854
 9435TIP3   OH249719   1.234   3.264  13.530  0.0507 -0.2858 -0.2435
 9435TIP3    H149720   1.273   3.297  13.449  1.5491 -0.3039  0.4358
 9435TIP3    H249721   1.240   3.169  13.523  0.0553 -0.2915 -0.1604
 9436TIP3   OH249722   0.696   4.714   5.455  0.3398  0.1378  0.4154
 9436TIP3    H149723   0.791   4.724   5.453  0.4666 -0.6741  1.4680
 9436TIP3    H249724   0.664   4.789   5.505  0.3073  1.0402 -0.9226
 9437TIP3   OH249725   1.045   4.145  17.050  0.2537 -0.2917 -0.4262
 9437TIP3    H149726   1.000   4.152  16.965  0.2887 -0.0675 -0.4273
 9437TIP3    H249727   0.988   4.090  17.103 -0.3795  0.5687 -0.1957
 9438TIP3   OH249728   0.578   1.353   4.505  0.7155 -0.0403  0.5734
 9438TIP3    H149729   0.560   1.445   4.526 -1.0767  0.2007 -1.6463
 9438TIP3    H249730   0.670   1.352   4.478  0.4965  1.2953 -0.3017
 9439TIP3   OH249731   4.429   3.303   5.089 -0.1290  0.1624 -0.3784
 9439TIP3    H149732   4.506   3.255   5.121  0.1577  0.5092 -0.5380
 9439TIP3    H249733   4.462   3.390   5.069 -0.0596 -0.3157 -2.6199
 9440TIP3   OH249734   0.576   5.906   4.053 -0.0255  0.2202  0.6457
 9440TIP3    H149735   0.619   5.984   4.019 -0.4291 -0.3395 -1.3193
 9440TIP3    H249736   0.644   5.858   4.100  1.0309  0.3033 -0.7319
 9441TIP3   OH249737   1.368   1.136  11.165 -0.1811  0.3350 -0.5496
 9441TIP3    H149738   1.305   1.142  11.093  0.7727 -0.4532 -1.4756
 9441TIP3    H249739   1.425   1.063  11.142 -0.9088 -1.1349  1.8792
 9442TIP3   OH249740   3.611   1.120   5.891 -0.3413  0.1153  0.0245
 9442TIP3    H149741   3.655   1.137   5.974 -1.6751  1.6664  0.4519
 9442TIP3    H249742   3.664   1.052   5.849  1.0319  0.1741  1.5935
 9443TIP3   OH249743   6.361   1.859  12.110  0.9322 -0.4285  0.0383
 9443TIP3    H149744   6.302   1.935  12.110  0.4454 -0.8016 -0.1958
 9443TIP3    H249745   6.388   1.850  12.019 -0.4200 -1.6045 -0.2730
 9444TIP3   OH249746   3.875   5.667  10.649 -0.1700 -0.0410 -0.2420
 9444TIP3    H149747   3.946   5.603  10.660  1.7289  2.0018  0.2934
 9444TIP3    H249748   3.797   5.623  10.682  1.2786 -1.6679  1.1984
 9445TIP3   OH249749   5.352   6.576   5.918 -0.2752 -0.2307  0.9904
 9445TIP3    H149750   5.346   6.495   5.969 -1.2247 -0.5880  0.3412
 9445TIP3    H249751   5.388   6.640   5.979 -0.9262 -0.7675  1.9655
 9446TIP3   OH249752   4.911   5.802   4.786 -0.2029 -0.0672 -0.4434
 9446TIP3    H149753   4.944   5.878   4.835  0.6426 -0.2585 -0.6951
 9446TIP3    H249754   4.851   5.839   4.721 -1.1133  0.2225  0.5243
 9447TIP3   OH249755   5.871   0.945   4.585 -0.2972  0.3636  0.2546
 9447TIP3    H149756   5.928   0.951   4.508 -1.5924  2.0452 -0.6470
 9447TIP3    H249757   5.926   0.972   4.658  1.0096 -1.4175  0.0224
 9448TIP3   OH249758   0.296   2.405  17.275 -0.0744 -0.4495 -0.1899
 9448TIP3    H149759   0.346   2.324  17.287  0.0304 -0.2885  0.4731
 9448TIP3    H249760   0.237   2.409  17.350 -1.1699 -0.6836 -1.0173
 9449TIP3   OH249761   1.537   0.034  13.805  0.4529 -0.0885  0.6971
 9449TIP3    H149762   1.487   0.113  13.825 -1.0172 -0.3565 -1.4941
 9449TIP3    H249763   1.477  -0.039  13.824 -0.0368 -0.4237 -1.7786
 9450TIP3   OH249764   5.593   3.120  13.623  0.3598  0.2651  0.6722
 9450TIP3    H149765   5.503   3.146  13.603  0.0356 -0.7363  0.7582
 9450TIP3    H249766   5.595   3.115  13.719  0.3876 -0.1158  0.6521
 9451TIP3   OH249767   1.502   0.511  17.195 -0.1616  0.4021  0.1106
 9451TIP3    H149768   1.441   0.493  17.266  1.3243  1.2653  1.6578
 9451TIP3    H249769   1.585   0.474  17.224  0.3171  0.0867 -1.5312
 9452TIP3   OH249770   5.607   1.002   3.814  0.0539  0.3540  0.0409
 9452TIP3    H149771   5.580   1.091   3.791 -0.5074  0.1294 -0.2024
 9452TIP3    H249772   5.629   1.007   3.907  1.1858  1.0038 -0.2401
 9453TIP3   OH249773   3.520   2.717   5.674  0.1152 -0.1251  0.1873
 9453TIP3    H149774   3.457   2.782   5.644  0.6763 -0.1944 -1.2515
 9453TIP3    H249775   3.484   2.684   5.756 -0.6048  1.3708  0.5021
 9454TIP3   OH249776   4.734   5.641   3.399  0.3696  0.4422  0.5472
 9454TIP3    H149777   4.717   5.595   3.481  1.7782  2.6484  2.1608
 9454TIP3    H249778   4.803   5.589   3.357  1.1639  0.4467  1.8046
 9455TIP3   OH249779   3.442   5.567  13.014  0.8022  0.3649 -0.3978
 9455TIP3    H149780   3.516   5.547  12.956 -0.7583 -0.1839 -2.2686
 9455TIP3    H249781   3.459   5.513  13.092  1.4851 -1.1472 -1.5322
 9456TIP3   OH249782   4.446   5.754   1.101  0.4104 -0.1743 -0.5676
 9456TIP3    H149783   4.512   5.696   1.140 -1.7000 -2.4494 -0.1192
 9456TIP3    H249784   4.372   5.749   1.161 -1.5326 -0.6938 -2.8515
 9457TIP3   OH249785   3.826   6.729  16.261 -0.4732 -0.0574 -0.0235
 9457TIP3    H149786   3.800   6.812  16.302  0.0374 -1.0388  2.4565
 9457TIP3    H249787   3.775   6.663  16.308 -0.6674 -1.2071 -1.7775
 9458TIP3   OH249788   2.748   5.180   2.607  0.1099 -0.2829 -0.2154
 9458TIP3    H149789   2.687   5.215   2.672  0.8233 -1.6913  1.2947
 9458TIP3    H249790   2.810   5.251   2.592  1.6204 -0.7628  2.8984
 9459TIP3   OH249791   6.145   2.753  12.977  0.0775  0.1456 -0.2914
 9459TIP3    H149792   6.203   2.724  13.047  1.9897 -1.4065 -2.3688
 9459TIP3    H249793   6.151   2.849  12.980 -0.2414  0.1464  1.8694
 9460TIP3   OH249794   3.769   2.943   5.400  0.2454  0.5266  0.0228
 9460TIP3    H149795   3.728   2.997   5.468 -1.6524 -0.7367 -0.0473
 9460TIP3    H249796   3.859   2.933   5.429  0.1150  2.0205  1.0832
 9461TIP3   OH249797   6.732   4.762   4.192  0.7302  0.1698 -0.1024
 9461TIP3    H149798   6.650   4.714   4.181 -0.3140  1.8494 -0.0783
 9461TIP3    H249799   6.709   4.852   4.169  3.0646  0.3498 -2.0890
 9462TIP3   OH249800   3.786   4.911  12.801  0.1693 -0.6126  0.3033
 9462TIP3    H149801   3.713   4.898  12.862  0.5730 -0.7409  0.7672
 9462TIP3    H249802   3.811   4.822  12.776  0.5638 -0.6003  0.6320
 9463TIP3   OH249803   3.860   2.449  12.794  0.2120  0.2224  0.3207
 9463TIP3    H149804   3.782   2.412  12.834 -0.1560  0.6359 -0.0036
 9463TIP3    H249805   3.870   2.401  12.712 -0.3107  0.8746 -0.1376
 9464TIP3   OH249806   5.346   2.832   3.655 -0.0650  0.1256  0.5034
 9464TIP3    H149807   5.382   2.747   3.681  1.0687  0.1278 -0.9471
 9464TIP3    H249808   5.339   2.827   3.560 -0.5941  1.4271  0.4587
 9465TIP3   OH249809   3.928   3.863   0.895 -0.3587  0.3478 -0.0623
 9465TIP3    H149810   3.887   3.788   0.938 -0.6533  0.6678  0.2222
 9465TIP3    H249811   3.866   3.889   0.827 -0.1267  0.1619 -0.3503
 9466TIP3   OH249812   5.635   6.577  14.996  0.1633  0.2067 -0.5752
 9466TIP3    H149813   5.702   6.643  15.014 -0.1957  0.6217 -0.7492
 9466TIP3    H249814   5.566   6.624  14.950 -0.2628 -0.2122 -0.3782
 9467TIP3   OH249815   2.919   5.511  15.165  0.1116  0.0176  0.1196
 9467TIP3    H149816   2.975   5.542  15.094  0.1915 -0.2285  0.0710
 9467TIP3    H249817   2.921   5.581  15.230  1.4506 -0.4658  0.6504
 9468TIP3   OH249818   3.253   2.090  14.323 -0.2148  0.2599 -0.4717
 9468TIP3    H149819   3.224   2.123  14.237  0.2916 -1.1312 -1.2170
 9468TIP3    H249820   3.343   2.062  14.309 -0.3244 -0.5552  0.3486
 9469TIP3   OH249821   0.365   5.153   1.641  0.7761 -0.3745  0.4984
 9469TIP3    H149822   0.452   5.193   1.642  1.2274 -1.3318  1.5266
 9469TIP3    H249823   0.309   5.220   1.603  1.8509  0.4803  0.3475
 9470TIP3   OH249824   2.318   5.964  13.975 -0.0622  0.0478  0.3780
 9470TIP3    H149825   2.402   5.918  13.977 -0.7665 -1.3369 -0.7103
 9470TIP3    H249826   2.338   6.048  13.934  1.1018  0.4831  1.7460
 9471TIP3   OH249827   5.775   2.223   1.158  0.5203 -0.2801  0.1353
 9471TIP3    H149828   5.833   2.169   1.104  2.6173  2.0205 -0.1028
 9471TIP3    H249829   5.706   2.252   1.099  1.9127  0.9201 -0.9780
 9472TIP3   OH249830   2.446   2.765  13.424  0.6576  0.2815  0.0583
 9472TIP3    H149831   2.384   2.813  13.480  1.0118  2.0441 -0.9882
 9472TIP3    H249832   2.418   2.785  13.335  0.5316 -1.9085 -0.4532
 9473TIP3   OH249833   4.952   0.883  11.715 -0.2008  0.4573  0.1952
 9473TIP3    H149834   5.018   0.830  11.758 -2.0373  1.4650  4.7854
 9473TIP3    H249835   4.895   0.819  11.671  0.3752 -0.9651  1.4395
 9474TIP3   OH249836   6.737   2.198   1.448 -0.0701 -0.1351  0.7737
 9474TIP3    H149837   6.724   2.289   1.422  0.1373 -0.2375  0.3008
 9474TIP3    H249838   6.830   2.194   1.472 -0.2431 -0.0571  1.4811
 9475TIP3   OH249839   1.735   1.918  12.499 -0.1420 -0.3040 -0.3951
 9475TIP3    H149840   1.753   1.950  12.410  0.7988  2.2606  0.6222
 9475TIP3    H249841   1.821   1.911  12.540 -0.5321 -1.9234  0.2067
 9476TIP3   OH249842   1.160   6.038   3.715 -0.4481 -0.3173  0.3443
 9476TIP3    H149843   1.206   5.967   3.671  1.5997  2.0596 -1.6289
 9476TIP3    H249844   1.186   6.030   3.807  2.3652 -0.3239 -0.3629
 9477TIP3   OH249845   4.594   0.658  11.410  0.0248 -0.2850  0.2268
 9477TIP3    H149846   4.630   0.651  11.322  1.0623 -0.9145  0.6895
 9477TIP3    H249847   4.565   0.749  11.417  0.0480 -0.1948 -0.7079
 9478TIP3   OH249848   5.586   2.744  12.031  0.0195  0.0090 -0.1436
 9478TIP3    H149849   5.492   2.744  12.048 -0.0476 -0.7127 -0.4935
 9478TIP3    H249850   5.623   2.802  12.099 -0.8018  1.3641 -0.8208
 9479TIP3   OH249851   5.293   5.711   0.249  0.8455 -0.4321 -0.0963
 9479TIP3    H149852   5.290   5.661   0.330 -1.6482  1.4739  1.1326
 9479TIP3    H249853   5.272   5.648   0.180 -2.0111 -1.2459  1.3660
 9480TIP3   OH249854   4.141   1.491  11.933  0.1983 -0.3050  0.3750
 9480TIP3    H149855   4.050   1.472  11.911 -0.3756  1.1878  1.2456
 9480TIP3    H249856   4.161   1.569  11.882  0.7930 -0.2905  0.6284
 9481TIP3   OH249857   3.308   6.631   0.463 -0.3224  0.1135  0.1713
 9481TIP3    H149858   3.352   6.681   0.531 -2.1840 -0.9912  2.3318
 9481TIP3    H249859   3.372   6.565   0.435  0.8275  1.2555  0.0287
 9482TIP3   OH249860   6.703   1.606  15.904 -0.2509  0.2843 -0.4958
 9482TIP3    H149861   6.796   1.629  15.904 -0.1637  0.0258  0.9203
 9482TIP3    H249862   6.693   1.549  15.979 -1.6376  0.6348 -0.3921
 9483TIP3   OH249863   1.003   1.823   0.838 -0.2451  0.0684 -0.4661
 9483TIP3    H149864   0.943   1.889   0.805 -0.8820 -0.3235 -0.1068
 9483TIP3    H249865   1.005   1.756   0.769  0.2507  0.3582 -0.7433
 9484TIP3   OH249866   4.774   1.772   1.041  0.1190 -0.2140  0.6902
 9484TIP3    H149867   4.708   1.840   1.025 -0.6720 -0.8956  0.9670
 9484TIP3    H249868   4.744   1.729   1.121 -0.2827 -1.9110 -0.3183
 9485TIP3   OH249869   3.904   0.159  13.086  0.0615  0.6062  0.2418
 9485TIP3    H149870   3.900   0.184  12.994 -0.8895 -0.0792  0.0772
 9485TIP3    H249871   3.997   0.164  13.109  0.1553  2.0180 -0.3978
 9486TIP3   OH249872   3.075   5.721  17.341 -0.0711 -0.0959  0.2498
 9486TIP3    H149873   2.986   5.749  17.321 -0.1087 -0.5300 -0.2216
 9486TIP3    H249874   3.113   5.698  17.255 -0.3681 -2.4242  0.6763
 9487TIP3   OH249875   1.202   2.930   5.379 -0.5433  0.3129 -0.7574
 9487TIP3    H149876   1.280   2.905   5.428  0.3567  2.5006 -0.9478
 9487TIP3    H249877   1.230   2.930   5.288 -1.1082  0.0106 -0.9350
 9488TIP3   OH249878   4.403   1.192   6.042  0.2660 -0.0365  0.1863
 9488TIP3    H149879   4.385   1.267   5.985  2.4454  0.0792 -0.4691
 9488TIP3    H249880   4.329   1.188   6.102  0.0327  2.6137  0.2027
 9489TIP3   OH249881   5.508   3.419   5.560 -0.2923  0.1496 -0.1089
 9489TIP3    H149882   5.495   3.417   5.654 -4.3567  1.2752 -0.4578
 9489TIP3    H249883   5.497   3.328   5.532  3.0603 -0.5948  0.5160
 9490TIP3   OH249884   1.523   4.793   5.362 -0.0947  0.0615  0.0820
 9490TIP3    H149885   1.441   4.829   5.327  0.8608  2.4590  0.0896
 9490TIP3    H249886   1.531   4.832   5.449 -0.1774 -2.2196  1.1869
 9491TIP3   OH249887   5.411   3.554   3.371  0.2843  0.4151 -0.0421
 9491TIP3    H149888   5.369   3.618   3.313  0.7445  1.6565  0.9284
 9491TIP3    H249889   5.454   3.493   3.313 -0.7164  0.6016 -1.0234
 9492TIP3   OH249890   3.397   0.314   2.919  0.6585 -0.0958  0.5010
 9492TIP3    H149891   3.472   0.353   2.875  0.3839 -0.2197 -0.0898
 9492TIP3    H249892   3.389   0.227   2.880 -1.2175  0.7542 -1.2170
 9493TIP3   OH249893   1.819   3.346  17.085  0.9177  0.2418 -0.1331
 9493TIP3    H149894   1.826   3.256  17.054 -0.8633 -1.1028  2.8573
 9493TIP3    H249895   1.905   3.365  17.121  0.6848 -1.2698  1.3735
 9494TIP3   OH249896   5.473   1.334  15.177 -0.3308  0.6635  0.3106
 9494TIP3    H149897   5.455   1.284  15.256  2.0967 -0.6885  0.0890
 9494TIP3    H249898   5.505   1.269  15.114  0.6536  2.1434 -0.7759
 9495TIP3   OH249899   2.953   4.768  14.161  0.2146  0.2658 -0.2064
 9495TIP3    H149900   2.942   4.857  14.196  0.2521  0.6185 -1.0660
 9495TIP3    H249901   3.017   4.777  14.091  0.7879 -0.5798  0.1946
 9496TIP3   OH249902   5.841   1.300  11.041 -0.0337 -0.1289  0.6962
 9496TIP3    H149903   5.915   1.305  11.102  1.2799  2.1252 -0.9289
 9496TIP3    H249904   5.880   1.284  10.956 -1.5611 -0.3054 -0.0158
 9497TIP3   OH249905   2.682   5.219  11.004  0.2656  0.3035  0.5506
 9497TIP3    H149906   2.635   5.289  10.958  0.3899  0.0533  0.0336
 9497TIP3    H249907   2.651   5.225  11.094 -1.2127 -0.2366  0.1147
 9498TIP3   OH249908   6.579   1.134  16.663 -0.6792  0.2485 -0.5747
 9498TIP3    H149909   6.601   1.089  16.745  2.4287  0.4149 -1.2083
 9498TIP3    H249910   6.534   1.213  16.692  1.0491  0.7033  1.1071
 9499TIP3   OH249911   1.932   4.762   0.048  0.0910 -0.3123 -0.3091
 9499TIP3    H149912   1.915   4.744  -0.045  0.2324 -0.5456 -0.2889
 9499TIP3    H249913   1.846   4.785   0.083 -0.1660 -1.3272 -0.2506
 9500TIP3   OH249914   0.446   1.808  13.124  0.4269 -0.1864 -0.1773
 9500TIP3    H149915   0.355   1.782  13.114  0.1787  1.3101 -2.5526
 9500TIP3    H249916   0.492   1.726  13.142 -1.4594 -0.8120  2.5157
 9501TIP3   OH249917   5.468   2.613  15.216  0.8593 -0.4552  0.3987
 9501TIP3    H149918   5.550   2.617  15.265  0.6774  1.1957  0.6345
 9501TIP3    H249919   5.409   2.561  15.271  1.2919 -0.3854  0.9389
 9502TIP3   OH249920   1.380   1.075  11.797  0.6354 -0.1256  0.3154
 9502TIP3    H149921   1.393   1.154  11.849 -1.3575  0.9518 -0.7045
 9502TIP3    H249922   1.461   1.066  11.746  1.1579  0.8515  0.9418
 9503TIP3   OH249923   3.232   2.409  11.349  0.1338  0.1819 -0.4652
 9503TIP3    H149924   3.209   2.462  11.425 -0.5491 -1.0199  0.1934
 9503TIP3    H249925   3.160   2.423  11.288  0.5259  0.8997 -0.7737
 9504TIP3   OH249926   6.433   5.851  13.416 -0.2987  0.5229  0.1337
 9504TIP3    H149927   6.442   5.797  13.495 -3.2421 -0.1972  0.0676
 9504TIP3    H249928   6.373   5.802  13.360 -0.1055  2.1254 -1.5675
 9505TIP3   OH249929   0.514   5.246   3.498  0.1724  0.4667  0.5538
 9505TIP3    H149930   0.519   5.341   3.511  1.5406  0.4641  0.2251
 9505TIP3    H249931   0.507   5.234   3.404 -2.5436  0.2751  0.7102
 9506TIP3   OH249932   1.685   3.048   1.352  0.3020  0.0451  0.2735
 9506TIP3    H149933   1.707   3.140   1.370  2.2527 -0.3775  0.1851
 9506TIP3    H249934   1.645   3.017   1.434 -0.2958  0.9208  0.3338
 9507TIP3   OH249935   6.139   4.828   1.322 -0.1027 -0.4123  0.3584
 9507TIP3    H149936   6.106   4.840   1.233 -0.5415 -1.9559  0.2818
 9507TIP3    H249937   6.221   4.876   1.324  0.4821 -1.2881 -1.2387
 9508TIP3   OH249938   0.347   3.152  10.863  0.2633 -0.4221 -0.9840
 9508TIP3    H149939   0.253   3.151  10.849  0.0311 -1.1865  0.3846
 9508TIP3    H249940   0.382   3.203  10.790 -1.4043  1.8958 -0.2853
 9509TIP3   OH249941   4.500   6.648  14.243  0.3028 -0.2877  0.6294
 9509TIP3    H149942   4.588   6.671  14.272 -0.3718  2.3960  0.8368
 9509TIP3    H249943   4.453   6.731  14.241 -1.6217 -1.3116 -1.6413
 9510TIP3   OH249944   5.952   1.607  17.222 -0.4967 -0.5409 -0.1573
 9510TIP3    H149945   5.924   1.615  17.313  0.7826 -0.9883  0.2960
 9510TIP3    H249946   5.872   1.582  17.175 -0.9877 -1.2011  0.9741
 9511TIP3   OH249947   5.662   5.096   3.356 -0.0442  0.0480  0.0595
 9511TIP3    H149948   5.672   5.001   3.364  0.5314 -0.0392 -1.4124
 9511TIP3    H249949   5.693   5.117   3.267 -0.3757  1.5823  0.2664
 9512TIP3   OH249950   1.964   2.231   2.977 -0.2541 -0.2803 -0.1152
 9512TIP3    H149951   1.881   2.271   2.953 -0.8897 -0.8373  1.0788
 9512TIP3    H249952   1.989   2.275   3.059  0.1833 -0.7233 -0.0038
 9513TIP3   OH249953   2.327   1.597   0.050 -0.5431 -0.0824  0.3826
 9513TIP3    H149954   2.287   1.674   0.011 -1.7994  0.6814  2.9536
 9513TIP3    H249955   2.415   1.624   0.073 -0.7841  0.3940  0.7416
 9514TIP3   OH249956   3.290   4.892   4.300 -0.1664 -0.2478 -0.0364
 9514TIP3    H149957   3.264   4.809   4.340  0.3072 -1.6494 -2.4460
 9514TIP3    H249958   3.211   4.923   4.255 -0.7355  1.3832  1.8983
 9515TIP3   OH249959   6.157   0.210  14.789 -0.3708 -0.1359 -0.3824
 9515TIP3    H149960   6.131   0.120  14.772 -0.3733 -0.5930  1.7983
 9515TIP3    H249961   6.155   0.252  14.703  0.6286 -2.4359 -1.6093
 9516TIP3   OH249962   2.792   1.673   2.835  0.8793  0.2503 -0.2273
 9516TIP3    H149963   2.816   1.678   2.742  2.3502 -0.0764  0.0968
 9516TIP3    H249964   2.802   1.762   2.867 -2.1420  0.9295 -0.8882
 9517TIP3   OH249965   4.689   1.481  12.320 -0.1000  0.1882 -0.0638
 9517TIP3    H149966   4.719   1.440  12.238 -1.6893  0.2139 -0.7088
 9517TIP3    H249967   4.684   1.574  12.299  1.1358  0.4310  0.6314
 9518TIP3   OH249968   1.015   5.584   5.326 -0.3663 -0.4618  0.5258
 9518TIP3    H149969   1.095   5.636   5.320  0.0918 -0.9020  2.1099
 9518TIP3    H249970   0.954   5.640   5.374 -1.3106  0.1581 -1.2984
 9519TIP3   OH249971   5.756   3.613  12.597  0.2558 -0.4541  0.1005
 9519TIP3    H149972   5.788   3.671  12.528 -0.5716  0.3838  0.3980
 9519TIP3    H249973   5.661   3.622  12.594  0.1754  2.2205  3.4349
 9520TIP3   OH249974   2.736   0.151  14.212 -0.2142  0.2234  0.0162
 9520TIP3    H149975   2.762   0.217  14.147  1.7295  0.4859  1.0011
 9520TIP3    H249976   2.811   0.145  14.271 -0.7049 -2.2295  0.4794
 9521TIP3   OH249977   5.678   5.555   2.088 -0.6865  0.1209 -0.6478
 9521TIP3    H149978   5.763   5.541   2.046 -0.7794 -0.9790 -0.5160
 9521TIP3    H249979   5.679   5.646   2.115  0.5650  0.0507 -0.4012
 9522TIP3   OH249980   4.793   2.653  11.106 -0.5972 -0.0258 -0.3721
 9522TIP3    H149981   4.719   2.704  11.136 -1.6618 -1.4004 -0.5649
 9522TIP3    H249982   4.779   2.644  11.011 -1.6488 -2.4841 -0.0431
 9523TIP3   OH249983   6.571   0.490   4.121  0.0130  0.0434 -0.2728
 9523TIP3    H149984   6.570   0.585   4.116 -0.2018  0.0229 -0.6157
 9523TIP3    H249985   6.552   0.471   4.213 -0.1512  0.3262 -0.2478
 9524TIP3   OH249986   1.871   0.652  12.692 -0.4666  0.4979  0.4806
 9524TIP3    H149987   1.925   0.726  12.663 -1.9882  1.3857 -0.1869
 9524TIP3    H249988   1.848   0.674  12.783 -0.4137  0.5474  0.4825
 9525TIP3   OH249989   0.976   3.738  13.946 -0.5219  0.4517  0.4606
 9525TIP3    H149990   0.917   3.801  13.987 -1.7705 -0.2826 -0.1601
 9525TIP3    H249991   0.921   3.691  13.883  1.0203  0.5834 -1.0332
 9526TIP3   OH249992   3.808   1.846   3.755 -0.3263 -0.0684  0.0360
 9526TIP3    H149993   3.764   1.924   3.791 -0.7893  0.0529 -0.7751
 9526TIP3    H249994   3.810   1.861   3.661 -0.3390 -1.0095 -0.1208
 9527TIP3   OH249995   1.228   0.128   2.789  0.4427 -0.2142  0.0719
 9527TIP3    H149996   1.257   0.083   2.869  1.6431  1.1939  0.4816
 9527TIP3    H249997   1.257   0.071   2.718 -0.9014 -1.6340  0.6152
 9528TIP3   OH249998   1.925   4.140  15.748 -0.2008 -0.1221 -0.4622
 9528TIP3    H149999   1.961   4.227  15.728  2.5609 -1.5315 -2.2520
 9528TIP3    H250000   1.866   4.122  15.674  0.5606 -0.4416 -0.9988
 9529TIP3   OH250001   1.544   1.335   5.356  0.3135  0.3735 -0.0396
 9529TIP3    H150002   1.624   1.286   5.373  0.0948  0.2193  0.5707
 9529TIP3    H250003   1.476   1.287   5.403  0.2485  1.7757  1.3602
 9530TIP3   OH250004   1.751   6.214   3.403 -0.1443  0.0322  0.2217
 9530TIP3    H150005   1.741   6.242   3.312 -3.6300  0.4892  0.6173
 9530TIP3    H250006   1.728   6.121   3.403 -0.9828  0.2314  0.7445
 9531TIP3   OH250007   1.957   0.035   5.096 -0.0381  0.4715  0.2438
 9531TIP3    H150008   1.940  -0.059   5.110 -0.0838  0.7530  2.3299
 9531TIP3    H250009   2.052   0.042   5.092 -0.0146  0.4037  0.6572
 9532TIP3   OH250010   1.324   4.417  15.324 -0.4463  0.2180 -0.2185
 9532TIP3    H150011   1.361   4.330  15.333 -1.8352 -0.3187  0.4448
 9532TIP3    H250012   1.390   4.465  15.273  1.0896 -0.7181  0.7964
 9533TIP3   OH250013   4.789   0.187  14.284  0.3082  0.5803 -0.5247
 9533TIP3    H150014   4.767   0.235  14.204 -2.0169 -0.3006 -0.4799
 9533TIP3    H250015   4.735   0.226  14.352 -1.1276 -1.5299 -0.3482
 9534TIP3   OH250016   5.633   0.875  11.629 -0.4173  0.1481  0.4526
 9534TIP3    H150017   5.570   0.902  11.563  0.2637  1.8263  0.4508
 9534TIP3    H250018   5.619   0.780  11.638 -1.5772  0.1549 -0.9406
 9535TIP3   OH250019   3.522   5.561   6.266  0.3126  0.2199  0.0600
 9535TIP3    H150020   3.490   5.562   6.356  1.0997  0.2248  0.3454
 9535TIP3    H250021   3.600   5.506   6.268 -0.2374 -0.6203 -0.8315
 9536TIP3   OH250022   3.964   1.641   4.757  0.0008  0.4899 -0.1539
 9536TIP3    H150023   3.869   1.634   4.758 -0.0264  0.7467 -0.8485
 9536TIP3    H250024   3.982   1.727   4.796 -0.0343  0.3097  0.2651
 9537TIP3   OH250025   0.268   5.740  13.571 -0.0032  0.2140 -0.5086
 9537TIP3    H150026   0.282   5.732  13.665  1.3612  0.3717 -0.6814
 9537TIP3    H250027   0.308   5.824  13.547 -0.7180  0.3862 -1.1633
 9538TIP3   OH250028   4.669   2.426  16.323 -0.1390 -0.0628 -0.8074
 9538TIP3    H150029   4.602   2.490  16.298 -0.1241  0.2559 -0.0708
 9538TIP3    H250030   4.752   2.472  16.311 -0.1060 -0.1061 -0.7446
 9539TIP3   OH250031   4.461   3.374  16.100 -0.8088 -0.1821  0.0830
 9539TIP3    H150032   4.533   3.432  16.076 -0.2713 -1.1999 -0.8170
 9539TIP3    H250033   4.449   3.389  16.194  1.0821 -0.5276  0.4178
 9540TIP3   OH250034   2.919   2.399   3.941 -0.6329  0.5643  0.4813
 9540TIP3    H150035   2.825   2.390   3.926 -0.6477  0.8522  0.3872
 9540TIP3    H250036   2.960   2.368   3.861 -0.6620  0.8120  0.3705
 9541TIP3   OH250037   6.697   0.240   3.441 -0.1720  0.5538  0.2613
 9541TIP3    H150038   6.787   0.261   3.463 -0.0189 -0.0753  0.2511
 9541TIP3    H250039   6.645   0.285   3.508  0.2194 -0.1931  1.0856
 9542TIP3   OH250040   4.964   2.612  15.140 -0.3561 -0.8633 -0.0986
 9542TIP3    H150041   5.016   2.573  15.069  0.9464 -0.4288  0.5760
 9542TIP3    H250042   5.007   2.581  15.220 -0.4213  0.4525  0.4615
 9543TIP3   OH250043   4.606   6.071   2.677 -0.3516  0.5377  0.6462
 9543TIP3    H150044   4.562   6.156   2.679  0.5390  1.0318 -0.0457
 9543TIP3    H250045   4.581   6.033   2.592 -0.0152  0.5064  0.5607
 9544TIP3   OH250046   2.410   1.557   4.420 -0.3104  0.7240 -0.0048
 9544TIP3    H150047   2.498   1.548   4.382 -0.6733 -2.8046 -0.2576
 9544TIP3    H250048   2.351   1.538   4.348 -1.2484  1.0341  0.6704
 9545TIP3   OH250049   0.838   2.606   4.893  0.2444  0.0063 -0.4689
 9545TIP3    H150050   0.862   2.691   4.855  1.3272 -0.4663 -0.8845
 9545TIP3    H250051   0.915   2.551   4.879  0.4467 -0.3914  1.8378
 9546TIP3   OH250052   0.503   1.872  11.186  0.1336 -0.0553 -0.6657
 9546TIP3    H150053   0.497   1.786  11.228  1.7379 -0.3823 -1.0346
 9546TIP3    H250054   0.526   1.852  11.095 -0.4406  0.7447 -0.9934
 9547TIP3   OH250055   5.998   4.618  13.491  0.4336  0.1394  0.5406
 9547TIP3    H150056   5.957   4.535  13.516  0.4608  0.0525  0.3012
 9547TIP3    H250057   6.089   4.595  13.472  0.6668  0.3801  1.3370
 9548TIP3   OH250058   1.204   5.409   0.501  0.0978 -0.1129  0.7871
 9548TIP3    H150059   1.202   5.435   0.409  1.4389  0.3348  0.8514
 9548TIP3    H250060   1.136   5.343   0.509 -0.0533 -0.1480 -0.5232
 9549TIP3   OH250061   4.996   4.259  15.093  0.2254 -0.3018 -0.0592
 9549TIP3    H150062   4.915   4.252  15.143 -0.2909 -0.5390 -0.9133
 9549TIP3    H250063   5.054   4.194  15.133 -0.4299 -1.0042 -0.2284
 9550TIP3   OH250064   1.759   3.713   1.046  0.2903 -0.2760 -0.5051
 9550TIP3    H150065   1.799   3.629   1.066 -0.0877 -0.1057  1.0796
 9550TIP3    H250066   1.832   3.775   1.047  0.3215 -0.3190  0.0844
 9551TIP3   OH250067   1.940   0.804   0.291  0.6182 -0.1959  0.0766
 9551TIP3    H150068   1.973   0.774   0.207  1.0466  1.0690 -0.2315
 9551TIP3    H250069   1.999   0.875   0.316 -0.6720  0.7863  0.4738
 9552TIP3   OH250070   6.105   2.666   5.462  0.4879  0.0568  0.2139
 9552TIP3    H150071   6.040   2.603   5.493  1.2219 -0.2555  1.1806
 9552TIP3    H250072   6.057   2.749   5.457 -0.1356 -0.2912  0.3195
 9553TIP3   OH250073   6.406   5.508  14.093  0.0700  0.0639 -1.1221
 9553TIP3    H150074   6.374   5.418  14.095 -1.2754  0.4996 -1.7844
 9553TIP3    H250075   6.423   5.529  14.185  1.7885 -1.3064 -1.0680
 9554TIP3   OH250076   0.122   5.042  13.799 -0.4773  0.0033  0.4840
 9554TIP3    H150077   0.211   5.017  13.775 -0.6090  0.1011 -0.1124
 9554TIP3    H250078   0.096   4.978  13.865 -0.0204 -0.1201  0.5441
 9555TIP3   OH250079   3.535   3.520   3.502  0.0508  0.2937 -0.2486
 9555TIP3    H150080   3.573   3.521   3.590  0.9721  0.2244 -0.6389
 9555TIP3    H250081   3.491   3.605   3.494  0.3037  0.4604  0.1247
 9556TIP3   OH250082   1.679   3.155  13.342  0.4109 -0.1874 -0.4009
 9556TIP3    H150083   1.768   3.170  13.374  0.4455  0.7919 -0.9024
 9556TIP3    H250084   1.664   3.227  13.280 -0.3929 -0.8743 -1.0179
 9557TIP3   OH250085   5.067   6.551  15.210 -0.7689  0.0921  0.3987
 9557TIP3    H150086   5.074   6.582  15.120 -1.9442 -0.3694  0.1288
 9557TIP3    H250087   5.089   6.458  15.205 -0.9384  0.0419  0.5651
 9558TIP3   OH250088   4.949   3.531   1.139 -0.0454 -0.4978 -0.3397
 9558TIP3    H150089   4.895   3.534   1.218 -0.6629 -1.3884 -0.7083
 9558TIP3    H250090   4.920   3.452   1.094  1.2656 -0.7460 -0.7782
 9559TIP3   OH250091   5.078   0.066  15.566  0.4677  0.1971 -0.1015
 9559TIP3    H150092   5.124   0.036  15.644  1.3128  1.5296 -0.0516
 9559TIP3    H250093   4.986   0.044  15.582  0.5763  0.7479  1.4396
 9560TIP3   OH250094   3.422   2.761  16.728  0.1012 -0.0971 -0.1728
 9560TIP3    H150095   3.509   2.801  16.722  0.4540 -0.1882  2.7986
 9560TIP3    H250096   3.408   2.748  16.822 -1.4874 -3.6963 -0.7462
 9561TIP3   OH250097   5.179   4.989  16.502  0.6647  0.2507 -0.6514
 9561TIP3    H150098   5.195   5.067  16.556 -0.3836  0.2705 -0.3416
 9561TIP3    H250099   5.267   4.958  16.478  1.1339  0.7150  0.3895
 9562TIP3   OH250100   5.932   6.731  16.808 -0.3562 -0.4691  0.1037
 9562TIP3    H150101   5.931   6.635  16.809 -2.8724 -0.4872  0.0397
 9562TIP3    H250102   5.845   6.756  16.777  1.4322  1.8511 -3.7719
 9563TIP3   OH250103   1.655   4.572   2.353 -1.0586  0.3833  0.2259
 9563TIP3    H150104   1.675   4.485   2.318 -0.2133  1.0992 -1.1135
 9563TIP3    H250105   1.646   4.628   2.277 -0.6361  1.6863  1.1016
 9564TIP3   OH250106   0.794   0.619  15.366 -0.3795  0.5979  0.1697
 9564TIP3    H150107   0.749   0.594  15.285  1.3886 -0.2840 -0.6042
 9564TIP3    H250108   0.877   0.657  15.337  0.4332 -0.0310  1.5426
 9565TIP3   OH250109   4.258   6.749  13.902 -0.0768 -0.4223 -0.1444
 9565TIP3    H150110   4.212   6.826  13.867 -0.7351 -0.9038 -0.3580
 9565TIP3    H250111   4.350   6.775  13.903 -0.3585  0.6142  0.4299
 9566TIP3   OH250112   3.020   6.353  15.952 -0.6946 -0.1926  0.3107
 9566TIP3    H150113   2.926   6.358  15.968 -1.0304 -0.1914 -1.3859
 9566TIP3    H250114   3.040   6.432  15.901 -0.0397 -0.7902 -0.3920
 9567TIP3   OH250115   0.625   3.962   5.405 -0.6605  0.0267 -0.0816
 9567TIP3    H150116   0.683   3.945   5.480 -1.8252 -0.4043  0.7575
 9567TIP3    H250117   0.640   4.054   5.384  0.7858 -0.2404 -0.2977
 9568TIP3   OH250118   0.213   1.200   4.725 -0.1573  0.2602  0.5398
 9568TIP3    H150119   0.133   1.149   4.732 -0.6781  1.0963  0.7814
 9568TIP3    H250120   0.283   1.134   4.718 -0.9434 -0.4686 -0.7880
 9569TIP3   OH250121   3.223   4.008   1.550 -0.2163  0.0209 -0.5077
 9569TIP3    H150122   3.313   3.980   1.568 -0.3558  0.3415  0.7938
 9569TIP3    H250123   3.218   4.096   1.587 -1.0127  0.0800 -0.7449
 9570TIP3   OH250124   0.517   5.942   3.466  0.1267  0.2973  0.1920
 9570TIP3    H150125   0.458   5.990   3.524 -0.6165  0.3439 -0.5866
 9570TIP3    H250126   0.593   5.999   3.456 -0.4265  1.0037 -0.1295
 9571TIP3   OH250127   1.540   6.076   2.713  0.0702 -0.3176  0.2909
 9571TIP3    H150128   1.624   6.085   2.669  0.0409 -0.7922  0.1355
 9571TIP3    H250129   1.502   6.164   2.709 -0.0440 -0.3970 -0.8586
 9572TIP3   OH250130   3.763   5.694  11.725  0.1770 -0.6439 -0.3650
 9572TIP3    H150131   3.764   5.616  11.670  0.9790 -1.5479  0.8719
 9572TIP3    H250132   3.851   5.696  11.764 -0.3075  0.0549  0.7291
 9573TIP3   OH250133   4.315   3.313   2.546  0.1152 -0.4013 -0.8827
 9573TIP3    H150134   4.293   3.354   2.463  0.1154  0.2713 -0.5625
 9573TIP3    H250135   4.297   3.220   2.533  0.4306 -0.3555 -1.7368
 9574TIP3   OH250136   5.311   3.081   3.482  0.1159 -0.1796 -0.5566
 9574TIP3    H150137   5.232   3.057   3.531 -0.1653  0.7214 -0.5597
 9574TIP3    H250138   5.382   3.075   3.546 -0.0795 -0.1374 -0.3363
 9575TIP3   OH250139   2.585   1.422  14.300 -0.3508 -0.0954  0.0577
 9575TIP3    H150140   2.574   1.516  14.316 -0.0816  0.0627 -0.6498
 9575TIP3    H250141   2.652   1.395  14.363  0.0083  0.3138 -0.1467
 9576TIP3   OH250142   2.962   0.761   4.078 -0.2572  0.2438  0.0604
 9576TIP3    H150143   2.921   0.677   4.057 -1.2593  0.8322 -0.4368
 9576TIP3    H250144   2.923   0.823   4.016  0.7766  1.0051  0.1322
 9577TIP3   OH250145   3.730   6.135   3.740  0.5628 -0.1609  0.3239
 9577TIP3    H150146   3.797   6.108   3.803  0.5697  0.0847  0.4240
 9577TIP3    H250147   3.650   6.142   3.791  0.4823 -0.3531  0.2244
 9578TIP3   OH250148   1.984   0.249   0.787 -0.4796  0.3109  0.0543
 9578TIP3    H150149   2.050   0.312   0.758 -2.0928  1.9056 -0.3505
 9578TIP3    H250150   2.016   0.218   0.872  0.6669  1.1770 -0.0338
 9579TIP3   OH250151   5.452   5.420   2.119  0.4717  0.3496 -0.0796
 9579TIP3    H150152   5.433   5.365   2.043  0.5849 -0.4499  0.4483
 9579TIP3    H250153   5.539   5.456   2.102  1.6339 -1.8360  0.7516
 9580TIP3   OH250154   0.325   5.254   0.707  0.4561 -0.2781  0.0231
 9580TIP3    H150155   0.231   5.239   0.693  0.3083  0.0304  0.6711
 9580TIP3    H250156   0.331   5.286   0.797  1.1153  0.3142 -0.2236
 9581TIP3   OH250157   3.272   1.311  17.059 -0.6723 -0.0033  0.3196
 9581TIP3    H150158   3.214   1.324  16.983  1.1572 -1.4580 -1.4570
 9581TIP3    H250159   3.319   1.230  17.039  0.7991  0.2314  2.4585
 9582TIP3   OH250160   2.044   5.079  14.320  0.4441 -0.5511  0.4910
 9582TIP3    H150161   2.124   5.132  14.328  1.1471 -1.4402 -0.4805
 9582TIP3    H250162   2.068   4.993  14.354  0.7128 -1.6005 -2.1180
 9583TIP3   OH250163   1.858   1.675  14.660 -0.7143  0.4158  0.0529
 9583TIP3    H150164   1.863   1.594  14.608 -0.8895  2.3405 -3.2359
 9583TIP3    H250165   1.768   1.675  14.694 -0.9959 -0.3826 -0.6275
 9584TIP3   OH250166   3.405   0.534   4.076 -0.1922  0.2180  0.4324
 9584TIP3    H150167   3.416   0.548   4.170  1.0773 -2.2578  0.7271
 9584TIP3    H250168   3.314   0.505   4.067  0.4210 -2.2531  1.3716
 9585TIP3   OH250169   3.979   0.341   2.061  0.0609  0.2674  0.3875
 9585TIP3    H150170   3.908   0.405   2.055 -0.4133 -0.1965  0.9368
 9585TIP3    H250171   4.028   0.351   1.979 -1.1160  0.0434 -0.3686
 9586TIP3   OH250172   5.440   4.946  16.380 -0.7941  0.6466  0.1139
 9586TIP3    H150173   5.492   4.981  16.307 -0.6853  1.8163  0.7344
 9586TIP3    H250174   5.411   4.860  16.349  1.3249  0.0364 -0.3407
 9587TIP3   OH250175   6.314   3.474  12.874 -0.3242 -0.1891 -0.1704
 9587TIP3    H150176   6.227   3.510  12.853  0.7196  2.0182 -1.0286
 9587TIP3    H250177   6.296   3.398  12.929 -2.7725  0.6698  0.3339
 9588TIP3   OH250178   0.126   3.131  13.559  0.6007 -0.2596  0.1577
 9588TIP3    H150179   0.192   3.175  13.505 -0.0495 -0.7464 -1.0543
 9588TIP3    H250180   0.077   3.076  13.498 -1.4771  0.7000  0.8810
 9589TIP3   OH250181   1.572   0.065  16.847  0.0738  0.0845  0.2159
 9589TIP3    H150182   1.636   0.133  16.868  2.7480 -2.4336  1.1301
 9589TIP3    H250183   1.518   0.057  16.925  1.2048 -0.2441  0.9971
 9590TIP3   OH250184   2.670   0.557   3.359 -0.3427 -0.0468  0.3745
 9590TIP3    H150185   2.661   0.478   3.413 -0.3934 -0.8149 -0.7369
 9590TIP3    H250186   2.653   0.629   3.420  2.1046 -0.7154  2.0358
 9591TIP3   OH250187   5.131   5.665   0.527  0.4616 -0.1577 -0.2133
 9591TIP3    H150188   5.114   5.734   0.463  2.5345  0.7534  0.1215
 9591TIP3    H250189   5.080   5.691   0.604  1.4152  1.2313  0.0077
 9592TIP3   OH250190   2.115   5.194  11.097  0.2742 -0.2516  0.1116
 9592TIP3    H150191   2.179   5.224  11.033  0.6109 -2.4847 -0.7132
 9592TIP3    H250192   2.071   5.273  11.127 -0.5972  0.8612 -3.6300
 9593TIP3   OH250193   3.576   6.279  12.384 -0.6408 -0.4978  0.1901
 9593TIP3    H150194   3.484   6.277  12.359 -0.2863 -1.7702 -1.0991
 9593TIP3    H250195   3.576   6.258  12.478 -1.7670  1.3816  0.6549
 9594TIP3   OH250196   4.524   1.318  15.820 -0.6327 -0.4119  0.3235
 9594TIP3    H150197   4.518   1.301  15.726 -1.6893  0.4476  0.2178
 9594TIP3    H250198   4.553   1.235  15.857 -1.4044 -1.1343 -0.6296
 9595TIP3   OH250199   5.801   5.238  11.930  0.1428 -0.7159  0.5410
 9595TIP3    H150200   5.847   5.316  11.959 -0.6523  0.5612 -1.3956
 9595TIP3    H250201   5.863   5.193  11.873  0.7455 -1.7499  1.9814
 9596TIP3   OH250202   4.409   6.412   0.868 -0.3375  0.3875 -0.4359
 9596TIP3    H150203   4.356   6.421   0.947 -0.1371 -0.6050 -0.1707
 9596TIP3    H250204   4.418   6.318   0.855  1.5135  0.5092 -0.3585
 9597TIP3   OH250205   1.300   6.403   3.715  0.7218 -0.7691  0.3627
 9597TIP3    H150206   1.376   6.355   3.746  0.0191 -1.6669  0.7405
 9597TIP3    H250207   1.249   6.420   3.794  2.3438  3.3211  0.8226
 9598TIP3   OH250208   2.064   4.112  14.517  0.1505  0.2058 -0.6730
 9598TIP3    H150209   2.050   4.145  14.605 -0.7068 -1.0915 -0.2822
 9598TIP3    H250210   1.992   4.049  14.504  1.6965 -1.5291 -1.2931
 9599TIP3   OH250211   5.340   0.918   5.858  0.1771  0.1508  0.1422
 9599TIP3    H150212   5.375   1.005   5.878  1.4907 -0.2300 -0.3790
 9599TIP3    H250213   5.415   0.870   5.823 -0.8015 -0.8403 -0.6523
 9600TIP3   OH250214   2.990   3.863  11.928 -0.0557  0.1145 -0.1216
 9600TIP3    H150215   3.065   3.803  11.932  1.1957  1.6684  0.6776
 9600TIP3    H250216   2.995   3.900  11.840 -1.1118 -1.2418 -0.7879
 9601TIP3   OH250217   4.054   5.683  14.283 -0.3598 -0.3453  1.0279
 9601TIP3    H150218   4.115   5.710  14.215 -1.9614 -0.7159 -0.6532
 9601TIP3    H250219   4.109   5.666  14.360  1.3416  1.5890  0.3216
 9602TIP3   OH250220   6.215   4.317  13.677  0.0725  0.1416  0.1832
 9602TIP3    H150221   6.126   4.289  13.655 -0.3075 -0.6008  2.3972
 9602TIP3    H250222   6.234   4.389  13.617 -1.3466 -0.7983 -1.4778
 9603TIP3   OH250223   5.893   3.519   0.314 -0.2508  0.4191  0.4478
 9603TIP3    H150224   5.799   3.523   0.294  0.0369  2.5396 -0.7465
 9603TIP3    H250225   5.909   3.596   0.369  0.4082 -1.2399  2.7538
 9604TIP3   OH250226   4.525   6.686  12.716  0.0921  0.3403  0.1627
 9604TIP3    H150227   4.557   6.634  12.642  1.5072 -0.4874  1.3065
 9604TIP3    H250228   4.555   6.775  12.696 -1.3878  0.5625 -1.2636
 9605TIP3   OH250229   4.019   6.771   0.967 -0.3336  0.2621 -0.3088
 9605TIP3    H150230   4.047   6.841   0.909 -0.6222  1.1523  0.5853
 9605TIP3    H250231   3.991   6.816   1.047 -1.9968 -0.7470 -0.2721
 9606TIP3   OH250232   0.794   0.884   3.949 -0.5417  0.5144  0.5007
 9606TIP3    H150233   0.816   0.974   3.973 -1.4114  0.6783  0.7076
 9606TIP3    H250234   0.820   0.877   3.857  1.3472  0.3577  0.9887
 9607TIP3   OH250235   6.663   4.828  14.641  0.7439 -0.2521 -0.2207
 9607TIP3    H150236   6.600   4.800  14.574 -0.9116 -1.0979  1.5705
 9607TIP3    H250237   6.661   4.923  14.637  0.4144 -0.2805 -1.1288
 9608TIP3   OH250238   4.838   3.213   3.431 -0.4104  0.4062  0.0600
 9608TIP3    H150239   4.906   3.257   3.482  0.5966 -1.4245  0.3453
 9608TIP3    H250240   4.825   3.129   3.474 -2.1518  0.2861 -0.5910
 9609TIP3   OH250241   5.881   1.496   0.483 -0.1687 -0.6798  0.3501
 9609TIP3    H150242   5.925   1.446   0.415  0.5769 -1.7978  1.6126
 9609TIP3    H250243   5.791   1.463   0.483 -0.8763  1.0396 -1.6840
 9610TIP3   OH250244   0.157   0.180  14.364 -0.2410  0.2307  0.0262
 9610TIP3    H150245   0.094   0.169  14.294 -0.4176 -1.4464  0.3963
 9610TIP3    H250246   0.242   0.170  14.322 -0.2051  2.1803 -0.4185
 9611TIP3   OH250247   1.440   1.670   3.466 -0.2717  0.7150  0.3767
 9611TIP3    H150248   1.369   1.715   3.512 -1.7435  1.3761 -2.3042
 9611TIP3    H250249   1.504   1.739   3.447  0.0327  0.5710  0.8678
 9612TIP3   OH250250   5.251   3.963  14.564  0.4000  0.3025 -0.0445
 9612TIP3    H150251   5.204   4.015  14.499  0.0917 -0.0843 -0.1386
 9612TIP3    H250252   5.341   3.996  14.561 -0.1865  2.1443  1.2661
 9613TIP3   OH250253   4.678   5.703  15.072  0.2840  0.4229 -0.4618
 9613TIP3    H150254   4.635   5.664  15.148  1.7414 -2.0804 -0.8340
 9613TIP3    H250255   4.610   5.705  15.004 -0.1185 -0.4342 -0.0934
 9614TIP3   OH250256   1.295   6.636   4.127  0.1489  0.2275  0.0728
 9614TIP3    H150257   1.263   6.726   4.119  1.0392  0.4113 -2.2414
 9614TIP3    H250258   1.330   6.631   4.216  1.2686  2.5930 -0.1629
 9615TIP3   OH250259   3.734   5.717   5.693  0.1249 -0.1510  0.1014
 9615TIP3    H150260   3.735   5.780   5.765  1.1720  0.0758 -0.0909
 9615TIP3    H250261   3.799   5.750   5.631 -0.6655 -0.4201 -0.8923
 9616TIP3   OH250262   5.439   1.386  13.655  0.4259 -0.7175  0.0200
 9616TIP3    H150263   5.526   1.426  13.659  1.0802 -2.1602  2.5664
 9616TIP3    H250264   5.455   1.297  13.623 -0.1765 -0.8236 -0.0033
 9617TIP3   OH250265   6.047   2.801  13.750  0.5866 -0.1596 -0.7605
 9617TIP3    H150266   6.044   2.726  13.691 -0.3709  1.2996 -2.6987
 9617TIP3    H250267   6.040   2.877  13.692  0.1844  1.3898  1.2158
 9618TIP3   OH250268   1.176   5.405   0.953  0.3108  0.6050  0.2426
 9618TIP3    H150269   1.232   5.340   0.909  1.5001  1.6416  0.1800
 9618TIP3    H250270   1.100   5.413   0.895  0.2141 -0.6117  0.1747
 9619TIP3   OH250271   4.980   4.477   5.968 -0.0640 -0.0709 -0.3195
 9619TIP3    H150272   4.969   4.394   6.015 -0.9114  0.0312 -0.3055
 9619TIP3    H250273   4.905   4.479   5.908 -0.4452  0.9948  0.1712
 9620TIP3   OH250274   0.379   1.861  14.316  0.7594  0.0081  0.1868
 9620TIP3    H150275   0.344   1.946  14.291 -0.0664 -0.3232  0.1776
 9620TIP3    H250276   0.336   1.840  14.398 -0.5178 -1.2477 -0.7591
 9621TIP3   OH250277   6.170   4.607   3.801 -0.2213  0.0834  0.3789
 9621TIP3    H150278   6.186   4.519   3.766  0.8166  0.5743 -0.4389
 9621TIP3    H250279   6.236   4.662   3.759 -0.7060  1.2209  1.0546
 9622TIP3   OH250280   2.038   3.782  11.659 -0.0834 -0.1321 -0.7935
 9622TIP3    H150281   1.972   3.818  11.718  0.3784 -0.5755  0.0147
 9622TIP3    H250282   2.117   3.776  11.713  0.3708 -0.4846 -1.4844
 9623TIP3   OH250283   4.338   4.948  12.582 -0.6071 -1.1264  0.2384
 9623TIP3    H150284   4.255   4.901  12.570 -0.0608 -1.8221 -0.9876
 9623TIP3    H250285   4.369   4.963  12.493 -0.2865  0.7305  0.6259
 9624TIP3   OH250286   4.218   2.171  15.639 -0.2229 -0.8629  0.1850
 9624TIP3    H150287   4.174   2.106  15.693 -2.0649  0.4561  0.3673
 9624TIP3    H250288   4.309   2.170  15.669 -0.1467 -3.4239  0.0594
 9625TIP3   OH250289   2.605   6.636   5.483  0.2913 -0.5873  0.1974
 9625TIP3    H150290   2.613   6.628   5.388 -2.1030 -2.2558  0.0688
 9625TIP3    H250291   2.530   6.693   5.496  0.4078 -0.6264  1.0922
 9626TIP3   OH250292   4.145   1.169  11.439 -0.6540 -0.3857 -0.1962
 9626TIP3    H150293   4.096   1.163  11.521 -0.7295 -1.2641 -0.2928
 9626TIP3    H250294   4.081   1.149  11.371 -0.5108 -0.0085 -0.4458
 9627TIP3   OH250295   5.305   2.346  11.469 -0.2992  0.2030  0.1095
 9627TIP3    H150296   5.351   2.280  11.521 -1.9545  0.1087  1.5628
 9627TIP3    H250297   5.319   2.318  11.379  1.9082 -0.1491  0.4973
 9628TIP3   OH250298   3.976   3.653   6.533 -0.0198  0.4431 -0.1096
 9628TIP3    H150299   3.949   3.589   6.467 -0.6556  0.5727  0.0136
 9628TIP3    H250300   3.912   3.642   6.604 -0.2699  1.3539 -0.1787
 9629TIP3   OH250301   3.727   3.217   3.111  0.5165  0.2585  0.0573
 9629TIP3    H150302   3.717   3.275   3.186  0.5145 -1.4148  1.4102
 9629TIP3    H250303   3.637   3.198   3.083  0.4265 -0.7649  0.9855
 9630TIP3   OH250304   1.258   1.064   2.486  0.5250  0.2974  0.3198
 9630TIP3    H150305   1.177   1.021   2.515 -1.2718  4.0424  1.4595
 9630TIP3    H250306   1.250   1.065   2.390  0.0787 -0.8183  0.3220
 9631TIP3   OH250307   1.509   2.645   3.715 -0.0904  0.3247 -0.0456
 9631TIP3    H150308   1.414   2.642   3.726  0.0012  0.1133  0.6974
 9631TIP3    H250309   1.533   2.736   3.729  0.0306  0.0628  1.6667
 9632TIP3   OH250310   4.786   1.935  15.175 -0.8376  0.4567  0.0709
 9632TIP3    H150311   4.785   2.020  15.131 -0.4474  1.1378  1.3300
 9632TIP3    H250312   4.792   1.871  15.104 -1.3517  1.4669 -0.9041
 9633TIP3   OH250313   4.789   0.645  11.862  0.4372  0.3102 -0.1234
 9633TIP3    H150314   4.727   0.717  11.877  0.6900  0.5039  0.0192
 9633TIP3    H250315   4.806   0.647  11.768 -1.1530 -0.9034 -0.4708
 9634TIP3   OH250316   6.032   0.822  14.238  0.2535  0.3034 -0.3715
 9634TIP3    H150317   6.036   0.728  14.258 -2.1939  0.1965 -0.1111
 9634TIP3    H250318   6.004   0.825  14.147 -0.7374  0.7607 -0.0612
 9635TIP3   OH250319   6.590   2.802   1.095  0.0076 -0.0531  0.1726
 9635TIP3    H150320   6.539   2.843   1.025  2.4450  1.0247 -1.1205
 9635TIP3    H250321   6.528   2.791   1.167 -1.3054  4.4224  0.0366
 9636TIP3   OH250322   4.458   4.597   3.253 -0.5014  0.2932 -0.0806
 9636TIP3    H150323   4.363   4.585   3.247 -0.4970  0.4772 -0.5244
 9636TIP3    H250324   4.494   4.510   3.232 -0.5723  0.2153  0.1194
 9637TIP3   OH250325   2.847   5.325   4.690  0.5781 -0.1078 -0.3425
 9637TIP3    H150326   2.934   5.364   4.691 -0.0281  1.3223  0.5997
 9637TIP3    H250327   2.788   5.399   4.672 -0.5703 -0.6909  0.8790
 9638TIP3   OH250328   4.996   5.708  14.112 -0.4338  0.3433  0.0496
 9638TIP3    H150329   5.079   5.756  14.113 -0.5091  0.4897 -0.4445
 9638TIP3    H250330   5.015   5.629  14.061 -0.3838 -0.0220  0.6277
 9639TIP3   OH250331   3.335   4.314  16.771  0.0880 -0.1839 -0.1582
 9639TIP3    H150332   3.406   4.282  16.826  1.8936  2.9493 -0.4293
 9639TIP3    H250333   3.259   4.315  16.828  0.8612 -1.1889  0.9420
 9640TIP3   OH250334   0.823   6.753  15.574 -0.1393 -0.3764 -0.1445
 9640TIP3    H150335   0.776   6.829  15.608 -1.7867 -1.3919 -0.0262
 9640TIP3    H250336   0.838   6.698  15.650  1.4909  0.0125 -0.1472
 9641TIP3   OH250337   0.954   3.852   1.771  0.7202 -0.2465  1.0002
 9641TIP3    H150338   0.874   3.833   1.722  1.1802 -0.4443  0.3039
 9641TIP3    H250339   0.972   3.772   1.820  0.2543 -0.0462  1.5097
 9642TIP3   OH250340   3.047   3.736  15.351 -0.8374  0.3347 -0.8606
 9642TIP3    H150341   3.019   3.807  15.292  0.1383  0.3551 -1.3093
 9642TIP3    H250342   3.134   3.763  15.382 -0.9551 -0.1137 -0.1092
 9643TIP3   OH250343   3.438   4.963   5.938 -0.0615  0.6286 -0.0168
 9643TIP3    H150344   3.509   4.899   5.947 -0.2497  0.5982  1.4286
 9643TIP3    H250345   3.437   4.984   5.845 -0.1895 -1.7015 -0.6115
 9644TIP3   OH250346   1.768   2.486   6.110 -0.3971 -0.8622 -0.4479
 9644TIP3    H150347   1.780   2.466   6.203  0.9216  0.6387 -0.2311
 9644TIP3    H250348   1.728   2.408   6.073 -0.2446 -1.7912  1.2352
 9645TIP3   OH250349   3.905   3.066  13.157 -0.1057 -0.2207  0.2103
 9645TIP3    H150350   3.969   3.005  13.192 -0.2505  0.1992  1.2599
 9645TIP3    H250351   3.835   3.068  13.223 -0.6824  0.1351 -0.3975
 9646TIP3   OH250352   4.727   1.958   2.149  0.1892 -0.2954 -0.6341
 9646TIP3    H150353   4.682   1.955   2.233 -1.0054  0.5511 -1.2140
 9646TIP3    H250354   4.657   1.955   2.084  0.8436  2.0818 -1.5731
 9647TIP3   OH250355   5.135   1.193   1.138 -0.1444 -0.6023  0.0227
 9647TIP3    H150356   5.137   1.099   1.119  0.6954 -0.6307  0.2067
 9647TIP3    H250357   5.057   1.225   1.092  1.4653 -0.7562 -3.0864
 9648TIP3   OH250358   5.226   4.315   1.493 -0.0608  0.4469  0.3609
 9648TIP3    H150359   5.204   4.358   1.575  2.4208  0.7786  0.9443
 9648TIP3    H250360   5.252   4.387   1.435  0.6465  0.0197  0.1409
 9649TIP3   OH250361   5.536   0.765   2.317  0.1657  0.3510 -0.6173
 9649TIP3    H150362   5.581   0.826   2.376 -3.5962  2.5018  0.3549
 9649TIP3    H250363   5.580   0.681   2.331  1.4680  1.4407  2.9029
 9650TIP3   OH250364   0.663   4.292   4.519 -0.1012 -0.4474 -0.6197
 9650TIP3    H150365   0.591   4.341   4.557 -0.3807 -0.6890 -0.8304
 9650TIP3    H250366   0.674   4.216   4.577  1.3432  0.6333  0.5858
 9651TIP3   OH250367   2.387   1.873  11.593 -0.0794 -0.0672 -0.5113
 9651TIP3    H150368   2.378   1.875  11.498  0.8176 -2.7699 -0.7388
 9651TIP3    H250369   2.364   1.783  11.617 -0.2330  0.5428  1.8287
 9652TIP3   OH250370   0.085   4.317   4.056  0.1381 -0.0827 -0.2452
 9652TIP3    H150371   0.093   4.385   4.122 -0.4286  0.3478 -0.6125
 9652TIP3    H250372   0.127   4.240   4.095 -2.0882 -0.4981  1.5366
 9653TIP3   OH250373   0.677   3.155  14.594 -0.9551  0.0618 -0.2230
 9653TIP3    H150374   0.702   3.121  14.680  0.1798  0.4737 -0.3602
 9653TIP3    H250375   0.730   3.234  14.584  1.4835 -1.6816 -2.6330
 9654TIP3   OH250376   2.372   1.357   4.646 -0.0085  0.1657 -0.0839
 9654TIP3    H150377   2.454   1.382   4.689 -0.2058 -0.9223  0.9558
 9654TIP3    H250378   2.360   1.424   4.578  0.4222  1.8150  1.3919
 9655TIP3   OH250379   4.429   1.521   3.856  0.0092 -0.1409  0.3997
 9655TIP3    H150380   4.390   1.514   3.943  1.4673 -1.7604  0.9761
 9655TIP3    H250381   4.455   1.613   3.849  1.9130 -0.3990  2.6581
 9656TIP3   OH250382   6.060   3.996   1.662  0.6725 -0.0894 -0.5555
 9656TIP3    H150383   5.995   3.947   1.712  1.3904  1.0106  1.5663
 9656TIP3    H250384   6.137   3.999   1.718  1.7888  0.5944 -2.0449
 9657TIP3   OH250385   4.038   0.848  12.406 -0.3974 -0.4594 -0.2341
 9657TIP3    H150386   3.974   0.814  12.470 -1.0497 -2.1267 -1.7024
 9657TIP3    H250387   4.005   0.936  12.384 -0.8359 -0.3510  0.7878
 9658TIP3   OH250388   4.059   5.181   0.337 -0.0980 -0.5395  0.1848
 9658TIP3    H150389   4.021   5.133   0.411 -1.2166 -0.6211 -0.4198
 9658TIP3    H250390   4.077   5.268   0.373 -3.6320  0.4914 -0.1713
 9659TIP3   OH250391   3.413   0.809  13.305 -0.3504  0.2571 -0.1498
 9659TIP3    H150392   3.461   0.768  13.233 -2.0326 -0.8865 -0.6797
 9659TIP3    H250393   3.355   0.740  13.337 -0.7978  1.2413  1.2290
 9660TIP3   OH250394   6.512   1.499   5.848  0.2781 -0.3064  0.4327
 9660TIP3    H150395   6.582   1.525   5.908 -0.8242 -1.0977  2.1138
 9660TIP3    H250396   6.439   1.557   5.869 -0.3975 -1.1426  0.4309
 9661TIP3   OH250397   1.909   0.126   0.401 -0.1856 -0.5128  0.3640
 9661TIP3    H150398   1.901   0.077   0.320 -2.2257  0.7022 -0.2364
 9661TIP3    H250399   2.003   0.141   0.411  0.0650  0.2811 -2.3977
 9662TIP3   OH250400   2.836   3.611  16.238 -0.4807  0.2225  0.7589
 9662TIP3    H150401   2.794   3.683  16.285  0.4430  0.4727  1.2274
 9662TIP3    H250402   2.904   3.580  16.298  0.1619 -0.0119 -0.0702
 9663TIP3   OH250403   2.982   4.764  15.015  0.0882  0.3204  0.2402
 9663TIP3    H150404   2.991   4.857  15.039 -0.7180  1.2873 -2.7499
 9663TIP3    H250405   2.890   4.744  15.032  0.1694  0.1768  0.5155
 9664TIP3   OH250406   3.509   0.053  12.959 -0.0657 -0.4830  0.2119
 9664TIP3    H150407   3.518   0.025  12.868 -0.6501 -1.5316  0.4634
 9664TIP3    H250408   3.419   0.082  12.967  0.2443  0.5309  0.2299
 9665TIP3   OH250409   4.918   5.820   1.638 -0.6175  0.3247 -0.8108
 9665TIP3    H150410   5.005   5.833   1.675 -0.6888 -0.9685 -0.1169
 9665TIP3    H250411   4.928   5.746   1.577 -1.1778  0.2797 -0.8572
 9666TIP3   OH250412   5.567   0.861  15.314  0.2527 -0.2586  0.0973
 9666TIP3    H150413   5.651   0.865  15.361 -0.1859 -1.2089  1.0206
 9666TIP3    H250414   5.507   0.821  15.377 -0.8818  0.3376 -0.5795
 9667TIP3   OH250415   5.841   0.972  12.524 -0.4530  0.3357  0.3604
 9667TIP3    H150416   5.771   0.922  12.566 -0.9757  2.0034  1.6090
 9667TIP3    H250417   5.911   0.908  12.508 -0.2848 -0.4702  3.6673
 9668TIP3   OH250418   6.103   3.717   3.509 -0.0254  0.0196  0.7052
 9668TIP3    H150419   6.172   3.703   3.574  1.0910  0.0286 -0.4275
 9668TIP3    H250420   6.083   3.810   3.515  2.4186  0.7733 -1.1178
 9669TIP3   OH250421   0.226   0.679  16.909 -0.3623  0.1373  0.1188
 9669TIP3    H150422   0.313   0.709  16.936 -0.3899  1.1981 -0.8986
 9669TIP3    H250423   0.206   0.730  16.831 -1.4672 -0.8437 -0.2690
 9670TIP3   OH250424   5.292   0.220  13.560 -0.3219 -0.2189  0.3988
 9670TIP3    H150425   5.295   0.126  13.577 -1.1641 -0.6583 -1.5501
 9670TIP3    H250426   5.372   0.254  13.598  1.2787 -2.1600 -1.0060
 9671TIP3   OH250427   0.144   2.307   1.873 -0.4390  0.5025 -0.2598
 9671TIP3    H150428   0.134   2.227   1.926  0.4642  2.0119  2.3812
 9671TIP3    H250429   0.055   2.340   1.862 -0.5679  0.9540  1.7593
 9672TIP3   OH250430   4.964   1.892   0.818  0.2291 -0.0630  0.2450
 9672TIP3    H150431   4.911   1.971   0.820 -0.7516 -0.7056  0.1957
 9672TIP3    H250432   4.921   1.832   0.879  2.5006  0.3640  2.4482
 9673TIP3   OH250433   5.709   5.313   5.143  0.2544 -0.3732 -0.0523
 9673TIP3    H150434   5.707   5.249   5.072  1.7208 -0.8657  0.3079
 9673TIP3    H250435   5.642   5.377   5.120  0.2320 -0.8871 -1.5190
 9674TIP3   OH250436   0.457   3.825  14.499  0.0959 -0.5177 -0.6266
 9674TIP3    H150437   0.506   3.857  14.575 -1.6021 -2.5710  1.5017
 9674TIP3    H250438   0.514   3.758  14.461  0.9846  0.5671 -1.2626
 9675TIP3   OH250439   5.477   2.517  16.735  0.0727  0.5967  0.0717
 9675TIP3    H150440   5.382   2.524  16.728  0.0074 -0.4735 -0.3239
 9675TIP3    H250441   5.501   2.582  16.800 -1.1415 -0.3511  1.5528
 9676TIP3   OH250442   3.993   5.475  16.779  0.8389  0.1423  0.5971
 9676TIP3    H150443   3.914   5.452  16.730  1.1373 -0.5662  0.4337
 9676TIP3    H250444   3.962   5.534  16.848  0.1139 -0.3871  0.7397
 9677TIP3   OH250445   1.373   2.742   1.233 -0.2468  0.7152 -0.7396
 9677TIP3    H150446   1.374   2.647   1.248 -0.0467  1.1742  3.2734
 9677TIP3    H250447   1.465   2.767   1.229 -0.1524  0.9895  1.4873
 9678TIP3   OH250448   2.843   5.850   3.298  0.2453 -0.1008 -0.1827
 9678TIP3    H150449   2.820   5.861   3.206 -0.7387  1.9454  0.2492
 9678TIP3    H250450   2.798   5.769   3.324  0.0515 -0.3878 -1.3447
 9679TIP3   OH250451   6.038   4.227   0.035  0.1726  0.1889  0.1349
 9679TIP3    H150452   6.077   4.312   0.012  0.6582 -0.1256 -0.2133
 9679TIP3    H250453   5.980   4.207  -0.039  0.7556 -0.2122 -0.2193
 9680TIP3   OH250454   4.383   6.208  13.499  0.1286  0.0065  0.1865
 9680TIP3    H150455   4.385   6.253  13.584 -0.5977 -0.9352  0.7287
 9680TIP3    H250456   4.364   6.117  13.522 -1.7540  0.0350 -1.1180
 9681TIP3   OH250457   4.644   5.199  14.182  0.5643 -0.0539 -0.3196
 9681TIP3    H150458   4.646   5.105  14.160 -3.1010 -0.0245 -1.5166
 9681TIP3    H250459   4.552   5.216  14.204  1.5792  2.8014  2.3986
 9682TIP3   OH250460   5.693   2.496   1.623 -0.3166 -0.6924  0.6696
 9682TIP3    H150461   5.628   2.451   1.570  0.1429 -0.9824  0.3496
 9682TIP3    H250462   5.727   2.429   1.682 -1.2199 -0.2580  1.7467
 9683TIP3   OH250463   2.647   3.732   1.759 -0.8747  0.3766  0.3570
 9683TIP3    H150464   2.700   3.702   1.685 -1.7477  2.7809 -1.3797
 9683TIP3    H250465   2.571   3.673   1.759  0.3495 -1.2666  1.0396
 9684TIP3   OH250466   2.345   4.877   1.390 -0.0503  0.4290 -0.1073
 9684TIP3    H150467   2.405   4.947   1.414 -0.6532  0.8809  0.1105
 9684TIP3    H250468   2.380   4.799   1.433 -0.3801  0.9592  1.1849
 9685TIP3   OH250469   4.636   1.375  16.686 -0.3907  0.1135 -0.1786
 9685TIP3    H150470   4.650   1.289  16.727 -1.7473  0.1067  0.3193
 9685TIP3    H250471   4.606   1.354  16.597  0.0689  0.0935 -0.3326
 9686TIP3   OH250472   3.829   3.961  11.715  0.4078  0.1614  1.1120
 9686TIP3    H150473   3.830   3.872  11.748 -1.7348  0.5384  2.3902
 9686TIP3    H250474   3.853   4.015  11.791 -1.7252  0.8493  1.3612
 9687TIP3   OH250475   2.420   3.369   5.561  0.0370  0.7440  0.1749
 9687TIP3    H150476   2.395   3.402   5.648 -4.0813 -0.3828 -0.3850
 9687TIP3    H250477   2.449   3.279   5.577 -1.7851  0.1487  0.3620
 9688TIP3   OH250478   4.128   3.519  11.136  0.4217 -0.1106 -0.2368
 9688TIP3    H150479   4.073   3.541  11.211 -0.5345 -3.2706  0.1599
 9688TIP3    H250480   4.218   3.527  11.169  0.1153  1.3151  0.3140
 9689TIP3   OH250481   0.938   1.624   5.739 -0.0669  0.4610  0.7418
 9689TIP3    H150482   0.879   1.700   5.737 -0.9216 -0.1873  0.6102
 9689TIP3    H250483   0.936   1.590   5.650  0.1121  0.1258  0.8653
 9690TIP3   OH250484   6.764   5.175   3.232 -0.4516  0.0981 -0.3409
 9690TIP3    H150485   6.779   5.257   3.186 -0.3583  0.5507  0.4753
 9690TIP3    H250486   6.730   5.201   3.318  2.4473 -0.5271  1.1343
 9691TIP3   OH250487   2.324   6.451   2.711 -0.6887 -0.0091  0.1047
 9691TIP3    H150488   2.231   6.471   2.699 -1.3626 -2.7224  0.1777
 9691TIP3    H250489   2.366   6.487   2.633 -1.7649  1.3094  0.0889
 9692TIP3   OH250490   2.001   1.295   3.032  0.0588 -0.7178  0.7490
 9692TIP3    H150491   1.935   1.253   2.977 -0.3617  0.0742  0.6370
 9692TIP3    H250492   1.952   1.331   3.105  0.0688  1.4656 -0.2382
 9693TIP3   OH250493   4.724   5.180   1.193 -0.4179 -0.4173 -0.0759
 9693TIP3    H150494   4.769   5.111   1.240  0.4172  0.4245  0.3885
 9693TIP3    H250495   4.642   5.139   1.163  0.0629 -1.5923  0.1645
 9694TIP3   OH250496   6.319   6.273   3.383 -0.3999 -0.2195 -0.0129
 9694TIP3    H150497   6.226   6.250   3.377 -0.1401 -1.6935  0.9685
 9694TIP3    H250498   6.329   6.351   3.328 -2.4175  0.6143  0.7355
 9695TIP3   OH250499   4.604   0.827  14.262  0.1702 -0.1336 -0.1568
 9695TIP3    H150500   4.565   0.810  14.176  0.1820 -2.1678  0.2028
 9695TIP3    H250501   4.534   0.866  14.313 -0.5028 -0.9396 -0.4454
 9696TIP3   OH250502   0.422   2.368   2.077 -0.2367  0.7536 -0.0649
 9696TIP3    H150503   0.510   2.332   2.065 -0.0219 -1.0264  4.5550
 9696TIP3    H250504   0.370   2.326   2.009  1.7523 -1.4626 -0.3895
 9697TIP3   OH250505   5.502   6.717   1.867  0.3264  0.1569 -0.3690
 9697TIP3    H150506   5.532   6.808   1.867  0.5601  0.0810 -0.0310
 9697TIP3    H250507   5.477   6.700   1.958  0.3604 -0.1413 -0.4143
 9698TIP3   OH250508   3.518   1.618  14.622  0.5519  0.0520  0.0369
 9698TIP3    H150509   3.595   1.593  14.673  1.3887  1.9845 -0.1604
 9698TIP3    H250510   3.446   1.616  14.685  1.3517  1.2616  1.0561
 9699TIP3   OH250511   5.858   1.336   0.014 -0.1198 -0.4076  0.2502
 9699TIP3    H150512   5.811   1.278   0.074  0.8087 -1.2557  0.1831
 9699TIP3    H250513   5.889   1.408   0.069  1.2182 -1.4648  0.9567
 9700TIP3   OH250514   1.502   2.766  14.873 -0.2284  0.2653 -0.2659
 9700TIP3    H150515   1.472   2.844  14.826  0.3525  1.0935  0.6828
 9700TIP3    H250516   1.583   2.741  14.828 -0.3863  0.2415 -0.5374
 9701TIP3   OH250517   2.028   6.381  15.921  0.4301 -0.2361  0.0393
 9701TIP3    H150518   2.041   6.449  15.855 -0.9400  0.2558  0.2462
 9701TIP3    H250519   1.989   6.308  15.872 -0.2665  0.0032  0.2222
 9702TIP3   OH250520   4.506   6.317  17.124  0.0836 -0.2993  0.0756
 9702TIP3    H150521   4.495   6.232  17.166 -0.8973 -0.2165  0.0024
 9702TIP3    H250522   4.533   6.297  17.034 -0.4996 -0.5520 -0.0486
 9703TIP3   OH250523   1.139   0.349   6.372 -0.2274 -0.0451 -0.9812
 9703TIP3    H150524   1.210   0.284   6.381  0.0589  0.3327 -0.4729
 9703TIP3    H250525   1.165   0.402   6.297 -0.3999 -0.4384 -1.3227
 9704TIP3   OH250526   1.087   5.508   2.351 -0.3751 -0.4643  0.6735
 9704TIP3    H150527   1.145   5.578   2.320 -0.8468 -0.2669  0.2162
 9704TIP3    H250528   1.037   5.549   2.422  0.7566 -0.9380  1.7768
 9705TIP3   OH250529   5.291   1.206   3.526 -0.0626 -0.1270  0.0007
 9705TIP3    H150530   5.311   1.295   3.499  0.1842 -0.5749 -1.3803
 9705TIP3    H250531   5.281   1.157   3.444 -1.8571 -1.0237  0.6847
 9706TIP3   OH250532   5.165   6.390  16.181 -0.5548 -0.5648  0.2486
 9706TIP3    H150533   5.150   6.480  16.153  2.5850  1.2125  3.5150
 9706TIP3    H250534   5.108   6.379  16.257 -0.1446 -0.9878  0.4956
 9707TIP3   OH250535   4.890   6.151   1.563  0.5301  0.1157  0.7217
 9707TIP3    H150536   4.830   6.187   1.498  1.4199  0.0618 -0.1551
 9707TIP3    H250537   4.867   6.058   1.570  1.8303 -0.4048 -1.1822
 9708TIP3   OH250538   5.198   4.848   1.398  0.0411 -0.4103  0.1576
 9708TIP3    H150539   5.264   4.868   1.465  1.0767 -2.3487 -0.2146
 9708TIP3    H250540   5.128   4.804   1.446 -1.0244  1.6291  0.5495
 9709TIP3   OH250541   3.013   1.603   5.058 -0.2019  0.1234  0.2078
 9709TIP3    H150542   3.040   1.687   5.021  0.7117 -0.4526 -0.4558
 9709TIP3    H250543   2.928   1.586   5.018 -0.6030  0.9170  0.6744
 9710TIP3   OH250544   0.377   5.793   5.186  0.3039 -0.1754 -0.1446
 9710TIP3    H150545   0.368   5.875   5.235  0.7909  0.4562 -1.0849
 9710TIP3    H250546   0.455   5.752   5.222  1.0562  0.6166 -0.8345
 9711TIP3   OH250547   1.650   6.218   1.521 -0.4292 -0.4600  0.4592
 9711TIP3    H150548   1.739   6.186   1.536 -0.6516 -0.8338  0.9932
 9711TIP3    H250549   1.662   6.309   1.492  0.1226 -0.5113  0.5183
 9712TIP3   OH250550   5.042   3.554  17.212  0.0325  0.1512  0.8182
 9712TIP3    H150551   4.976   3.558  17.143  2.6168  0.0739 -1.8883
 9712TIP3    H250552   5.075   3.644  17.218  0.5554 -0.0587  1.1805
 9713TIP3   OH250553   4.977   1.814   0.294  0.4678 -0.6726  0.3258
 9713TIP3    H150554   4.992   1.837   0.386  0.3593  0.3803  0.0937
 9713TIP3    H250555   4.883   1.824   0.282  0.5940  0.0377 -0.1133
 9714TIP3   OH250556   0.495   2.088  11.749 -0.7297  0.1718 -0.1223
 9714TIP3    H150557   0.537   2.121  11.829  0.6460 -0.5368 -0.5130
 9714TIP3    H250558   0.541   2.134  11.678  0.9813 -2.1991 -0.6682
 9715TIP3   OH250559   5.189   6.173   5.202  0.1767  0.0889 -0.2526
 9715TIP3    H150560   5.222   6.229   5.272 -0.5337 -0.2947  0.4023
 9715TIP3    H250561   5.136   6.107   5.246  0.4290 -0.6909 -1.0778
 9716TIP3   OH250562   5.987   2.639   3.813  0.5851 -0.0458  0.4590
 9716TIP3    H150563   6.005   2.724   3.773  0.4218 -0.3177 -0.2006
 9716TIP3    H250564   6.020   2.647   3.902  0.3972  0.7749  0.4594
 9717TIP3   OH250565   4.523   1.599   2.265  0.3476  0.4954  0.0388
 9717TIP3    H150566   4.486   1.549   2.338 -2.9560  0.9064 -1.1920
 9717TIP3    H250567   4.448   1.617   2.209  2.5351  1.3925 -2.7817
 9718TIP3   OH250568   6.592   4.416  16.756  0.1740  0.1365 -0.3001
 9718TIP3    H150569   6.576   4.502  16.795  2.1936  0.4687 -0.0669
 9718TIP3    H250570   6.614   4.360  16.830 -1.4510 -0.7023 -0.4166
 9719TIP3   OH250571   0.336   4.439  14.049 -0.0526  0.5443 -0.0348
 9719TIP3    H150572   0.248   4.468  14.073  0.6388  2.2265  0.6230
 9719TIP3    H250573   0.390   4.517  14.056  1.5804 -0.5242 -0.0814
 9720TIP3   OH250574   5.433   6.667  13.649  0.0429 -0.5210  0.3593
 9720TIP3    H150575   5.421   6.714  13.731 -0.6115 -1.1001  0.6118
 9720TIP3    H250576   5.347   6.627  13.632  0.8215 -2.4008  0.6570
 9721TIP3   OH250577   4.212   1.378   3.387 -0.5233 -0.2556  0.1061
 9721TIP3    H150578   4.294   1.416   3.418 -0.3183 -1.0250  0.5409
 9721TIP3    H250579   4.152   1.388   3.460 -1.4832  2.1740 -0.9036
 9722TIP3   OH250580   6.535   3.425   5.696 -0.2062 -0.2435 -0.3828
 9722TIP3    H150581   6.492   3.502   5.734 -0.3679  0.2756 -1.5701
 9722TIP3    H250582   6.471   3.391   5.632  0.2366 -0.8162 -0.5324
 9723TIP3   OH250583   6.294   5.537   1.482 -0.3501 -0.4691  0.1416
 9723TIP3    H150584   6.268   5.461   1.430  1.5070 -2.0672  1.4075
 9723TIP3    H250585   6.389   5.537   1.479 -0.2891  1.1426  1.1246
 9724TIP3   OH250586   4.633   6.428   0.040  0.3997  0.5876 -0.2702
 9724TIP3    H150587   4.541   6.448   0.057  0.4554  0.0200  0.7809
 9724TIP3    H250588   4.635   6.404  -0.053 -0.5605  0.3709 -0.2526
 9725TIP3   OH250589   2.712   5.346   2.291 -0.3088 -0.1830 -0.1173
 9725TIP3    H150590   2.732   5.440   2.289  0.5463 -0.3632 -1.1807
 9725TIP3    H250591   2.726   5.320   2.382  0.7264  0.4745 -0.0701
 9726TIP3   OH250592   0.011   6.403  16.416 -0.3070 -0.3141 -0.3670
 9726TIP3    H150593  -0.069   6.377  16.461 -0.5567  0.1149 -0.5531
 9726TIP3    H250594   0.006   6.358  16.332 -1.4617  1.3944 -1.2963
 9727TIP3   OH250595   3.609   6.248   3.124  0.2980  0.0244 -0.0427
 9727TIP3    H150596   3.686   6.303   3.133 -0.1188  0.3280  2.5025
 9727TIP3    H250597   3.546   6.284   3.187 -1.7060 -0.6070 -1.5637
 9728TIP3   OH250598   2.889   2.657  15.620 -0.5673 -0.2281  0.2893
 9728TIP3    H150599   2.899   2.564  15.639 -3.1262 -0.3577  1.2986
 9728TIP3    H250600   2.795   2.672  15.615 -0.2364  2.2462 -0.2262
 9729TIP3   OH250601   2.013   4.177   2.638  0.4656  0.5980 -0.2345
 9729TIP3    H150602   2.093   4.216   2.675  0.5518  0.2668 -0.0742
 9729TIP3    H250603   2.006   4.092   2.681  0.7479  0.0645 -1.2322
 9730TIP3   OH250604   0.941   0.080  15.902  0.2825 -0.3800 -0.0697
 9730TIP3    H150605   0.881   0.009  15.879  2.8325 -2.3123 -1.2340
 9730TIP3    H250606   0.895   0.160  15.877 -3.2147 -1.4036  2.3611
 9731TIP3   OH250607   1.097   5.815   1.339  0.0694  0.2204  0.3989
 9731TIP3    H150608   1.149   5.843   1.415 -1.0782  1.4611  0.7694
 9731TIP3    H250609   1.145   5.850   1.263 -0.0781  1.1557  0.7226
 9732TIP3   OH250610   5.405   4.280   3.441 -0.3477 -0.2050 -0.0067
 9732TIP3    H150611   5.470   4.222   3.401  0.2652  0.6679 -0.3166
 9732TIP3    H250612   5.367   4.328   3.367 -0.4181  0.2064  0.2920
 9733TIP3   OH250613   5.279   6.470   0.777 -0.8570 -0.2573 -0.8109
 9733TIP3    H150614   5.307   6.523   0.851 -1.8834  0.3679 -0.8553
 9733TIP3    H250615   5.355   6.468   0.719  0.1622 -1.2157  0.4797
 9734TIP3   OH250616   4.150   0.450   1.158 -0.2659 -0.2068 -0.1087
 9734TIP3    H150617   4.106   0.419   1.238 -0.9711  0.2413 -0.3164
 9734TIP3    H250618   4.196   0.529   1.185  0.8817 -0.9748  0.2366
 9735TIP3   OH250619   1.520   6.485   0.746 -0.7376  0.5826 -0.0744
 9735TIP3    H150620   1.530   6.393   0.770 -0.9385  0.2912 -1.0492
 9735TIP3    H250621   1.604   6.509   0.708 -1.0465  0.4630 -0.8593
 9736TIP3   OH250622   6.431   1.525  11.854 -0.2375 -0.3164  0.6706
 9736TIP3    H150623   6.394   1.460  11.913 -1.0555 -0.8486 -0.3843
 9736TIP3    H250624   6.389   1.507  11.770  0.0291  1.1481  0.1961
 9737TIP3   OH250625   3.791   6.024   0.878 -0.0644  0.4247  1.1741
 9737TIP3    H150626   3.821   5.967   0.807 -0.5343  0.5045  0.9097
 9737TIP3    H250627   3.713   6.067   0.843  0.8350  1.9829  0.9954
 9738TIP3   OH250628   2.948   0.243  12.484 -0.1330 -0.1924 -0.2855
 9738TIP3    H150629   2.887   0.212  12.551 -0.3460 -1.3929 -1.0112
 9738TIP3    H250630   2.893   0.259  12.407 -0.0184  1.9565 -0.0013
 9739TIP3   OH250631   5.924   2.261  15.282  0.5777  0.1316 -0.1848
 9739TIP3    H150632   5.967   2.263  15.196 -0.1963 -0.0897 -0.5804
 9739TIP3    H250633   5.832   2.245  15.263  0.2630  0.8638  0.6384
 9740TIP3   OH250634   4.601   4.024  14.553  0.2676  0.0942 -0.0655
 9740TIP3    H150635   4.673   4.063  14.603  0.0707  0.1389  0.1889
 9740TIP3    H250636   4.550   3.977  14.619 -0.3404  0.6634 -0.1323
 9741TIP3   OH250637   2.751   5.555   4.355 -0.8187  0.1088 -0.3590
 9741TIP3    H150638   2.711   5.510   4.280  0.5101 -2.2519  0.2405
 9741TIP3    H250639   2.685   5.550   4.424 -0.5561 -1.4289 -0.1711
 9742TIP3   OH250640   0.906   6.038  12.236 -0.2332  0.2271 -0.4159
 9742TIP3    H150641   0.933   5.965  12.292 -0.1382  0.4778 -0.1334
 9742TIP3    H250642   0.830   6.005  12.188 -1.5465  0.6492  1.2821
 9743TIP3   OH250643   5.904   5.640   5.547  0.5079 -0.4031  0.1562
 9743TIP3    H150644   5.972   5.603   5.604 -0.9750 -0.0294  2.2810
 9743TIP3    H250645   5.898   5.732   5.575  0.2604  0.0104 -1.1814
 9744TIP3   OH250646   1.929   0.888   5.839 -0.0344 -0.2435  0.2312
 9744TIP3    H150647   1.899   0.935   5.761  0.3305 -0.0917  0.1781
 9744TIP3    H250648   2.024   0.897   5.836  0.0058 -0.6141  0.4597
 9745TIP3   OH250649   6.267   5.989  16.613  0.0996 -0.3750  0.1579
 9745TIP3    H150650   6.321   6.030  16.681 -0.3077  0.6777 -0.1367
 9745TIP3    H250651   6.245   6.060  16.554 -0.4786 -1.0679 -0.4776
 9746TIP3   OH250652   1.992   0.325  13.840  0.1764 -0.2419  0.0199
 9746TIP3    H150653   1.962   0.234  13.851 -0.1622 -0.0189  1.0619
 9746TIP3    H250654   2.070   0.331  13.894 -0.3503  0.3361  0.7484
 9747TIP3   OH250655   4.088   6.390  12.272  0.0800  0.0789  0.5559
 9747TIP3    H150656   4.011   6.380  12.328 -1.5008 -0.2024 -1.4995
 9747TIP3    H250657   4.051   6.396  12.183  2.4692 -0.3264 -0.5333
 9748TIP3   OH250658   0.510   0.316  10.734 -0.9161 -0.0573 -0.5957
 9748TIP3    H150659   0.485   0.244  10.677 -0.8525  1.0383 -2.0718
 9748TIP3    H250660   0.597   0.342  10.704 -1.6544  1.7593 -1.2909
 9749TIP3   OH250661   6.350   0.854   3.324  0.1259 -0.7394 -0.2749
 9749TIP3    H150662   6.299   0.774   3.333 -1.0185 -0.2187 -1.8566
 9749TIP3    H250663   6.286   0.925   3.332  0.9743  0.0084  0.1141
 9750TIP3   OH250664   4.941   5.044   5.580 -0.2516 -0.1316  0.3304
 9750TIP3    H150665   4.946   5.124   5.529  0.4076  0.3461  1.1148
 9750TIP3    H250666   4.850   5.037   5.606 -0.1447  0.8970  1.0607
 9751TIP3   OH250667   6.277   5.033  16.808 -0.1892 -0.4446 -0.1305
 9751TIP3    H150668   6.246   4.991  16.728 -0.9793 -0.4902  0.1875
 9751TIP3    H250669   6.372   5.041  16.796 -0.0753 -1.8393 -0.4340
 9752TIP3   OH250670   2.929   1.850   3.190 -0.4072 -0.0485 -0.0758
 9752TIP3    H150671   2.995   1.816   3.130 -1.1345 -1.6537 -0.0091
 9752TIP3    H250672   2.976   1.862   3.273  0.2532  0.8052 -0.5495
 9753TIP3   OH250673   4.921   6.758   3.649  0.0569 -0.5891 -0.0947
 9753TIP3    H150674   4.932   6.668   3.681  0.2571 -0.2683  0.7619
 9753TIP3    H250675   4.833   6.783   3.677  1.0757  0.5299  2.4162
 9754TIP3   OH250676   1.532   4.541   6.353  0.2950  0.8596 -0.5365
 9754TIP3    H150677   1.506   4.614   6.409 -0.8147 -0.0502  0.1944
 9754TIP3    H250678   1.575   4.479   6.412 -0.7393 -0.0390 -0.6826
 9755TIP3   OH250679   1.639   6.189  14.942 -0.5300 -0.3555  0.0326
 9755TIP3    H150680   1.566   6.149  14.896  0.4404  0.7594 -2.7083
 9755TIP3    H250681   1.698   6.116  14.963 -0.4152 -0.8021 -1.7224
 9756TIP3   OH250682   5.447   2.489  13.440 -0.2577 -0.2083  0.4504
 9756TIP3    H150683   5.521   2.536  13.402  2.1163 -1.3910  3.2231
 9756TIP3    H250684   5.455   2.400  13.406  0.9042 -0.8552  2.2890
 9757TIP3   OH250685   2.819   2.610  12.596 -0.1981 -0.2582  0.2267
 9757TIP3    H150686   2.828   2.652  12.682 -1.2785  1.5004 -0.4602
 9757TIP3    H250687   2.760   2.667  12.548 -0.5429 -1.8357 -1.3148
 9758TIP3   OH250688   1.083   4.017   0.875 -0.0635  0.1124 -0.3754
 9758TIP3    H150689   1.024   3.942   0.876  0.3593 -0.2894  2.2416
 9758TIP3    H250690   1.169   3.980   0.856 -0.3635  0.5316 -2.9199
 9759TIP3   OH250691   1.892   6.395   3.536 -0.2160  0.5420 -0.2573
 9759TIP3    H150692   1.843   6.476   3.524  0.1306  0.7148 -0.5086
 9759TIP3    H250693   1.827   6.326   3.522 -1.2884  0.7269  2.8559
 9760TIP3   OH250694   1.720   0.433   0.028 -0.7392  0.5743  0.2864
 9760TIP3    H150695   1.702   0.480   0.110  1.6366  2.1231  0.0195
 9760TIP3    H250696   1.797   0.379   0.047 -1.6230 -0.9496 -0.2824
 9761TIP3   OH250697   4.886   2.203  10.599 -0.1464  0.8422  0.0427
 9761TIP3    H150698   4.824   2.130  10.606 -0.3424  1.1546  2.2803
 9761TIP3    H250699   4.833   2.281  10.616  0.8408  1.0968  2.2319
 9762TIP3   OH250700   4.624   2.527  15.249 -0.2076 -0.1389  0.0579
 9762TIP3    H150701   4.675   2.550  15.172  0.5087 -0.8718  0.3021
 9762TIP3    H250702   4.608   2.610  15.294 -0.8477  0.3266 -1.0008
 9763TIP3   OH250703   0.697   2.682  13.512 -0.3426  0.1258  0.6930
 9763TIP3    H150704   0.755   2.714  13.581  0.5125 -2.5771  1.3689
 9763TIP3    H250705   0.748   2.690  13.431  0.1869 -0.3125  0.9772
 9764TIP3   OH250706   1.953   2.218   1.504  0.4114 -0.0898 -0.6046
 9764TIP3    H150707   1.997   2.206   1.588  0.0337 -0.2830 -0.4325
 9764TIP3    H250708   1.883   2.153   1.504 -1.1643  1.5147 -0.0058
 9765TIP3   OH250709   5.686   0.683   0.612  0.1029  0.2633  0.3207
 9765TIP3    H150710   5.669   0.762   0.559  0.4112 -0.7586 -1.3775
 9765TIP3    H250711   5.779   0.687   0.632  0.4983 -0.4945 -1.2356
 9766TIP3   OH250712   6.309   1.050   5.689 -0.5041  0.1011 -0.0255
 9766TIP3    H150713   6.318   1.032   5.782 -0.5121 -0.5882 -0.1466
 9766TIP3    H250714   6.255   1.128   5.684 -0.2492  0.3188  0.5514
 9767TIP3   OH250715   0.382   5.202   5.220 -0.1480  0.8943  1.0159
 9767TIP3    H150716   0.389   5.235   5.130 -1.8594  1.4330  1.0421
 9767TIP3    H250717   0.456   5.143   5.230 -0.4549  0.0896 -1.0786
 9768TIP3   OH250718   1.209   6.267   6.574  0.0669  0.1293  0.0045
 9768TIP3    H150719   1.246   6.286   6.660 -0.0255  0.2506  0.0174
 9768TIP3    H250720   1.165   6.183   6.585 -1.2143  0.8386  0.4717
 9769TIP3   OH250721   0.974   4.058  14.909 -0.0672  0.1500 -0.1721
 9769TIP3    H150722   1.066   4.071  14.889  0.3367 -1.9011  0.1544
 9769TIP3    H250723   0.935   4.030  14.827  0.0741 -1.1270  0.1843
 9770TIP3   OH250724   5.045   2.764  13.571  0.5946  1.0559 -0.0472
 9770TIP3    H150725   5.009   2.699  13.510 -2.1822  1.9573  0.4748
 9770TIP3    H250726   5.127   2.726  13.601 -0.2555 -1.5893 -0.7885
 9771TIP3   OH250727   6.518   5.517   1.997 -0.0924 -0.2195  0.0510
 9771TIP3    H150728   6.483   5.504   1.909  1.2204 -1.4494 -0.3299
 9771TIP3    H250729   6.610   5.542   1.983 -0.4698  2.0111  1.0345
 9772TIP3   OH250730   2.265   5.021  11.760  0.0340 -0.0664 -0.3361
 9772TIP3    H150731   2.209   5.098  11.771  0.0277  0.0738 -1.2030
 9772TIP3    H250732   2.277   4.986  11.848 -2.0922 -0.5881 -0.2089
 9773TIP3   OH250733   4.885   0.119   5.721 -0.4941 -0.2098 -0.0767
 9773TIP3    H150734   4.976   0.093   5.735 -0.1008 -0.3358 -2.4270
 9773TIP3    H250735   4.878   0.206   5.760  1.5624  1.1534 -2.4552
 9774TIP3   OH250736   3.177   5.366  11.088 -0.5705 -0.5832  0.2050
 9774TIP3    H150737   3.195   5.309  11.013 -1.7091 -1.8890  0.8772
 9774TIP3    H250738   3.081   5.373  11.090 -0.4767  0.9532  0.4550
 9775TIP3   OH250739   4.361   3.558  11.529  0.0838 -0.9501 -0.1703
 9775TIP3    H150740   4.342   3.651  11.523 -0.1619 -0.8296  1.7547
 9775TIP3    H250741   4.400   3.535  11.445 -0.4238  0.7443 -0.8986
 9776TIP3   OH250742   3.942   6.215  12.830  0.2881  0.2063 -0.2226
 9776TIP3    H150743   3.935   6.165  12.749 -0.1743  1.1981 -0.8169
 9776TIP3    H250744   3.882   6.171  12.891 -0.0023 -0.0551 -0.6896
 9777TIP3   OH250745   1.145   0.353   2.949  0.7277  0.4786 -0.0757
 9777TIP3    H150746   1.179   0.294   2.882 -1.5357  1.9620 -2.7078
 9777TIP3    H250747   1.181   0.318   3.031  1.9141 -2.7067 -1.7645
 9778TIP3   OH250748   1.791   1.774  11.658 -0.0626  0.2610  0.1827
 9778TIP3    H150749   1.760   1.694  11.701 -1.2208  1.3585  1.4719
 9778TIP3    H250750   1.763   1.765  11.567  1.4149 -1.5850 -0.1560
 9779TIP3   OH250751   6.346   2.415   3.775 -0.2726  0.0891  0.5508
 9779TIP3    H150752   6.389   2.340   3.735  0.1531  1.2634 -1.2731
 9779TIP3    H250753   6.322   2.384   3.863 -0.4449 -2.2880 -0.2581
 9780TIP3   OH250754   2.431   3.134   3.537  0.0517 -0.0115  0.1924
 9780TIP3    H150755   2.386   3.165   3.459 -0.0943 -0.8910 -0.0819
 9780TIP3    H250756   2.390   3.050   3.557 -1.0810  0.9279  2.1821
 9781TIP3   OH250757   2.739   1.012   5.795 -0.3031 -0.5661  0.5867
 9781TIP3    H150758   2.702   1.098   5.817 -0.1696 -0.8869  2.1528
 9781TIP3    H250759   2.830   1.031   5.771 -0.7439 -0.0827 -0.7920
 9782TIP3   OH250760   0.734   5.581  16.403 -0.2412  0.7804 -0.2125
 9782TIP3    H150761   0.754   5.546  16.316 -2.2847  1.0748 -0.8658
 9782TIP3    H250762   0.744   5.675  16.395  0.4293  0.7462  0.1430
 9783TIP3   OH250763   2.700   5.582   1.008  0.2781  0.0079  0.0691
 9783TIP3    H150764   2.724   5.674   1.003  0.0237  0.0714  0.0175
 9783TIP3    H250765   2.605   5.581   0.999  0.1770 -0.1840  1.0491
 9784TIP3   OH250766   2.133   3.571  12.139  0.3146 -0.1957  0.0248
 9784TIP3    H150767   2.085   3.602  12.216  2.0313  1.5683  0.4616
 9784TIP3    H250768   2.123   3.476  12.141 -0.4904 -0.1097  1.8646
 9785TIP3   OH250769   5.755   2.930   6.453  0.2578 -0.7245  0.0826
 9785TIP3    H150770   5.690   2.869   6.488 -0.7539  0.1955 -0.1205
 9785TIP3    H250771   5.828   2.875   6.427 -0.1954 -1.7335  0.8663
 9786TIP3   OH250772   5.154   3.277  11.831  0.1357  0.2915 -0.2644
 9786TIP3    H150773   5.236   3.273  11.783  0.5428  0.2903  0.4075
 9786TIP3    H250774   5.087   3.256  11.767  0.8181 -1.5407 -0.4379
 9787TIP3   OH250775   2.877   5.016   0.356 -0.1246  0.2192  0.6149
 9787TIP3    H150776   2.790   5.051   0.339 -0.2309 -0.5358 -0.5097
 9787TIP3    H250777   2.930   5.047   0.282 -0.0542 -1.3707 -0.0437
 9788TIP3   OH250778   0.857   6.331  12.610  0.4691  0.1506 -0.2174
 9788TIP3    H150779   0.773   6.338  12.655  0.2220  0.7627 -0.7501
 9788TIP3    H250780   0.922   6.345  12.678  0.2060 -1.5362  0.4521
 9789TIP3   OH250781   0.330   1.455   1.719 -0.4525  0.1157  0.2588
 9789TIP3    H150782   0.268   1.524   1.694 -0.2430  0.4209  0.5615
 9789TIP3    H250783   0.280   1.401   1.781  0.1761  1.5329  2.1189
 9790TIP3   OH250784   0.075   1.442   5.024 -0.0157  0.1211 -0.4395
 9790TIP3    H150785   0.058   1.507   5.092  0.1785 -0.8377  0.5545
 9790TIP3    H250786   0.139   1.484   4.966  0.2148  0.7609  0.2604
 9791TIP3   OH250787   4.938   1.639   4.165  0.0106 -0.0846 -1.0693
 9791TIP3    H150788   4.929   1.618   4.258  0.2481  1.3929 -0.6888
 9791TIP3    H250789   4.873   1.583   4.121  1.0314 -2.0119 -0.2230
 9792TIP3   OH250790   6.769   1.336  17.300 -0.3333 -0.4624 -0.5247
 9792TIP3    H150791   6.723   1.340  17.384  1.7998  0.4458  0.6495
 9792TIP3    H250792   6.822   1.415  17.297  0.4789 -1.0247 -2.2302
 9793TIP3   OH250793   4.406   0.811  10.949 -0.1964  0.0760 -0.6023
 9793TIP3    H150794   4.420   0.720  10.974 -1.9061  0.6058  3.0891
 9793TIP3    H250795   4.479   0.859  10.989 -1.4190  0.6589  1.0622
 9794TIP3   OH250796   0.260   0.621   2.499  0.1963 -0.2165  0.2131
 9794TIP3    H150797   0.196   0.553   2.518 -0.6317  1.0349  2.1756
 9794TIP3    H250798   0.212   0.688   2.450  0.4200 -0.0237  0.2483
 9795TIP3   OH250799   5.921   1.115   4.795  0.0093 -0.2749  0.1912
 9795TIP3    H150800   5.853   1.123   4.862 -0.2987  0.0119 -0.1532
 9795TIP3    H250801   5.934   1.205   4.764  1.0762 -0.2079  0.7782
 9796TIP3   OH250802   4.324   0.308   1.923 -0.7874 -0.1881  0.0848
 9796TIP3    H150803   4.264   0.365   1.875 -0.8573  0.6788  1.1816
 9796TIP3    H250804   4.346   0.357   2.002  2.6375  0.2775 -0.9855
 9797TIP3   OH250805   1.759   5.217   5.050  0.1747  0.9503  0.4403
 9797TIP3    H150806   1.676   5.184   5.016  1.2830 -1.4224 -0.1385
 9797TIP3    H250807   1.742   5.234   5.142 -1.2917  1.8663  0.0465
 9798TIP3   OH250808   5.484   2.702  17.011  0.4355  0.4708  0.2058
 9798TIP3    H150809   5.513   2.762  16.942 -0.7184  0.9783  0.1511
 9798TIP3    H250810   5.443   2.758  17.076 -1.1662 -0.2847 -0.0982
 9799TIP3   OH250811   3.320   0.901   6.549  0.7228 -0.2781 -0.0704
 9799TIP3    H150812   3.280   0.933   6.468 -0.4726 -0.7682  0.3088
 9799TIP3    H250813   3.268   0.941   6.618  0.2880 -1.6288  0.4246
 9800TIP3   OH250814   3.064   1.286  15.410 -0.1146  0.1309 -0.1875
 9800TIP3    H150815   3.113   1.300  15.329  1.5404 -1.5032  0.4682
 9800TIP3    H250816   3.114   1.334  15.476 -0.4238 -0.0639  0.1882
 9801TIP3   OH250817   3.915   0.267   2.474 -0.3669  0.2589 -0.0660
 9801TIP3    H150818   3.903   0.291   2.566  0.4606  0.6677 -0.0561
 9801TIP3    H250819   3.827   0.269   2.437 -0.6844  0.2761  0.6688
 9802TIP3   OH250820   0.561   2.722   1.965  0.0637 -0.0770  0.3624
 9802TIP3    H150821   0.607   2.803   1.944 -0.7657  0.0198 -1.2852
 9802TIP3    H250822   0.623   2.652   1.945  0.6168  0.1191  1.3411
 9803TIP3   OH250823   0.435   4.261  14.573  0.5922  0.3030 -0.2464
 9803TIP3    H150824   0.381   4.183  14.564 -1.8967  1.8438  0.3432
 9803TIP3    H250825   0.387   4.329  14.526  2.4690  1.5950 -0.4082
 9804TIP3   OH250826   3.535   4.056  13.679 -0.4362 -0.5420  0.4092
 9804TIP3    H150827   3.616   4.106  13.668 -0.6140 -0.2989  0.1997
 9804TIP3    H250828   3.472   4.120  13.713 -0.4065 -0.8434  1.0475
 9805TIP3   OH250829   1.987   5.135  15.846 -0.3926 -0.4764  0.4018
 9805TIP3    H150830   1.980   5.049  15.888  0.5805 -0.6164  0.2913
 9805TIP3    H250831   1.898   5.154  15.815 -1.5262  0.2412  3.6536
 9806TIP3   OH250832   4.298   4.879  16.194  0.6359  0.4373  0.5142
 9806TIP3    H150833   4.222   4.832  16.158  1.2812  0.6753 -1.2363
 9806TIP3    H250834   4.362   4.810  16.212 -0.2257  0.1456  2.7373
 9807TIP3   OH250835   4.058   5.229   0.045  0.2223 -0.2036  0.2088
 9807TIP3    H150836   4.112   5.277  -0.018 -0.8275 -1.1243 -1.4743
 9807TIP3    H250837   4.090   5.257   0.130  0.1374  2.9283 -0.6620
 9808TIP3   OH250838   6.393   5.608  12.541  0.4292  0.1983  0.1493
 9808TIP3    H150839   6.461   5.636  12.602  2.4275 -0.5602 -1.6077
 9808TIP3    H250840   6.384   5.681  12.480  0.1739  0.0123 -0.0342
 9809TIP3   OH250841   5.763   3.371  15.665  0.6281  0.1426  0.2438
 9809TIP3    H150842   5.734   3.382  15.756 -0.0095  0.4529  0.0073
 9809TIP3    H250843   5.688   3.329  15.622  0.9306 -0.0039 -0.1379
 9810TIP3   OH250844   0.695   6.534   0.373  0.0663  0.0384  0.6587
 9810TIP3    H150845   0.768   6.586   0.337  1.7600 -2.3217  0.4197
 9810TIP3    H250846   0.638   6.518   0.298  0.8519 -0.5015  0.1572
 9811TIP3   OH250847   6.070   3.710  15.247 -0.6478  0.0310  0.2904
 9811TIP3    H150848   6.116   3.658  15.182 -1.7733  1.4247 -1.7441
 9811TIP3    H250849   6.047   3.648  15.316  0.1234 -1.6365 -0.8948
 9812TIP3   OH250850   3.800   2.836  10.651 -0.1570  0.4840  0.2395
 9812TIP3    H150851   3.788   2.827  10.745  1.3485  1.2069  0.5452
 9812TIP3    H250852   3.853   2.761  10.626 -1.3721 -0.2425 -0.2391
 9813TIP3   OH250853   2.406   6.409  15.341 -0.1440 -0.2615  0.1089
 9813TIP3    H150854   2.341   6.347  15.308 -1.2049  1.7205 -1.7963
 9813TIP3    H250855   2.475   6.408  15.274  1.0855 -1.1983  1.3421
 9814TIP3   OH250856   2.272   1.008   1.603  0.4227  0.2268  0.1326
 9814TIP3    H150857   2.319   0.993   1.685  0.8266  0.5454 -0.0392
 9814TIP3    H250858   2.269   0.922   1.561  0.8909  0.2138  0.1223
 9815TIP3   OH250859   0.614   5.342   5.421  0.1495 -1.3575 -0.8148
 9815TIP3    H150860   0.685   5.334   5.486 -0.3326  0.2353 -0.0381
 9815TIP3    H250861   0.654   5.316   5.338  2.4018  1.6634 -0.8528
 9816TIP3   OH250862   3.226   0.196  15.802 -0.1460  0.2312 -0.2872
 9816TIP3    H150863   3.304   0.239  15.768 -1.3256  2.1980 -0.6380
 9816TIP3    H250864   3.225   0.215  15.896 -1.3600  2.2242 -0.6548
 9817TIP3   OH250865   5.606   1.497   0.949 -0.3063  0.2222  0.8246
 9817TIP3    H150866   5.537   1.433   0.932 -1.6824  1.5055  1.4111
 9817TIP3    H250867   5.675   1.473   0.887 -1.9308 -0.0994 -0.9680
 9818TIP3   OH250868   3.710   2.371  11.443 -0.0930 -0.3891  0.0426
 9818TIP3    H150869   3.618   2.381  11.418 -0.4262 -1.6424  0.6901
 9818TIP3    H250870   3.707   2.339  11.534  0.9693 -0.7523 -0.0360
 9819TIP3   OH250871   5.964   4.152   5.042 -0.6614  0.8690 -0.6777
 9819TIP3    H150872   5.958   4.216   4.971  0.3232  2.1730  0.3530
 9819TIP3    H250873   5.964   4.205   5.122  2.2461 -0.1900  0.1780
 9820TIP3   OH250874   6.187   6.490   2.170 -0.0731  0.5299  0.1205
 9820TIP3    H150875   6.127   6.563   2.155  1.5609  1.6485 -1.3956
 9820TIP3    H250876   6.238   6.518   2.246  2.3469  2.3629 -1.9806
 9821TIP3   OH250877   6.015   5.460  17.300  0.0991 -0.1859 -0.4157
 9821TIP3    H150878   5.984   5.484  17.213 -0.1423 -1.7813 -0.8017
 9821TIP3    H250879   6.101   5.501  17.308 -0.5758  1.3186 -0.7487
 9822TIP3   OH250880   6.531   1.892  16.918  0.0771 -0.5594 -0.2332
 9822TIP3    H150881   6.609   1.844  16.943  0.3838 -0.1614 -0.4030
 9822TIP3    H250882   6.459   1.831  16.932  0.3363 -0.6672  0.6693
 9823TIP3   OH250883   4.020   3.491   5.481 -0.3336  0.6958 -0.5307
 9823TIP3    H150884   4.065   3.546   5.546  1.2721  0.4986 -1.4331
 9823TIP3    H250885   3.964   3.434   5.533  2.0193 -0.4936  0.8480
 9824TIP3   OH250886   5.092   0.577  13.316  0.6047 -0.2465  0.4015
 9824TIP3    H150887   5.116   0.555  13.226 -1.4153 -4.6703  0.6959
 9824TIP3    H250888   5.160   0.538  13.370  0.6828  0.5344  0.8909
 9825TIP3   OH250889   0.540   3.641   2.900 -0.0000  0.0600 -0.8504
 9825TIP3    H150890   0.495   3.598   2.827  0.7594 -0.3875 -1.0721
 9825TIP3    H250891   0.470   3.668   2.959 -0.6790  0.8220 -1.9494
 9826TIP3   OH250892   3.566   4.046  12.525  0.6920  0.7082 -0.4165
 9826TIP3    H150893   3.622   4.030  12.601  2.6920  0.8064 -1.8117
 9826TIP3    H250894   3.477   4.026  12.556  1.8604 -4.0421  0.6139
 9827TIP3   OH250895   3.367   6.599  14.802 -0.3440  0.0666 -0.2322
 9827TIP3    H150896   3.299   6.661  14.829 -0.2115 -0.3734  1.2143
 9827TIP3    H250897   3.396   6.558  14.884 -1.1726 -2.6677 -1.1659
 9828TIP3   OH250898   0.139   0.956  12.103  0.1492  0.6700  0.1938
 9828TIP3    H150899   0.064   0.952  12.162  0.2041 -2.0128  0.2006
 9828TIP3    H250900   0.163   0.865  12.088  1.4057  1.3197 -2.3831
 9829TIP3   OH250901   3.581   0.278   0.302  0.3063  0.2885 -0.3514
 9829TIP3    H150902   3.510   0.321   0.254  0.4770  0.6222 -0.2999
 9829TIP3    H250903   3.642   0.250   0.234 -0.1040 -0.4399 -0.4437
 9830TIP3   OH250904   6.512   4.077  10.374 -0.2915  0.1056  0.1443
 9830TIP3    H150905   6.607   4.067  10.378 -0.4004 -0.5755  1.3268
 9830TIP3    H250906   6.497   4.167  10.405  0.0160  0.6090 -1.0889
 9831TIP3   OH250907   0.248   3.030  11.960  0.1359  0.4067  0.1663
 9831TIP3    H150908   0.215   3.029  11.870 -0.3378  0.9899  0.3324
 9831TIP3    H250909   0.342   3.014  11.950  0.2221  1.2520 -0.4958
 9832TIP3   OH250910   1.321   6.241   0.194 -0.3602 -0.1606 -0.1532
 9832TIP3    H150911   1.240   6.276   0.231 -1.1915 -1.8428 -0.2785
 9832TIP3    H250912   1.296   6.206   0.108  0.2625 -1.5265  0.1790
 9833TIP3   OH250913   6.681   5.120   1.515 -0.9169 -0.4897  0.0507
 9833TIP3    H150914   6.739   5.159   1.449 -1.0671 -1.0036 -0.3938
 9833TIP3    H250915   6.728   5.130   1.597 -0.5170 -0.2570 -0.2029
 9834TIP3   OH250916   4.563   4.421  15.810  0.2711  0.6147 -0.2022
 9834TIP3    H150917   4.613   4.449  15.886  0.2210  0.5874 -0.1595
 9834TIP3    H250918   4.611   4.345  15.777 -0.5927 -0.3843  0.7572
 9835TIP3   OH250919   4.836   4.816  16.979  0.5070  0.2543  0.1822
 9835TIP3    H150920   4.756   4.785  17.021  0.4363  1.7118  1.1743
 9835TIP3    H250921   4.903   4.751  17.002 -0.2602 -0.7199 -0.2701
 9836TIP3   OH250922   3.948   4.116  16.401  0.2005  0.4558  0.5740
 9836TIP3    H150923   3.940   4.052  16.472  0.8496  1.9783  2.0683
 9836TIP3    H250924   4.028   4.089  16.355 -0.6156 -0.9730 -0.0913
 9837TIP3   OH250925   3.412   3.706   2.383 -0.2112  0.2787 -0.0721
 9837TIP3    H150926   3.481   3.654   2.424 -0.5487  0.1180  0.2881
 9837TIP3    H250927   3.339   3.703   2.444  0.5305  3.1267  1.1298
 9838TIP3   OH250928   2.591   5.431  15.341  0.2283 -0.1632  0.1878
 9838TIP3    H150929   2.518   5.448  15.400 -0.4486 -1.5765 -0.1906
 9838TIP3    H250930   2.641   5.362  15.385  0.7724  0.0946 -0.0202
 9839TIP3   OH250931   1.253   6.260  15.270 -0.7779  0.2778  0.3872
 9839TIP3    H150932   1.328   6.205  15.249 -0.5335  0.4104  0.9102
 9839TIP3    H250933   1.288   6.328  15.328 -1.0577  1.0235 -0.2859
 9840TIP3   OH250934   3.201   3.840   1.354  0.0469  0.0428 -0.1745
 9840TIP3    H150935   3.221   3.883   1.437 -0.2167 -0.4784  0.1706
 9840TIP3    H250936   3.145   3.902   1.307 -0.2651  0.1144  0.2830
 9841TIP3   OH250937   2.863   6.687  14.963  0.4359 -0.7133  0.7348
 9841TIP3    H150938   2.771   6.661  14.957  0.3191 -0.2825  0.6329
 9841TIP3    H250939   2.902   6.659  14.880  0.3160 -0.5726  0.6322
 9842TIP3   OH250940   1.961   2.098   0.721 -0.2470  0.5190  0.1234
 9842TIP3    H150941   2.026   2.163   0.693 -0.5999  0.5341 -0.6951
 9842TIP3    H250942   1.939   2.050   0.641  1.3087 -1.8348  0.9990
 9843TIP3   OH250943   3.361   3.562  15.582  0.2774 -0.0078 -0.1524
 9843TIP3    H150944   3.322   3.513  15.509 -0.5863 -0.2363  0.4421
 9843TIP3    H250945   3.342   3.654  15.561 -2.4409 -0.1713  1.0633
 9844TIP3   OH250946   1.188   2.789  16.620  0.0556 -0.5416  0.8762
 9844TIP3    H150947   1.255   2.841  16.664 -0.0846  1.3943 -1.0082
 9844TIP3    H250948   1.112   2.791  16.679  0.5470  0.1491  1.4900
 9845TIP3   OH250949   2.488   0.913  10.682  0.6527 -0.3808  1.1668
 9845TIP3    H150950   2.400   0.941  10.657  1.1850  1.1735  0.8831
 9845TIP3    H250951   2.477   0.872  10.768 -0.6206 -2.1345  0.2252
 9846TIP3   OH250952   4.245   6.611   5.479 -0.5974 -0.3936 -0.4451
 9846TIP3    H150953   4.300   6.636   5.553 -0.1089 -0.5077 -0.7605
 9846TIP3    H250954   4.202   6.530   5.506 -0.9966 -0.0384 -0.0062
 9847TIP3   OH250955   4.811   1.993   3.189  0.0942  0.3994  0.1391
 9847TIP3    H150956   4.850   1.917   3.146 -1.3775  0.3225 -1.1489
 9847TIP3    H250957   4.886   2.047   3.214  1.2937 -1.9589  2.2022
 9848TIP3   OH250958   3.644   0.508  15.241  0.3960  0.6122  0.5720
 9848TIP3    H150959   3.577   0.575  15.230  1.5125  1.3361 -2.9701
 9848TIP3    H250960   3.641   0.457  15.160  2.6855 -0.7214  1.2243
 9849TIP3   OH250961   0.966   3.291  16.769 -0.0938 -0.2022 -0.0315
 9849TIP3    H150962   1.050   3.333  16.754 -0.1692 -0.4967 -1.3504
 9849TIP3    H250963   0.958   3.286  16.865  1.3420 -0.1053  0.1055
 9850TIP3   OH250964   4.134   5.415  15.920 -0.5440  0.0352 -0.1509
 9850TIP3    H150965   4.197   5.370  15.977 -0.0276  1.2022  0.2459
 9850TIP3    H250966   4.073   5.347  15.893  0.4873 -0.9951  0.0202
 9851TIP3   OH250967   5.641   0.639  14.222 -0.2534  0.0879  0.4613
 9851TIP3    H150968   5.609   0.727  14.201 -2.5398 -0.6137  0.7842
 9851TIP3    H250969   5.610   0.623  14.311  0.9682 -0.7061  0.7650
 9852TIP3   OH250970   3.177   6.755   5.308  0.7234 -0.6195 -0.0467
 9852TIP3    H150971   3.196   6.831   5.362 -0.7516 -1.0099  1.0792
 9852TIP3    H250972   3.252   6.748   5.249  0.5580  2.1121 -0.6856
 9853TIP3   OH250973   2.129   0.055   0.145 -0.1788  0.4766  0.1854
 9853TIP3    H150974   2.168  -0.011   0.087  1.1138 -0.8862  2.4455
 9853TIP3    H250975   2.204   0.107   0.174 -0.7594  0.9307  0.8888
 9854TIP3   OH250976   1.292   3.969  13.887  0.3214 -0.4411  0.9991
 9854TIP3    H150977   1.296   4.061  13.913 -0.1754 -0.6448  1.8476
 9854TIP3    H250978   1.256   3.924  13.964 -2.8466 -0.8514 -0.5553
 9855TIP3   OH250979   4.958   3.169  16.140  0.1037  0.1839 -0.4796
 9855TIP3    H150980   5.028   3.127  16.090  1.7180  1.5100  0.5794
 9855TIP3    H250981   4.989   3.169  16.230 -1.3726  0.6189  0.0560
 9856TIP3   OH250982   6.067   0.724   2.543  0.4826  0.6107  0.3481
 9856TIP3    H150983   6.159   0.752   2.540  0.7518 -0.2399  0.3497
 9856TIP3    H250984   6.020   0.791   2.494  1.2451  0.5246 -0.5355
 9857TIP3   OH250985   2.870   3.798  14.305 -0.3742 -0.1359 -0.3097
 9857TIP3    H150986   2.803   3.865  14.297 -0.0837  0.0951 -0.8663
 9857TIP3    H250987   2.861   3.745  14.226  1.2559  0.9730 -1.3000
 9858TIP3   OH250988   2.828   1.027  12.677  0.3128 -0.3705 -0.0815
 9858TIP3    H150989   2.874   1.086  12.737 -0.1990 -1.6822  1.6796
 9858TIP3    H250990   2.859   0.939  12.701  0.1820 -0.9444 -1.8457
 9859TIP3   OH250991   1.547   6.399   1.221  0.1052 -0.0297  0.3562
 9859TIP3    H150992   1.591   6.337   1.163 -0.0445 -1.0095  1.2508
 9859TIP3    H250993   1.466   6.423   1.175  0.6424  0.3008 -0.4434
 9860TIP3   OH250994   5.842   6.130  15.394 -0.0357 -0.5632 -0.1541
 9860TIP3    H150995   5.862   6.060  15.332 -1.2178 -1.6904  0.6987
 9860TIP3    H250996   5.824   6.206  15.338  2.2254 -0.6220 -1.0519
 9861TIP3   OH250997   4.921   0.515   3.659 -0.2429  0.3637  0.7610
 9861TIP3    H150998   4.922   0.472   3.573  1.0585  0.0610  0.9052
 9861TIP3    H250999   4.834   0.553   3.665 -0.2154  0.7849 -0.9029
 9862TIP3   OH251000   0.255   2.043   2.543  0.3949  0.2273  0.0061
 9862TIP3    H151001   0.347   2.069   2.539  0.7192 -0.2291  2.6308
 9862TIP3    H251002   0.232   2.050   2.636 -1.7625 -1.1943 -0.3382
 9863TIP3   OH251003   0.799   1.624  11.701 -0.3142 -0.3562 -0.7036
 9863TIP3    H151004   0.817   1.665  11.616 -0.5357 -0.2636 -0.7068
 9863TIP3    H251005   0.842   1.539  11.696  0.9376  0.2303 -0.3492
 9864TIP3   OH251006   2.511   0.390  15.768  0.3998  0.2506 -0.2228
 9864TIP3    H151007   2.537   0.361  15.855 -0.5437 -0.9065 -0.3025
 9864TIP3    H251008   2.458   0.468  15.782 -0.4888 -0.4363  0.3149
 9865TIP3   OH251009   2.939   5.486  13.091  0.0976 -0.0470  0.6294
 9865TIP3    H151010   3.012   5.510  13.034  0.1991  0.3626  0.9256
 9865TIP3    H251011   2.872   5.552  13.071 -1.1897 -1.8759 -1.4994
 9866TIP3   OH251012   4.153   5.404  14.247  0.5686  0.5576 -0.0940
 9866TIP3    H151013   4.080   5.378  14.303  0.2176 -0.8226 -1.1435
 9866TIP3    H251014   4.135   5.496  14.226 -0.9822  0.2066 -0.4602
 9867TIP3   OH251015   0.235   2.949  13.850  0.1252 -0.1364  0.3411
 9867TIP3    H151016   0.190   2.890  13.789  0.6623 -0.8682  0.6405
 9867TIP3    H251017   0.240   2.899  13.932  2.0531 -0.3358  0.1345
 9868TIP3   OH251018   5.158   4.157   0.178 -0.8080 -0.2942 -0.4923
 9868TIP3    H151019   5.182   4.249   0.186 -0.0102 -0.6298  1.8122
 9868TIP3    H251020   5.239   4.113   0.154 -0.1587 -0.8066  2.2896
 9869TIP3   OH251021   6.372   3.124  14.610 -0.1632  0.2457  0.4436
 9869TIP3    H151022   6.404   3.101  14.698 -1.1294 -0.9431  0.5233
 9869TIP3    H251023   6.277   3.134  14.622 -0.4197 -0.7592 -0.6029
 9870TIP3   OH251024   4.058   2.754  11.303 -0.2249 -0.0545 -0.3715
 9870TIP3    H151025   4.154   2.761  11.306 -0.1917 -0.6846  0.5739
 9870TIP3    H251026   4.037   2.755  11.210  0.7594 -0.5882 -0.6204
 9871TIP3   OH251027   4.301   5.269   1.888 -0.2946  0.5554 -0.3404
 9871TIP3    H151028   4.258   5.189   1.856  1.8114 -0.7955 -0.0016
 9871TIP3    H251029   4.287   5.333   1.819 -4.3165  0.8672  0.4689
 9872TIP3   OH251030   6.411   0.773   5.900  0.1726 -0.1436 -0.3789
 9872TIP3    H151031   6.393   0.695   5.952 -0.5522  0.0949 -0.2563
 9872TIP3    H251032   6.408   0.845   5.963 -0.4081  0.1147 -0.6921
 9873TIP3   OH251033   1.956   5.054  13.778 -0.0298 -0.5834  0.0105
 9873TIP3    H151034   1.949   4.962  13.751 -0.4185  0.0087 -2.1003
 9873TIP3    H251035   2.030   5.056  13.838  0.4563 -2.1545 -0.4965
 9874TIP3   OH251036   4.697   3.190  16.150 -0.1193  0.2178  0.0203
 9874TIP3    H151037   4.656   3.241  16.080 -1.5115 -1.7453 -0.6768
 9874TIP3    H251038   4.791   3.196  16.131 -0.4279  0.1365 -1.7677
 9875TIP3   OH251039   2.789   1.631  12.402  0.0256 -0.1979 -0.0442
 9875TIP3    H151040   2.831   1.545  12.400  0.9397  0.2460 -0.7724
 9875TIP3    H251041   2.700   1.614  12.371  0.1010 -0.9222  0.1022
 9876TIP3   OH251042   3.738   2.306   3.687 -0.0251  0.2657 -0.4360
 9876TIP3    H151043   3.702   2.238   3.631 -0.0700  1.3124 -1.7363
 9876TIP3    H251044   3.736   2.385   3.633 -0.3537  1.3954  1.1523
 9877TIP3   OH251045   1.501   2.523   5.203  0.0020  0.9335 -0.5820
 9877TIP3    H151046   1.487   2.509   5.297  0.0757 -1.4098 -0.8813
 9877TIP3    H251047   1.443   2.460   5.160 -1.5780  3.3111 -2.2358
 9878TIP3   OH251048   0.452   6.387  15.505  0.4330 -0.4267  0.4157
 9878TIP3    H151049   0.545   6.383  15.529  0.1980 -1.0473  1.2579
 9878TIP3    H251050   0.428   6.479  15.518  0.2657 -0.7555  2.8568
 9879TIP3   OH251051   6.299   6.485   3.188  0.7846 -0.5309  0.2047
 9879TIP3    H151052   6.376   6.500   3.132  0.6066 -1.0426 -0.1840
 9879TIP3    H251053   6.256   6.570   3.192  2.0491  0.0915  1.4601
 9880TIP3   OH251054   4.099   3.362   4.123  0.1608 -0.5698  0.1668
 9880TIP3    H151055   4.137   3.424   4.185  0.8792 -0.6574 -0.1729
 9880TIP3    H251056   4.169   3.299   4.107  1.2653  1.2226 -3.1996
 9881TIP3   OH251057   4.790   2.056  13.689  0.2427  0.8831 -0.7237
 9881TIP3    H151058   4.872   2.061  13.640  1.3082  2.2854  1.0587
 9881TIP3    H251059   4.778   1.962  13.705  1.2316  0.6132 -1.4644
 9882TIP3   OH251060   0.702   0.593   4.365  0.3382 -0.2077  0.0209
 9882TIP3    H151061   0.651   0.647   4.425 -0.0499  1.2875 -1.5945
 9882TIP3    H251062   0.665   0.611   4.278 -0.0721 -3.3589 -0.5891
 9883TIP3   OH251063   5.092   1.125  11.619 -0.3584 -0.5410 -0.0790
 9883TIP3    H151064   5.047   1.047  11.652 -1.9290 -1.5329 -4.0716
 9883TIP3    H251065   5.185   1.100  11.622 -0.5424 -1.2380  1.6317
 9884TIP3   OH251066   0.528   6.110  13.073 -0.2036  0.2018 -0.1396
 9884TIP3    H151067   0.438   6.135  13.093 -0.4777 -0.4716 -0.4866
 9884TIP3    H251068   0.569   6.190  13.040 -0.7238  0.4708 -0.1446
 9885TIP3   OH251069   6.568   1.153   1.733 -0.3027 -0.0606 -0.1729
 9885TIP3    H151070   6.579   1.194   1.818  1.1341 -0.3307 -0.2101
 9885TIP3    H251071   6.603   1.065   1.744  1.0584  0.2985 -1.3652
 9886TIP3   OH251072   3.454   2.904  17.319 -0.2324 -0.7320  0.1157
 9886TIP3    H151073   3.424   2.835  17.378 -1.4502  0.5690  1.1000
 9886TIP3    H251074   3.382   2.967  17.318 -0.0865 -0.5056 -2.4978
 9887TIP3   OH251075   6.014   2.565   0.945 -0.3027  0.2963 -0.4868
 9887TIP3    H151076   6.008   2.661   0.951 -3.1089  0.2204 -0.5262
 9887TIP3    H251077   5.924   2.537   0.924  0.2570 -2.4223  0.3586
 9888TIP3   OH251078   0.084   0.108   3.198 -0.0120 -0.1921  0.1871
 9888TIP3    H151079   0.057   0.198   3.180  0.7519 -0.5383 -3.3682
 9888TIP3    H251080   0.003   0.061   3.215 -0.7110  0.6388 -0.7481
 9889TIP3   OH251081   0.001   0.952  11.541 -0.3355 -0.0164  0.5319
 9889TIP3    H151082  -0.049   0.919  11.616  1.5844 -1.0822  1.4056
 9889TIP3    H251083   0.032   1.038  11.568  0.9215 -0.6803  1.2703
 9890TIP3   OH251084   3.084   1.940   5.740 -0.4286 -0.0644  0.3587
 9890TIP3    H151085   3.164   1.915   5.694 -1.0528 -0.3611 -0.5930
 9890TIP3    H251086   3.038   1.998   5.680 -0.3854  1.0791  1.3791
 9891TIP3   OH251087   5.931   5.576   2.005  0.5369 -0.5349  0.2034
 9891TIP3    H151088   5.926   5.573   1.910  1.3154 -0.9418  0.1645
 9891TIP3    H251089   6.024   5.562   2.024  0.0201 -3.2814  1.1241
 9892TIP3   OH251090   5.955   5.205  16.634 -0.5242  0.4224  0.2265
 9892TIP3    H151091   6.035   5.245  16.600  0.0993 -0.5574  0.5090
 9892TIP3    H251092   5.885   5.245  16.583  0.2307  0.4948 -0.7789
 9893TIP3   OH251093   0.943   6.207   3.587 -0.3832  0.6076  0.4065
 9893TIP3    H151094   0.886   6.139   3.552 -0.0111  0.3965  0.2058
 9893TIP3    H251095   1.025   6.162   3.609 -0.5669  0.7594  1.4544
 9894TIP3   OH251096   1.242   0.201  12.683  0.1052 -0.1627 -0.0249
 9894TIP3    H151097   1.296   0.205  12.762  0.9137  0.1081 -0.5806
 9894TIP3    H251098   1.295   0.243  12.615  0.4404 -2.4430 -1.2896
 9895TIP3   OH251099   1.447   0.955   3.844 -0.0151 -0.0680 -0.2483
 9895TIP3    H151100   1.399   0.882   3.883  0.3554 -1.0614 -1.5629
 9895TIP3    H251101   1.507   0.984   3.913 -1.8199  0.6060  1.1088
 9896TIP3   OH251102   3.761   4.280   0.421  0.4665  0.7611  0.5075
 9896TIP3    H151103   3.712   4.230   0.355 -0.5527  1.5196  0.6660
 9896TIP3    H251104   3.737   4.239   0.504 -0.8913  1.8805  0.7021
 9897TIP3   OH251105   4.966   0.830   4.452 -0.1417  0.4598  0.3393
 9897TIP3    H151106   4.917   0.911   4.465 -1.0076 -0.0290  0.1953
 9897TIP3    H251107   4.970   0.819   4.357 -0.7814 -0.1008  0.3676
 9898TIP3   OH251108   2.306   2.237  14.160  0.0870  0.4008 -0.3670
 9898TIP3    H151109   2.356   2.243  14.078  1.0855 -0.5846  0.1389
 9898TIP3    H251110   2.286   2.328  14.183  1.0450  0.7793 -0.9569
 9899TIP3   OH251111   0.879   6.587  11.560  0.1298 -0.0242  0.2728
 9899TIP3    H151112   0.844   6.581  11.649  1.4911 -0.0243  0.8362
 9899TIP3    H251113   0.974   6.581  11.571  0.4273  1.4149 -1.0469
 9900TIP3   OH251114   3.679   2.234  14.145 -0.6098 -0.0326 -0.5124
 9900TIP3    H151115   3.746   2.282  14.194 -2.7191  1.2433  1.3093
 9900TIP3    H251116   3.637   2.301  14.091 -1.2473 -0.5459 -0.6642
 9901TIP3   OH251117   6.426   0.650   0.110  0.5003 -0.5605  0.4633
 9901TIP3    H151118   6.480   0.572   0.094 -0.6989 -1.5504  1.1099
 9901TIP3    H251119   6.490   0.719   0.130  1.6498 -1.0954 -1.0722
 9902TIP3   OH251120   5.861   5.365  12.983 -0.3146 -0.3540  0.2020
 9902TIP3    H151121   5.806   5.385  12.908 -1.4214 -0.3869  0.9827
 9902TIP3    H251122   5.947   5.345  12.945 -0.7591 -0.0420 -1.0159
 9903TIP3   OH251123   6.425   4.081   1.404  0.1425 -0.0178  0.1107
 9903TIP3    H151124   6.511   4.055   1.372  0.9797  0.2307  2.0896
 9903TIP3    H251125   6.413   4.032   1.485 -1.5368  0.0525 -0.0565
 9904TIP3   OH251126   4.758   4.063   5.242  0.1949  0.4102  0.4799
 9904TIP3    H151127   4.832   4.109   5.281 -0.0114  0.5755  0.6733
 9904TIP3    H251128   4.751   3.982   5.293  2.7155 -1.5480 -1.9474
 9905TIP3   OH251129   1.977   0.527   5.281 -0.0249 -0.1515 -0.1900
 9905TIP3    H151130   1.948   0.560   5.196  0.1394 -0.1265 -0.2360
 9905TIP3    H251131   1.913   0.459   5.303 -0.6495  0.5243  0.1245
 9906TIP3   OH251132   5.457   1.949  12.638  0.0652  0.4459  0.0248
 9906TIP3    H151133   5.408   1.976  12.560 -0.8666 -1.0881  0.0387
 9906TIP3    H251134   5.499   1.866  12.613 -0.1163  0.0132  1.0945
 9907TIP3   OH251135   6.223   5.652  13.377  0.0219  0.4656  0.0119
 9907TIP3    H151136   6.131   5.655  13.405  0.0099  1.8744 -0.0892
 9907TIP3    H251137   6.226   5.585  13.309 -0.9833  0.5638 -0.1444
 9908TIP3   OH251138   0.060   2.371  13.924  0.2871  0.5530 -0.1126
 9908TIP3    H151139   0.114   2.359  14.003  0.1417  0.5415 -0.0146
 9908TIP3    H251140  -0.019   2.319  13.941 -0.6222  2.0978  0.5846
 9909TIP3   OH251141   1.251   3.216   5.388  0.1532 -0.2022  0.5881
 9909TIP3    H151142   1.300   3.289   5.426  1.1540 -1.2307  1.3334
 9909TIP3    H251143   1.311   3.176   5.326  0.3982 -1.6290  1.6879
 9910TIP3   OH251144   6.196   1.655   3.258 -0.1270  0.0891 -0.1048
 9910TIP3    H151145   6.238   1.740   3.244  2.8192 -0.9584  1.5099
 9910TIP3    H251146   6.223   1.602   3.184  0.2866 -0.1941  0.2428
 9911TIP3   OH251147   0.835   1.961  14.626  0.0431 -0.2699 -0.0869
 9911TIP3    H151148   0.902   1.930  14.566 -0.1530 -2.0603  0.5767
 9911TIP3    H251149   0.758   1.974  14.571  0.6813  1.0752 -0.7165
 9912TIP3   OH251150   6.263   2.089   2.136 -0.6080  0.0747  0.0320
 9912TIP3    H151151   6.243   2.038   2.057 -0.3274  0.6095 -0.3941
 9912TIP3    H251152   6.227   2.176   2.118 -1.1700  0.0127  0.7920
 9913TIP3   OH251153   3.051   4.854  12.783  0.4895 -0.0157  0.2102
 9913TIP3    H151154   3.086   4.812  12.705  1.1868  0.6802  0.1440
 9913TIP3    H251155   2.993   4.788  12.821  1.9657 -1.2639  0.4021
 9914TIP3   OH251156   4.579   2.826   2.775 -0.0315  0.1997 -0.2233
 9914TIP3    H151157   4.564   2.742   2.819  1.9771 -0.3397 -0.4807
 9914TIP3    H251158   4.528   2.889   2.826 -0.0769 -0.8892  1.1308
 9915TIP3   OH251159   3.372   5.899  13.841  0.0160 -0.0613 -0.2581
 9915TIP3    H151160   3.466   5.910  13.828 -0.0016  0.1681 -0.2016
 9915TIP3    H251161   3.348   5.826  13.785  0.3547 -0.5641  0.2442
 9916TIP3   OH251162   0.406   1.065   4.107 -0.3948 -0.1763  0.3091
 9916TIP3    H151163   0.475   1.129   4.090 -1.0381  0.6474  0.6803
 9916TIP3    H251164   0.325   1.117   4.108 -1.5453 -1.5334 -3.6022
 9917TIP3   OH251165   4.717   4.890  12.671  0.6425 -0.1080  0.1582
 9917TIP3    H151166   4.756   4.938  12.744  1.0921  1.0314 -0.8152
 9917TIP3    H251167   4.768   4.915  12.595  1.2635 -2.5741 -0.3305
 9918TIP3   OH251168   2.575   3.266  13.584  0.5777  0.3933 -0.0058
 9918TIP3    H151169   2.649   3.236  13.636  0.0885 -0.4206  0.2391
 9918TIP3    H251170   2.611   3.336  13.528  0.5083  3.6343  3.5637
 9919TIP3   OH251171   3.479   1.194   0.339  0.1645  0.0357 -0.3606
 9919TIP3    H151172   3.424   1.130   0.294  1.9424 -0.3770 -2.0667
 9919TIP3    H251173   3.551   1.143   0.375  0.7255  0.8540 -0.2828
 9920TIP3   OH251174   0.124   4.038  15.936 -0.5171 -0.2443 -0.1259
 9920TIP3    H151175   0.150   4.004  16.022 -0.1838 -0.3842 -0.2800
 9920TIP3    H251176   0.034   4.069  15.949 -0.3650  0.0051  0.3453
 9921TIP3   OH251177   2.340   2.695   3.243  0.0453 -0.0961  0.3282
 9921TIP3    H151178   2.393   2.742   3.179 -0.8138 -0.2523 -0.5136
 9921TIP3    H251179   2.401   2.636   3.286  0.7302  0.3639 -0.0003
 9922TIP3   OH251180   0.687   1.788  14.230  0.3925 -0.3528 -0.2293
 9922TIP3    H151181   0.723   1.864  14.184 -0.0207  0.1931  0.3281
 9922TIP3    H251182   0.592   1.802  14.228  0.3689 -0.2551  0.8686
 9923TIP3   OH251183   2.908   3.469  12.058 -0.2386  0.2371 -0.1372
 9923TIP3    H151184   2.815   3.457  12.079 -0.2959  0.9615  0.0196
 9923TIP3    H251185   2.941   3.379  12.047 -0.7517 -0.0618  0.6708
 9924TIP3   OH251186   5.158   6.109   3.477  0.3202 -0.9876  0.2592
 9924TIP3    H151187   5.070   6.110   3.514  0.0805 -0.7142 -0.3248
 9924TIP3    H251188   5.180   6.016   3.471 -1.3324 -1.3064 -2.8869
 9925TIP3   OH251189   1.941   5.936   3.504 -0.2526 -0.4049  0.4109
 9925TIP3    H151190   1.966   5.873   3.436 -1.8037  0.1989 -0.7972
 9925TIP3    H251191   1.847   5.947   3.491 -0.1736  1.4289  1.2215
 9926TIP3   OH251192   3.707   4.199   1.068 -0.0855 -0.2083  0.2065
 9926TIP3    H151193   3.754   4.133   1.120  0.5467 -0.9337 -1.2163
 9926TIP3    H251194   3.681   4.152   0.989 -2.1531  0.5183  0.3960
 9927TIP3   OH251195   2.914   1.079  15.264 -0.3947  0.1222  0.2142
 9927TIP3    H151196   2.843   1.033  15.309 -0.4048  0.0389  0.1146
 9927TIP3    H251197   2.940   1.149  15.324  1.3683 -1.5597  1.5288
 9928TIP3   OH251198   5.368   5.948  11.116 -0.6988 -0.0764 -0.1874
 9928TIP3    H151199   5.381   5.855  11.101  1.2636  0.3940 -1.8684
 9928TIP3    H251200   5.274   5.961  11.115 -0.9618 -1.9096 -0.7594
 9929TIP3   OH251201   4.411   6.438   6.184  0.0995  0.0329  0.0163
 9929TIP3    H151202   4.493   6.459   6.139  0.1089 -0.1504 -0.0549
 9929TIP3    H251203   4.355   6.514   6.169  0.6699  0.6990  1.0775
 9930TIP3   OH251204   3.721   2.753   1.527  0.2810 -0.7409  0.4284
 9930TIP3    H151205   3.710   2.661   1.501 -1.1189 -0.3500 -0.4441
 9930TIP3    H251206   3.759   2.795   1.449 -1.6970 -0.0450 -0.2082
 9931TIP3   OH251207   3.096   5.524  13.347  0.1287  0.0465  0.0336
 9931TIP3    H151208   3.060   5.538  13.435  1.5364  1.4446  0.4464
 9931TIP3    H251209   3.020   5.514  13.291 -0.8504  0.8991  1.1678
 9932TIP3   OH251210   2.739   0.453   3.053  0.0450 -0.3346 -0.0239
 9932TIP3    H151211   2.830   0.424   3.056 -0.3036 -1.3941  0.5458
 9932TIP3    H251212   2.712   0.436   2.963 -0.0560 -1.4876  0.2178
 9933TIP3   OH251213   0.239   6.562   0.268 -0.3960  0.1698 -0.0806
 9933TIP3    H151214   0.157   6.536   0.312  0.6510 -1.7986  0.8529
 9933TIP3    H251215   0.246   6.656   0.284 -2.1237  0.2515  0.4067
 9934TIP3   OH251216   0.702   6.504   0.631  0.0975 -0.0558 -0.9451
 9934TIP3    H151217   0.712   6.495   0.536  2.7544  2.8874 -1.1048
 9934TIP3    H251218   0.622   6.556   0.642 -0.7551 -1.2212 -1.4637
 9935TIP3   OH251219   5.626   0.062  13.009  0.3170  0.3398  0.9396
 9935TIP3    H151220   5.632   0.158  13.009 -0.6110  0.4043  0.6897
 9935TIP3    H251221   5.534   0.043  13.024  0.5082 -0.5251  1.0865
 9936TIP3   OH251222   6.771   5.668   1.960 -0.7720 -0.5019 -0.4174
 9936TIP3    H151223   6.826   5.593   1.936  0.4800 -0.0599  0.8767
 9936TIP3    H251224   6.821   5.744   1.931 -2.5723 -0.1229 -2.7958
 9937TIP3   OH251225   4.265   4.806  13.672  0.4135 -0.2101  0.2799
 9937TIP3    H151226   4.313   4.884  13.644  0.5219 -0.8603 -1.4565
 9937TIP3    H251227   4.333   4.750  13.711  0.6415 -0.1430 -0.0156
 9938TIP3   OH251228   6.552   3.382  17.327 -0.7393 -0.4083  0.5232
 9938TIP3    H151229   6.625   3.369  17.267 -0.1426  1.2053  0.8594
 9938TIP3    H251230   6.508   3.461  17.295 -1.8800 -0.9121  0.7910
 9939TIP3   OH251231   3.998   4.629  12.528  0.1624  0.1163 -0.0706
 9939TIP3    H151232   3.992   4.722  12.505 -0.9782 -0.0721 -0.5953
 9939TIP3    H251233   4.028   4.629  12.619 -1.8057  1.0911  0.6485
 9940TIP3   OH251234   0.225   0.954   1.992  0.2909 -0.3817 -0.3606
 9940TIP3    H151235   0.198   0.959   2.084 -1.4945 -0.2735 -0.8434
 9940TIP3    H251236   0.300   0.896   1.992 -0.3840 -1.3155  1.0415
 9941TIP3   OH251237   4.954   4.469   2.112  0.6008  0.2942 -0.4768
 9941TIP3    H151238   4.883   4.413   2.143 -0.3645  1.0476 -1.2592
 9941TIP3    H251239   4.992   4.506   2.192 -0.7907  0.9546 -0.0889
 9942TIP3   OH251240   2.126   2.842   1.306  0.3906 -0.3529  0.3870
 9942TIP3    H151241   2.036   2.869   1.289  0.6062  0.5340  0.5652
 9942TIP3    H251242   2.172   2.924   1.327  1.4072 -0.6845 -0.4493
 9943TIP3   OH251243   2.381   2.931  15.955  0.2326  0.3217  0.0669
 9943TIP3    H151244   2.465   2.886  15.964  0.7129  1.1827 -0.0221
 9943TIP3    H251245   2.395   2.995  15.885 -0.9793 -0.5997 -1.0639
 9944TIP3   OH251246   2.680   2.781  12.458 -0.0317  0.4187 -0.1158
 9944TIP3    H151247   2.741   2.806  12.388  0.9160 -0.0145  0.5234
 9944TIP3    H251248   2.593   2.794  12.420  0.4530  0.5377 -1.2430
 9945TIP3   OH251249   1.457   1.432  16.852  0.0007  0.1776  0.6164
 9945TIP3    H151250   1.472   1.348  16.809  0.2122 -0.3055  1.5935
 9945TIP3    H251251   1.540   1.452  16.894  0.5062  1.7643 -1.0476
 9946TIP3   OH251252   0.697   3.757   5.209 -0.1505 -0.2059 -0.1120
 9946TIP3    H151253   0.788   3.725   5.210 -1.1242 -3.3267 -0.3232
 9946TIP3    H251254   0.687   3.800   5.293  1.6715  0.7577 -0.3249
 9947TIP3   OH251255   5.423   5.969  11.967  0.1397 -0.0459  0.2725
 9947TIP3    H151256   5.429   6.005  12.056 -0.4610 -0.8458  0.6554
 9947TIP3    H251257   5.438   5.875  11.979  0.2788 -0.1313 -0.5134
 9948TIP3   OH251258   6.286   5.696   3.283 -0.5021 -0.8067  0.1504
 9948TIP3    H151259   6.244   5.617   3.316 -1.1385  0.6370  3.1669
 9948TIP3    H251260   6.217   5.762   3.284  0.5453  0.3286 -0.0759
 9949TIP3   OH251261   6.610   4.438   0.534 -0.0898 -0.0520  0.1623
 9949TIP3    H151262   6.557   4.462   0.458  1.3716  1.1213 -0.5500
 9949TIP3    H251263   6.566   4.480   0.608 -0.0396  1.1263 -0.4523
 9950TIP3   OH251264   3.702   6.023  11.266  0.3639  0.1640 -0.4349
 9950TIP3    H151265   3.634   5.984  11.322  0.4326 -1.3435 -1.3433
 9950TIP3    H251266   3.657   6.091  11.217 -0.5062 -0.7489 -0.9506
 9951TIP3   OH251267   0.697   4.546   4.843  0.0706 -0.2717 -0.9230
 9951TIP3    H151268   0.775   4.503   4.808  0.2123  0.9863 -2.2753
 9951TIP3    H251269   0.688   4.625   4.789 -1.7502 -0.0476 -0.3433
 9952TIP3   OH251270   4.959   3.715  15.655 -0.4794  0.2302  0.2215
 9952TIP3    H151271   4.934   3.682  15.569 -1.2977 -0.2209  0.6231
 9952TIP3    H251272   5.037   3.665  15.678 -2.0220 -1.8972  1.0696
 9953TIP3   OH251273   6.205   3.127  10.843 -0.6465 -0.1121 -1.1003
 9953TIP3    H151274   6.290   3.158  10.874 -0.2128 -1.4908 -0.8588
 9953TIP3    H251275   6.142   3.167  10.903 -0.0147 -0.5541 -0.1133
 9954TIP3   OH251276   4.915   4.593   1.459  0.3024 -0.2903  0.4836
 9954TIP3    H151277   4.963   4.605   1.377 -0.6080  0.1299 -0.0103
 9954TIP3    H251278   4.983   4.583   1.526  1.0723 -2.3808 -0.5392
 9955TIP3   OH251279   6.283   5.336   2.436  0.2745  0.4875  0.1135
 9955TIP3    H151280   6.297   5.341   2.342  1.7600  1.0748  0.3342
 9955TIP3    H251281   6.249   5.423   2.460 -0.8158  0.0975  0.0311
 9956TIP3   OH251282   1.914   6.284  13.061  0.1226  0.0884  0.2008
 9956TIP3    H151283   1.979   6.327  13.116 -1.5576  1.5279  1.1725
 9956TIP3    H251284   1.832   6.295  13.109 -1.3645  1.0224 -2.3776
 9957TIP3   OH251285   4.927   1.421   3.024  0.2638 -0.4643 -0.3844
 9957TIP3    H151286   4.988   1.357   2.987  0.4485 -1.2056  1.1652
 9957TIP3    H251287   4.841   1.389   2.998  0.2940 -1.8875  1.1243
 9958TIP3   OH251288   4.147   0.717   0.625  0.0325 -0.3834 -0.1513
 9958TIP3    H151289   4.068   0.698   0.676  0.5677 -1.9415  0.1668
 9958TIP3    H251290   4.114   0.744   0.539 -0.8509 -0.4522  0.1496
 9959TIP3   OH251291   5.339   4.136  11.592 -0.6114  0.2641  0.1942
 9959TIP3    H151292   5.423   4.093  11.577 -1.1292 -0.9844  0.7254
 9959TIP3    H251293   5.349   4.179  11.677 -1.7373 -3.3566  2.4174
 9960TIP3   OH251294   6.014   6.100  16.927  0.7483  0.1841  0.1404
 9960TIP3    H151295   6.024   6.190  16.957  0.1497  1.0898 -2.1675
 9960TIP3    H251296   6.102   6.073  16.901  0.8558  0.2140  0.4619
 9961TIP3   OH251297   2.550   4.678  12.225  0.2661  0.2983  0.4474
 9961TIP3    H151298   2.570   4.598  12.177  0.0212 -0.1674  1.1118
 9961TIP3    H251299   2.601   4.746  12.181  1.3948 -0.4249  0.6090
 9962TIP3   OH251300   3.156   3.126   1.458 -0.0903  0.3752 -0.4648
 9962TIP3    H151301   3.193   3.048   1.500  0.6026  0.9823  0.0922
 9962TIP3    H251302   3.098   3.092   1.390  0.5335 -0.6258 -0.5203
 9963TIP3   OH251303   6.544   1.678  17.150  0.8983  0.1798 -0.1669
 9963TIP3    H151304   6.491   1.749  17.188  1.1436  0.6611 -0.7048
 9963TIP3    H251305   6.514   1.599  17.194 -0.2552  0.4498 -0.4327
 9964TIP3   OH251306   0.727   2.596  10.514  0.3589 -0.0484 -0.0679
 9964TIP3    H151307   0.727   2.505  10.482 -0.5136 -0.1683  0.2550
 9964TIP3    H251308   0.818   2.612  10.539  0.6894 -0.5636 -0.8844
 9965TIP3   OH251309   1.655   5.495  13.569 -0.4007  0.0814  0.1824
 9965TIP3    H151310   1.740   5.504  13.526  0.6487 -0.6235  2.0210
 9965TIP3    H251311   1.613   5.581  13.557  0.6838  0.5452 -0.4587
 9966TIP3   OH251312   6.045   2.142   3.907  0.0699 -0.5262 -0.0849
 9966TIP3    H151313   6.003   2.223   3.933 -2.8717 -1.2440 -2.0603
 9966TIP3    H251314   5.986   2.073   3.938 -0.3870 -1.5987 -2.9991
 9967TIP3   OH251315   5.601   1.343   4.678  0.1166 -0.1914 -0.0369
 9967TIP3    H151316   5.628   1.252   4.668  0.1733 -0.3495  1.3231
 9967TIP3    H251317   5.683   1.393   4.677  0.0800 -0.1379 -0.8584
 9968TIP3   OH251318   4.668   1.979  15.651  1.1994  0.3194  0.8650
 9968TIP3    H151319   4.737   1.997  15.587  1.5908 -2.3100  0.4058
 9968TIP3    H251320   4.664   1.883  15.654 -0.9298  0.3988  2.5330
 9969TIP3   OH251321   1.763   5.346  14.338  0.8962  0.2034 -0.6831
 9969TIP3    H151322   1.846   5.390  14.354  0.6966 -0.0668  1.2953
 9969TIP3    H251323   1.701   5.417  14.321  1.0279  0.5600  0.2988
 9970TIP3   OH251324   0.056   1.256  11.882  0.2894 -0.1404 -0.4053
 9970TIP3    H151325  -0.010   1.233  11.949  1.5769 -1.6401  0.4163
 9970TIP3    H251326   0.098   1.335  11.917 -0.6347  0.4801 -0.6433
 9971TIP3   OH251327   2.793   3.996  17.029  0.0726  0.6721 -0.1558
 9971TIP3    H151328   2.745   3.930  16.978  0.2768  0.9874 -0.7713
 9971TIP3    H251329   2.776   3.973  17.120 -0.2118  0.0277 -0.3640
 9972TIP3   OH251330   0.578   2.681   3.585 -0.3879 -0.3079  0.5040
 9972TIP3    H151331   0.537   2.735   3.652  0.1841  2.0853 -0.9347
 9972TIP3    H251332   0.672   2.688   3.602 -0.2556  0.0765 -0.3035
 9973TIP3   OH251333   5.433   2.127   5.057  0.8516 -0.2701 -0.1233
 9973TIP3    H151334   5.398   2.151   4.971 -0.1310  3.2690  1.0850
 9973TIP3    H251335   5.522   2.096   5.039  0.9999  1.2455 -2.3482
 9974TIP3   OH251336   0.040   0.394   3.216 -0.6244 -0.3521  0.1042
 9974TIP3    H151337   0.129   0.407   3.248 -0.5617  1.0572 -0.5966
 9974TIP3    H251338  -0.002   0.480   3.225 -1.8386 -0.9286  0.1702
 9975TIP3   OH251339   2.694   4.806  13.413  0.3635 -0.6855  0.3090
 9975TIP3    H151340   2.634   4.732  13.405 -0.1802 -0.2155 -0.0289
 9975TIP3    H251341   2.710   4.834  13.323 -1.2052  1.0042  0.4896
 9976TIP3   OH251342   3.404   5.956  17.225 -0.0694 -0.0036  0.3322
 9976TIP3    H151343   3.355   6.033  17.198  0.3146  0.4489  0.8987
 9976TIP3    H251344   3.372   5.937  17.313 -1.0614 -1.2510 -0.2792
 9977TIP3   OH251345   2.158   0.600  17.090  0.2755 -0.6411  0.3673
 9977TIP3    H151346   2.213   0.527  17.060 -0.8892 -1.3068 -0.2287
 9977TIP3    H251347   2.070   0.562  17.095 -0.3852  0.7767 -0.1333
 9978TIP3   OH251348   1.117   1.392   4.651 -0.1311  0.0478 -0.1196
 9978TIP3    H151349   1.166   1.391   4.568  0.6807 -0.5381  0.3484
 9978TIP3    H251350   1.129   1.304   4.686  0.6410  0.6676  1.2444
 9979TIP3   OH251351   4.386   5.185   0.506 -0.1089  0.5218 -0.5928
 9979TIP3    H151352   4.348   5.098   0.517 -0.0664  0.6196  0.3840
 9979TIP3    H251353   4.311   5.241   0.483 -0.3451  0.4684  0.0440
 9980TIP3   OH251354   1.922   2.785  15.943  0.0705  0.0323  0.2034
 9980TIP3    H151355   1.830   2.793  15.921  0.0746 -2.0745 -0.7565
 9980TIP3    H251356   1.966   2.844  15.881 -0.4757 -0.5329 -0.7344
 9981TIP3   OH251357   2.241   1.849  10.388 -0.0735  0.3848 -0.5905
 9981TIP3    H151358   2.249   1.936  10.350 -2.1431  0.7222 -0.3749
 9981TIP3    H251359   2.221   1.866  10.481 -1.7156 -0.2392 -0.7937
 9982TIP3   OH251360   5.741   0.839   2.745 -0.2526 -0.4997  0.6537
 9982TIP3    H151361   5.775   0.844   2.656  0.3251  0.6386  0.9243
 9982TIP3    H251362   5.656   0.796   2.735 -0.2353 -0.3082 -0.4601
 9983TIP3   OH251363   1.919   6.179   1.536  0.1650 -0.2917  0.2072
 9983TIP3    H151364   2.002   6.226   1.547  0.2174 -0.5468  0.9026
 9983TIP3    H251365   1.925   6.141   1.448 -0.1597  1.5337 -0.6323
 9984TIP3   OH251366   6.089   1.361   2.470 -0.1797 -0.6031 -0.4356
 9984TIP3    H151367   6.008   1.397   2.505 -0.0995 -1.0061  0.1803
 9984TIP3    H251368   6.125   1.431   2.416 -0.4146 -0.0385  0.1260
 9985TIP3   OH251369   2.719   6.291   0.624  0.3455 -0.3881 -0.2199
 9985TIP3    H151370   2.644   6.268   0.677  0.4226 -0.1360 -0.0012
 9985TIP3    H251371   2.718   6.227   0.552  0.8142 -1.3751  0.6129
 9986TIP3   OH251372   6.327   5.189  13.317 -0.6992  0.0269  0.5893
 9986TIP3    H151373   6.304   5.097  13.303 -0.8069  0.3377 -1.5703
 9986TIP3    H251374   6.412   5.199  13.272 -0.7074  0.9927  0.7724
 9987TIP3   OH251375   3.138   1.587   0.006 -0.1323  0.4056  0.7054
 9987TIP3    H151376   3.167   1.536   0.081  1.1222 -1.5970 -1.0292
 9987TIP3    H251377   3.043   1.577   0.005  0.0136 -1.2203  0.9056
 9988TIP3   OH251378   4.546   4.968  14.741  0.0413 -0.5515 -0.6438
 9988TIP3    H151379   4.544   4.976  14.645 -0.8780 -0.0496 -0.5954
 9988TIP3    H251380   4.455   4.981  14.768  0.0148 -2.1989  0.1978
 9989TIP3   OH251381   2.096   3.811   1.857  0.2193  0.8358  0.0789
 9989TIP3    H151382   2.133   3.859   1.783 -0.8685  0.3406 -0.7963
 9989TIP3    H251383   2.016   3.771   1.823  0.4521 -0.5845  1.1359
 9990TIP3   OH251384   5.409   5.170  16.540  0.0200  0.0712 -0.2703
 9990TIP3    H151385   5.414   5.110  16.466 -0.1814  0.8037 -0.8991
 9990TIP3    H251386   5.409   5.257  16.500 -4.0638  0.5279  0.2389
 9991TIP3   OH251387   3.137   6.366  12.579 -0.3146 -0.2382  0.4599
 9991TIP3    H151388   3.174   6.279  12.592  0.9501  0.4125  1.6114
 9991TIP3    H251389   3.084   6.359  12.500  0.4272 -1.8370  0.0624
 9992TIP3   OH251390   0.205   0.704  12.023 -0.0422 -0.4876  0.4780
 9992TIP3    H151391   0.240   0.687  11.935 -0.0553 -0.5778  0.4904
 9992TIP3    H251392   0.254   0.645  12.080 -0.1284 -0.5243  0.5134
 9993TIP3   OH251393   6.231   1.847  11.216 -0.1404 -0.0639  0.0137
 9993TIP3    H151394   6.141   1.873  11.232 -1.2791 -2.4435 -1.7187
 9993TIP3    H251395   6.252   1.884  11.130  0.8464  1.1108  0.7347
 9994TIP3   OH251396   5.878   2.537   2.777 -0.5396 -0.2670 -0.4181
 9994TIP3    H151397   5.876   2.612   2.836 -0.8005 -0.8169  0.2984
 9994TIP3    H251398   5.858   2.462   2.834  2.0938 -1.2029 -0.5918
 9995TIP3   OH251399   6.299   4.083  13.048 -0.5141 -0.5777 -0.3652
 9995TIP3    H151400   6.347   4.146  13.102 -0.7504  0.9050 -1.8120
 9995TIP3    H251401   6.220   4.065  13.099  0.7978 -1.9145  1.3522
 9996TIP3   OH251402   5.345   3.004   2.101 -0.5372 -0.3621 -0.2106
 9996TIP3    H151403   5.328   3.097   2.086  1.1760  0.2189  1.0517
 9996TIP3    H251404   5.376   3.000   2.192 -1.3694 -2.3043  0.0425
 9997TIP3   OH251405   1.732   5.149  16.489 -0.6137 -0.2491 -0.4672
 9997TIP3    H151406   1.698   5.098  16.415 -1.1257 -0.3943 -0.1459
 9997TIP3    H251407   1.710   5.096  16.566  0.3375 -0.3297 -0.2380
 9998TIP3   OH251408   2.292   2.948   0.092  0.0796 -0.0482  0.5893
 9998TIP3    H151409   2.315   2.877   0.152 -2.1719 -3.0544 -1.6841
 9998TIP3    H251410   2.363   2.950   0.028 -0.1734 -0.8756  0.2598
 9999TIP3   OH251411   2.978   5.416   5.636 -0.5811  0.3632 -0.6804
 9999TIP3    H151412   3.003   5.335   5.592 -1.3145  0.1053 -0.6317
 9999TIP3    H251413   3.022   5.485   5.585  0.1286 -0.0624 -0.6569
10000TIP3   OH251414   0.014   2.670  15.864 -0.4149  0.0924 -0.1755
10000TIP3    H151415   0.074   2.596  15.852  3.7706  2.9557  0.8767
10000TIP3    H251416   0.002   2.675  15.959  0.7783  1.6343 -0.0635
10001TIP3   OH251417   6.398   0.302   0.725  0.1098  0.1672  0.7232
10001TIP3    H151418   6.465   0.241   0.757  0.4211 -0.1796 -0.5282
10001TIP3    H251419   6.395   0.371   0.791  1.6278  0.1299  0.8780
10002TIP3   OH251420   4.284   6.553  15.330  0.0758  0.3203  0.3984
10002TIP3    H151421   4.378   6.564  15.317 -0.0283  0.0709 -0.6685
10002TIP3    H251422   4.276   6.509  15.415  1.0580 -1.7107 -0.4962
10003TIP3   OH251423   1.141   1.799  15.011  0.1307 -0.0491 -0.1239
10003TIP3    H151424   1.214   1.842  15.054 -0.3939 -0.2082  0.9776
10003TIP3    H251425   1.094   1.755  15.082 -0.9509 -0.0661 -0.8204
10004TIP3   OH251426   0.326   4.712  14.980 -0.6462 -0.1182 -0.2810
10004TIP3    H151427   0.253   4.764  15.015 -1.1040 -0.3094 -0.9288
10004TIP3    H251428   0.313   4.714  14.885  0.0528 -0.3727 -0.3891
10005TIP3   OH251429   1.025   0.523  13.053 -0.3353  0.0335 -0.3071
10005TIP3    H151430   1.077   0.515  12.973 -0.8173 -1.3751 -0.5163
10005TIP3    H251431   1.020   0.617  13.070 -0.8468  0.4225 -2.3542
10006TIP3   OH251432   5.489   6.611  12.775 -0.9373 -0.5375  0.1310
10006TIP3    H151433   5.498   6.545  12.706 -2.3065 -0.4382 -0.1716
10006TIP3    H251434   5.415   6.580  12.828 -0.4604 -0.1528  1.0455
10007TIP3   OH251435   2.503   2.479  15.476 -0.4798  0.1946 -0.1732
10007TIP3    H151436   2.512   2.462  15.382 -0.7376  2.0200 -0.5703
10007TIP3    H251437   2.419   2.441  15.500 -0.4464 -0.2186 -0.6925
10008TIP3   OH251438   1.479   1.447  17.326 -0.1844  0.6707 -0.0401
10008TIP3    H151439   1.423   1.519  17.297  0.1308  0.6560 -0.6901
10008TIP3    H251440   1.553   1.491  17.370  0.6713  0.8206 -1.5728
10009TIP3   OH251441   4.190   3.262  16.856 -0.2950 -0.4734  0.1615
10009TIP3    H151442   4.130   3.239  16.927 -1.8753  3.1256  0.1855
10009TIP3    H251443   4.260   3.310  16.899  0.6597 -1.3833 -0.3402
10010TIP3   OH251444   4.022   3.099  12.340  0.4221 -0.0913 -0.0159
10010TIP3    H151445   3.978   3.166  12.392  1.0541  0.1046  0.2728
10010TIP3    H251446   3.955   3.032  12.326  0.1967 -0.0770  0.9226
10011TIP3   OH251447   4.875   4.422   2.587 -0.3595  0.0298 -0.3165
10011TIP3    H151448   4.786   4.417   2.551  0.0630  2.0999 -1.8632
10011TIP3    H251449   4.932   4.417   2.510  0.8166 -0.1326  0.5505
10012TIP3   OH251450   5.657   2.503   3.286  0.1227 -0.1471 -0.0054
10012TIP3    H151451   5.693   2.449   3.217  2.1539  0.5267  0.4621
10012TIP3    H251452   5.688   2.592   3.266  0.8409  0.0436  1.7742
10013TIP3   OH251453   3.456   0.268   4.729 -0.0061 -0.6945 -0.2390
10013TIP3    H151454   3.406   0.206   4.781  2.4106  0.5788  4.0844
10013TIP3    H251455   3.408   0.351   4.737  0.4412 -0.4647  0.1448
10014TIP3   OH251456   2.745   4.393   3.246  0.0419 -0.2276 -0.3255
10014TIP3    H151457   2.827   4.426   3.283  0.1900 -1.4697  0.5153
10014TIP3    H251458   2.772   4.327   3.182 -0.2349  1.4804 -2.3168
10015TIP3   OH251459   1.094   2.688  17.029  0.0132  0.1936  0.2705
10015TIP3    H151460   1.069   2.598  17.048 -1.0243  0.4456  0.1658
10015TIP3    H251461   1.189   2.689  17.036  0.0674 -1.0042 -0.1253
10016TIP3   OH251462   1.736   3.082   4.314 -0.0800  0.0313 -0.1851
10016TIP3    H151463   1.802   3.022   4.348 -0.6995  0.2355  1.5349
10016TIP3    H251464   1.749   3.163   4.365  0.3106  1.1467 -1.9771
10017TIP3   OH251465   5.226   2.432   0.859 -0.3378  0.4091 -0.1964
10017TIP3    H151466   5.280   2.496   0.906  0.0723 -0.7826  1.0448
10017TIP3    H251467   5.136   2.463   0.873 -0.2376  0.0208  1.5580
10018TIP3   OH251468   6.076   4.491  17.076 -0.2810  1.1108  0.4490
10018TIP3    H151469   6.115   4.453  17.155  2.7606  0.7212 -1.1147
10018TIP3    H251470   6.050   4.415  17.023 -1.0383  1.3604  0.4445
10019TIP3   OH251471   0.852   0.447   4.626 -0.4067 -0.5336 -0.2885
10019TIP3    H151472   0.938   0.420   4.659  0.0006 -0.6975 -1.4117
10019TIP3    H251473   0.791   0.428   4.697  0.3079 -1.6010  0.0636
10020TIP3   OH251474   0.774   6.107  15.183  0.1989 -0.3880 -0.4898
10020TIP3    H151475   0.718   6.071  15.252  0.8727  1.5738  1.1878
10020TIP3    H251476   0.856   6.058  15.190 -0.1649 -1.0538 -0.7748
10021TIP3   OH251477   1.694   3.105  15.113 -0.2575 -0.2813 -0.2599
10021TIP3    H151478   1.754   3.103  15.038  0.7959  2.8338  0.3658
10021TIP3    H251479   1.672   3.013  15.128  1.7646 -1.2649 -2.5732
10022TIP3   OH251480   0.520   4.412  15.888 -0.7674 -0.0577 -0.4999
10022TIP3    H151481   0.430   4.383  15.879 -0.4806 -1.6032  1.0183
10022TIP3    H251482   0.572   4.332  15.893  0.6702  0.7883 -1.0924
10023TIP3   OH251483   0.349   2.777  11.097  0.3268 -0.3125  0.0770
10023TIP3    H151484   0.277   2.822  11.051 -1.0842 -1.9056  0.6184
10023TIP3    H251485   0.308   2.742  11.176  1.9669 -0.4257  0.9158
10024TIP3   OH251486   1.594   2.817  16.493  0.0493  0.2608 -0.0726
10024TIP3    H151487   1.528   2.851  16.434 -0.4907 -0.5226  0.0653
10024TIP3    H251488   1.561   2.731  16.520  0.7255  0.2063  0.6377
10025TIP3   OH251489   6.050   1.281  13.281  0.3226  0.2487  0.3323
10025TIP3    H151490   6.093   1.242  13.205 -0.8107  0.2190 -0.3270
10025TIP3    H251491   6.054   1.213  13.349  0.9452  0.1000  0.1476
10026TIP3   OH251492   4.997   2.062  16.819  0.0836  0.1610 -0.2634
10026TIP3    H151493   5.068   2.114  16.856 -1.8842  0.7537  3.1311
10026TIP3    H251494   4.953   2.121  16.757  0.4593  1.0127  0.2725
10027TIP3   OH251495   5.595   0.348   5.275 -0.3097 -0.0470  0.2173
10027TIP3    H151496   5.688   0.345   5.250 -0.2437  3.1431 -0.3688
10027TIP3    H251497   5.549   0.319   5.196  0.1456  0.2320 -0.1601
10028TIP3   OH251498   5.460   0.976   5.534 -0.7056 -0.4186  0.5404
10028TIP3    H151499   5.448   0.888   5.570 -0.3236 -1.1026 -0.9072
10028TIP3    H251500   5.533   1.013   5.585 -0.9082 -0.9090  1.2038
10029TIP3   OH251501   4.874   0.952  14.159 -0.3508  0.0261 -0.3657
10029TIP3    H151502   4.964   0.977  14.140 -0.8130  1.5662 -0.6164
10029TIP3    H251503   4.877   0.856  14.163  1.7365  0.0617  1.9137
10030TIP3   OH251504   3.296   3.283   1.878  0.4550 -0.4856 -0.2851
10030TIP3    H151505   3.323   3.263   1.968  0.1607 -0.0036 -0.0865
10030TIP3    H251506   3.227   3.219   1.860  0.6634 -0.7257 -0.2504
10031TIP3   OH251507   2.449   0.026   4.853 -0.0493  0.0132 -0.3259
10031TIP3    H151508   2.393   0.065   4.786  0.0861  0.8545  0.0305
10031TIP3    H251509   2.404  -0.054   4.879 -0.8588  0.4342 -0.3822
10032TIP3   OH251510   2.402   1.514   4.985  0.4163  0.2254 -0.2834
10032TIP3    H151511   2.320   1.561   5.003 -0.0432  0.3383 -2.3508
10032TIP3    H251512   2.453   1.574   4.931  0.0134 -1.3684 -2.6010
10033TIP3   OH251513   0.661   4.616   5.775  0.1789  0.2407  0.4691
10033TIP3    H151514   0.683   4.698   5.819  0.1395 -0.8184  2.5827
10033TIP3    H251515   0.742   4.566   5.774 -0.6514 -1.3385  3.0574
10034TIP3   OH251516   3.747   0.257   5.083 -0.2334  0.2974  0.0564
10034TIP3    H151517   3.667   0.305   5.062 -0.4375  1.4998  3.0518
10034TIP3    H251518   3.817   0.322   5.081  0.3661 -0.3469 -0.6612
10035TIP3   OH251519   0.986   4.698  11.561  0.4049 -0.1832 -0.2964
10035TIP3    H151520   0.973   4.791  11.582  1.7476 -0.2537  1.0271
10035TIP3    H251521   0.998   4.697  11.466  2.1328  1.2798 -0.1594
10036TIP3   OH251522   3.464   5.082   5.708 -0.1144  0.0512 -0.0078
10036TIP3    H151523   3.416   5.133   5.774 -2.3424  0.0781 -1.5321
10036TIP3    H251524   3.498   5.147   5.647 -0.3234 -0.1015 -0.2912
10037TIP3   OH251525   3.820   6.326   1.541  0.3448  0.1422 -0.3746
10037TIP3    H151526   3.781   6.326   1.454 -0.6176  1.5240  0.0324
10037TIP3    H251527   3.761   6.379   1.595  1.3371 -0.0164  0.9350
10038TIP3   OH251528   2.238   3.394   0.757  0.3197 -0.9309 -0.4205
10038TIP3    H151529   2.156   3.348   0.776 -0.8624  1.1318 -0.1557
10038TIP3    H251530   2.242   3.463   0.823  1.2157  0.2608 -1.6604
10039TIP3   OH251531   3.568   3.693   6.091 -0.0085  0.0444 -0.1088
10039TIP3    H151532   3.616   3.640   6.155  0.4601  1.9119  1.1695
10039TIP3    H251533   3.497   3.734   6.141  0.0558  1.1590 -0.8819
10040TIP3   OH251534   2.915   5.760   0.919  0.2900 -0.1180 -0.2102
10040TIP3    H151535   2.972   5.792   0.849 -0.2888 -0.1549 -0.7035
10040TIP3    H251536   2.975   5.733   0.988  0.8423  1.1815 -0.1415
10041TIP3   OH251537   1.603   2.859  13.741 -0.0533  0.4657  0.1939
10041TIP3    H151538   1.618   2.946  13.703 -1.6099  0.1599 -1.2203
10041TIP3    H251539   1.680   2.808  13.715  0.3955  1.1363  0.1819
10042TIP3   OH251540   5.655   6.504   6.222  0.0364 -0.1000 -0.6747
10042TIP3    H151541   5.589   6.567   6.195  0.5119  0.0753 -1.4602
10042TIP3    H251542   5.714   6.554   6.278  0.1449  0.0352 -0.9086
10043TIP3   OH251543   3.483   1.555  13.350 -0.1084 -0.0370 -0.5569
10043TIP3    H151544   3.434   1.558  13.432  2.6417 -0.0114  1.2276
10043TIP3    H251545   3.454   1.631  13.301 -2.8075 -0.8055 -0.2831
10044TIP3   OH251546   0.622   1.719   5.375 -0.3440  0.1581  0.1587
10044TIP3    H151547   0.621   1.623   5.371 -0.7138  0.1625  0.1862
10044TIP3    H251548   0.653   1.746   5.289  0.1604  0.0054  0.2842
10045TIP3   OH251549   1.738   0.686   2.238 -0.3999  0.1109  0.2472
10045TIP3    H151550   1.743   0.779   2.215  1.7537 -0.1991 -0.8497
10045TIP3    H251551   1.758   0.684   2.331  0.9474  0.7040  0.0093
10046TIP3   OH251552   1.843   2.709  11.387 -0.2959 -0.8758  0.3720
10046TIP3    H151553   1.929   2.666  11.386  0.4388  0.5055  1.0308
10046TIP3    H251554   1.813   2.699  11.478 -0.3842 -0.5106  0.3840
10047TIP3   OH251555   4.962   5.579  16.308  0.0086 -0.4190 -0.2433
10047TIP3    H151556   4.873   5.565  16.340 -0.4602 -0.7374 -1.6372
10047TIP3    H251557   5.001   5.491  16.309  0.7108 -0.1379  1.4077
10048TIP3   OH251558   3.907   1.364   2.635 -0.0695 -0.0728  0.0667
10048TIP3    H151559   3.901   1.281   2.682 -1.7687  0.9996  1.9324
10048TIP3    H251560   3.953   1.423   2.696  0.4439  0.5463 -0.9040
10049TIP3   OH251561   2.077   3.407  12.625 -0.3383  0.6145  0.3387
10049TIP3    H151562   2.040   3.332  12.579 -0.9237  1.0582  0.0727
10049TIP3    H251563   2.138   3.369  12.689 -1.8420 -0.1997  1.3428
10050TIP3   OH251564   3.263   2.802  14.765  0.0895  0.4903 -0.2150
10050TIP3    H151565   3.231   2.893  14.761 -0.3608  0.4544  1.6002
10050TIP3    H251566   3.199   2.757  14.819  0.7497 -0.7219 -0.4193
10051TIP3   OH251567   1.711   1.564  15.690 -0.3770 -0.4349  0.0701
10051TIP3    H151568   1.702   1.659  15.676 -0.2598 -0.4587 -0.1765
10051TIP3    H251569   1.726   1.529  15.602 -0.1175 -0.6498  0.2012
10052TIP3   OH251570   4.469   6.679  16.872 -0.0249  0.4519 -0.0541
10052TIP3    H151571   4.421   6.598  16.855  1.4689 -0.1359 -1.7241
10052TIP3    H251572   4.401   6.746  16.879 -1.2402 -0.7878  0.5072
10053TIP3   OH251573   2.344   1.205   5.836  0.2846  0.3052  0.0783
10053TIP3    H151574   2.399   1.283   5.843 -1.1072  1.2441  0.9114
10053TIP3    H251575   2.371   1.164   5.754  1.8178  1.0312  0.1840
10054TIP3   OH251576   1.443   5.339  13.059 -0.0879 -0.0208  0.4898
10054TIP3    H151577   1.531   5.366  13.035  0.9307 -1.1427  2.6962
10054TIP3    H251578   1.424   5.388  13.139 -0.5879 -1.3425  1.2118
10055TIP3   OH251579   3.083   2.083   4.819  0.0449  0.3448 -0.0159
10055TIP3    H151580   3.018   2.013   4.813  1.2302 -0.7509 -0.4261
10055TIP3    H251581   3.122   2.087   4.732  1.2129  0.2994  0.4917
10056TIP3   OH251582   1.137   2.052  14.475 -0.2745  0.0135 -0.4336
10056TIP3    H151583   1.113   2.079  14.564  0.9591  0.6812 -0.2870
10056TIP3    H251584   1.079   1.978  14.456  0.4433 -1.1135  1.5037
10057TIP3   OH251585   6.444   6.658  14.920 -0.0986  0.3228 -0.1596
10057TIP3    H151586   6.382   6.619  14.982  0.5013  1.3665  1.1634
10057TIP3    H251587   6.527   6.615  14.939  0.5393  2.0091  1.2175
10058TIP3   OH251588   1.912   4.988   5.451 -0.4652  0.7502  0.3893
10058TIP3    H151589   1.863   4.992   5.369  0.4562 -0.6440 -0.2911
10058TIP3    H251590   1.846   4.969   5.518 -1.0221  0.0878 -0.3216
10059TIP3   OH251591   4.527   3.965  14.814  0.2246  0.0303 -0.3478
10059TIP3    H151592   4.519   3.985  14.907  1.1909  0.1150 -0.2784
10059TIP3    H251593   4.592   3.895  14.809  0.0604 -0.0926 -0.9521
10060TIP3   OH251594   1.068   3.462  17.342  0.0757  0.2297 -0.0107
10060TIP3    H151595   1.081   3.382  17.393 -2.0406 -0.1379  0.0423
10060TIP3    H251596   1.122   3.528  17.386 -0.2685 -0.5166  1.5843
10061TIP3   OH251597   4.907   1.597   5.434  0.5574 -0.7444 -0.0667
10061TIP3    H151598   4.860   1.560   5.360  0.5287  0.6690 -0.7998
10061TIP3    H251599   4.939   1.522   5.484 -0.7951 -1.7151 -0.6323
10062TIP3   OH251600   5.854   2.797   4.373 -0.1176  0.2418 -1.0704
10062TIP3    H151601   5.821   2.781   4.285 -0.4618 -0.9923 -0.7287
10062TIP3    H251602   5.893   2.885   4.369 -2.1979  1.1742 -1.8289
10063TIP3   OH251603   2.941   4.665  13.466  0.5041 -0.2560 -0.3873
10063TIP3    H151604   2.947   4.757  13.492 -1.0245 -0.6637  1.6361
10063TIP3    H251605   2.848   4.649  13.455  0.5764 -1.9753  1.0401
10064TIP3   OH251606   4.293   5.981   1.984 -0.3718  0.4651  0.8040
10064TIP3    H151607   4.267   5.896   2.021 -1.1677  0.1123 -0.4913
10064TIP3    H251608   4.225   6.000   1.920  1.9866 -0.0050 -2.0355
10065TIP3   OH251609   6.564   0.025   3.779 -0.2397  0.1396  0.2381
10065TIP3    H151610   6.488   0.019   3.721 -0.2259 -1.9642  0.3461
10065TIP3    H251611   6.534  -0.013   3.861  0.5838  0.3876  0.6646
10066TIP3   OH251612   2.371   2.123  13.837  0.4599 -0.2684  0.4831
10066TIP3    H151613   2.410   2.066  13.903  0.9693  2.0166  2.3030
10066TIP3    H251614   2.446   2.168  13.798 -0.0379  1.8557  1.7935
10067TIP3   OH251615   4.930   6.511  12.162 -0.4808  0.5040 -0.1966
10067TIP3    H151616   5.002   6.450  12.174 -1.1173 -0.6214 -1.7644
10067TIP3    H251617   4.905   6.537  12.251  1.2640  0.2584  0.4033
10068TIP3   OH251618   3.518   4.248   3.786  0.6391 -0.5072  0.1425
10068TIP3    H151619   3.437   4.262   3.738  2.0431 -0.6588 -2.3988
10068TIP3    H251620   3.535   4.331   3.830  0.2017  0.2021 -1.0088
10069TIP3   OH251621   3.972   1.693   1.704  0.3534  0.4093 -0.2439
10069TIP3    H151622   4.012   1.606   1.705 -0.1629  0.1741  0.0706
10069TIP3    H251623   3.882   1.679   1.734  0.4507  1.1398  0.4307
10070TIP3   OH251624   4.591   1.052   4.032 -0.0503  0.2218  0.5085
10070TIP3    H151625   4.672   1.092   4.003 -0.3516  0.7160  0.3325
10070TIP3    H251626   4.523   1.117   4.013 -0.6639 -0.6686 -0.5284
10071TIP3   OH251627   5.121   6.569   5.473  0.1892 -0.2696 -0.5122
10071TIP3    H151628   5.151   6.643   5.421  0.3240 -0.6550 -1.0006
10071TIP3    H251629   5.114   6.602   5.562 -0.3257  0.4880 -0.8274
10072TIP3   OH251630   0.962   3.950  15.604 -0.4784  0.1099  0.1660
10072TIP3    H151631   0.985   4.022  15.661 -0.0065 -0.5387  0.8137
10072TIP3    H251632   0.868   3.938  15.616  0.1342 -2.9327  4.4358
10073TIP3   OH251633   4.158   2.674   1.169 -0.2905 -0.2184 -0.0262
10073TIP3    H151634   4.132   2.630   1.250  0.9715  0.5340  0.8347
10073TIP3    H251635   4.249   2.645   1.155  0.3947  1.6368  0.2755
10074TIP3   OH251636   6.159   1.885   4.221 -0.4629 -0.3048  0.3049
10074TIP3    H151637   6.117   1.832   4.289 -0.0750  0.6758  1.3539
10074TIP3    H251638   6.252   1.883   4.242 -0.4891  1.2121  0.7309
10075TIP3   OH251639   3.105   0.419  11.829  0.0413 -0.6746  0.3324
10075TIP3    H151640   3.158   0.355  11.876 -1.2818 -2.9969 -1.2014
10075TIP3    H251641   3.027   0.371  11.801 -0.8953  1.5320 -1.1565
10076TIP3   OH251642   5.825   1.304   6.377 -0.1963  0.0198 -0.0252
10076TIP3    H151643   5.732   1.285   6.385 -0.1766  0.5788  2.3230
10076TIP3    H251644   5.868   1.238   6.431  0.5347  1.1960  0.9054
10077TIP3   OH251645   0.549   6.702  15.217  0.2067  0.2167  0.1222
10077TIP3    H151646   0.602   6.648  15.277 -0.2764 -0.7353 -0.2819
10077TIP3    H251647   0.480   6.642  15.187  0.3173  0.7504 -1.2137
10078TIP3   OH251648   0.638   5.093  11.426  0.7254  0.0007 -0.6305
10078TIP3    H151649   0.631   5.079  11.332 -0.5333 -0.3349 -0.5047
10078TIP3    H251650   0.639   5.189  11.436  0.9684  0.0379 -0.9861
10079TIP3   OH251651   2.269   2.600  15.978 -0.2043 -0.8093 -0.0243
10079TIP3    H151652   2.273   2.695  15.967  0.6406 -1.0390 -2.2473
10079TIP3    H251653   2.360   2.572  15.981 -0.2587 -1.8219 -3.3617
10080TIP3   OH251654   1.579   1.398  11.435  0.1529 -0.1023 -0.3853
10080TIP3    H151655   1.549   1.309  11.454 -0.6885  0.1909 -0.2977
10080TIP3    H251656   1.522   1.454  11.487 -0.4016  0.5715 -1.6889
10081TIP3   OH251657   5.691   1.401  10.739 -0.1969  0.0405  0.3024
10081TIP3    H151658   5.783   1.386  10.762 -0.2426 -2.0934 -0.6840
10081TIP3    H251659   5.696   1.448  10.656  0.0492 -1.0745 -0.3364
10082TIP3   OH251660   6.743   3.064   1.190 -0.3352  0.7362 -0.2284
10082TIP3    H151661   6.765   3.028   1.104 -0.7283 -1.0281  0.3731
10082TIP3    H251662   6.778   3.000   1.252 -0.5851  1.6826  0.9137
10083TIP3   OH251663   0.405   6.770   3.009  0.2416 -0.4409  0.5680
10083TIP3    H151664   0.446   6.694   3.049  0.2261 -0.0575  1.3391
10083TIP3    H251665   0.311   6.758   3.023  0.1807 -0.6518  0.0076
10084TIP3   OH251666   2.047   3.922  13.815  0.0079 -0.0606  0.2658
10084TIP3    H151667   1.955   3.920  13.790 -0.3319 -1.7291  1.5128
10084TIP3    H251668   2.073   3.830  13.818  1.5629  0.3581  0.4959
10085TIP3   OH251669   1.513   3.482   3.889  0.1519 -0.1876  0.6959
10085TIP3    H151670   1.419   3.466   3.887  0.3025 -1.1371 -0.7870
10085TIP3    H251671   1.524   3.571   3.858 -0.1005 -1.4412 -3.5269
10086TIP3   OH251672   2.101   1.470  16.213  0.0296  0.0132  0.1752
10086TIP3    H151673   2.053   1.510  16.286  0.5760 -0.4263  0.7910
10086TIP3    H251674   2.069   1.515  16.135 -0.1913  0.8540  0.7409
10087TIP3   OH251675   4.067   1.242   2.946  0.9014  0.1782  0.2773
10087TIP3    H151676   4.086   1.174   2.881  2.5482  0.0346  0.8546
10087TIP3    H251677   3.973   1.235   2.962  0.3593  0.4570 -2.3214
10088TIP3   OH251678   0.012   5.695  12.653  0.3106 -0.4197 -0.2353
10088TIP3    H151679   0.060   5.764  12.699  5.1073 -3.0223 -0.6013
10088TIP3    H251680  -0.001   5.627  12.719 -0.2292 -0.9547 -0.8736
10089TIP3   OH251681   0.718   0.644   6.263 -0.2503 -1.0010 -0.2716
10089TIP3    H151682   0.658   0.713   6.236  0.2326 -0.9279 -1.2015
10089TIP3    H251683   0.791   0.691   6.304  0.3182 -0.8996 -1.3593
10090TIP3   OH251684   2.956   3.076   6.380 -0.3760 -0.1867 -0.4890
10090TIP3    H151685   2.925   2.995   6.341 -0.5471 -0.1603 -0.4094
10090TIP3    H251686   3.051   3.072   6.372 -0.0820 -1.8865  2.3535
10091TIP3   OH251687   0.782   6.196   3.823  0.3454  0.2370 -0.0450
10091TIP3    H151688   0.795   6.288   3.845  1.8717  0.0730 -0.1409
10091TIP3    H251689   0.840   6.180   3.749  1.1430 -1.1105  0.8178
10092TIP3   OH251690   5.589   1.084  14.459 -0.5169  0.0300 -0.0657
10092TIP3    H151691   5.543   1.076  14.543 -0.6920 -0.1638 -0.1781
10092TIP3    H251692   5.669   1.130  14.480 -1.0815  0.9987  0.0161
10093TIP3   OH251693   4.521   0.932  13.041  0.0133  0.0762  0.3156
10093TIP3    H151694   4.533   0.838  13.054  1.5765  0.5171  2.7451
10093TIP3    H251695   4.502   0.966  13.128 -0.5414  2.0379 -0.5125
10094TIP3   OH251696   2.153   2.998   2.280 -0.0368  0.0229 -0.5969
10094TIP3    H151697   2.184   2.951   2.203 -0.3940 -0.7991 -0.2544
10094TIP3    H251698   2.212   2.971   2.350 -0.2028  0.1330 -0.4115
10095TIP3   OH251699   0.457   2.247  13.981  0.5308 -0.0300 -0.8866
10095TIP3    H151700   0.369   2.237  14.017  0.0824  2.0229 -1.2721
10095TIP3    H251701   0.504   2.168  14.009 -1.3803 -1.1050 -0.5679
10096TIP3   OH251702   5.278   1.671   3.840  0.2118  0.2007 -0.1578
10096TIP3    H151703   5.246   1.758   3.863  0.5169  0.1803  0.3537
10096TIP3    H251704   5.199   1.617   3.837  0.1641  0.1768  0.9808
10097TIP3   OH251705   3.309   2.450  10.537  0.0024  0.4161  0.4878
10097TIP3    H151706   3.398   2.416  10.543 -0.2972 -0.3146  0.9901
10097TIP3    H251707   3.254   2.372  10.529 -0.4710  0.9225 -1.7704
10098TIP3   OH251708   0.409   0.680   4.221 -0.5231 -0.0260  0.7893
10098TIP3    H151709   0.378   0.749   4.279  0.3443 -0.2773  1.5808
10098TIP3    H251710   0.499   0.704   4.200 -1.2719  0.8588 -1.7344
10099TIP3   OH251711   0.443   5.204  11.787  0.0203  0.0617  0.8039
10099TIP3    H151712   0.407   5.124  11.749  1.6253 -1.0362  1.4338
10099TIP3    H251713   0.445   5.267  11.715 -0.5772 -0.7078  0.0975
10100TIP3   OH251714   4.439   5.243  15.205 -0.5776  0.6542  0.0056
10100TIP3    H151715   4.435   5.325  15.255 -2.6493 -0.2176  1.4032
10100TIP3    H251716   4.442   5.174  15.272 -2.5425 -0.5289 -1.0440
10101TIP3   OH251717   3.458   2.616  14.638 -0.0588 -0.1673 -0.0809
10101TIP3    H151718   3.405   2.559  14.582  0.4466  0.7020 -1.4885
10101TIP3    H251719   3.398   2.686  14.664  0.0352  0.1149 -0.6056
10102TIP3   OH251720   5.922   4.930  13.959 -0.0784 -0.1630 -0.1409
10102TIP3    H151721   5.840   4.921  14.007 -0.3577 -0.5798 -0.6885
10102TIP3    H251722   5.913   4.872  13.884  0.5116  0.1808 -0.4890
10103TIP3   OH251723   5.798   6.102  14.568 -0.1386  0.4598  0.1977
10103TIP3    H151724   5.861   6.036  14.538 -1.2930 -0.1947 -0.8697
10103TIP3    H251725   5.839   6.141  14.646  1.2021 -0.5171  0.0106
10104TIP3   OH251726   1.554   6.162   5.834 -0.0054 -0.1833 -0.2834
10104TIP3    H151727   1.544   6.228   5.766  1.5110  1.0008  0.5714
10104TIP3    H251728   1.467   6.155   5.873 -0.4412  0.5343 -1.0943
10105TIP3   OH251729   2.021   6.201  16.974  0.0343  0.5503  0.9020
10105TIP3    H151730   1.986   6.112  16.985  0.0424  0.5640  1.0421
10105TIP3    H251731   1.951   6.248  16.929  0.7813 -0.0295 -0.9827
10106TIP3   OH251732   3.863   2.504  15.299 -0.1030  0.1517  0.3566
10106TIP3    H151733   3.881   2.437  15.364  0.0104  0.8512  1.0578
10106TIP3    H251734   3.770   2.494  15.279 -0.0210 -0.4026  0.2234
10107TIP3   OH251735   5.768   2.029   6.348  0.1115 -0.0285 -0.0400
10107TIP3    H151736   5.833   2.004   6.414  2.3210  2.5418 -1.0404
10107TIP3    H251737   5.701   2.077   6.396 -1.1505 -2.6627  1.0046
10108TIP3   OH251738   5.830   5.604   0.740 -0.0879 -0.2990  0.2913
10108TIP3    H151739   5.871   5.677   0.786 -0.4201  1.1027 -1.5248
10108TIP3    H251740   5.809   5.639   0.653  0.6853 -2.8654 -1.0319
10109TIP3   OH251741   1.035   0.875   1.293 -0.5393  0.6146 -0.1199
10109TIP3    H151742   1.056   0.905   1.204 -3.5414  1.7420 -0.5732
10109TIP3    H251743   1.096   0.923   1.349  0.4670  0.9761 -1.4704
10110TIP3   OH251744   1.333   6.606  12.180  0.7745 -0.1990  0.7109
10110TIP3    H151745   1.273   6.625  12.252  0.1878 -2.0516  0.7839
10110TIP3    H251746   1.300   6.657  12.106  0.1858  0.1842  1.2311
10111TIP3   OH251747   0.977   4.647   5.116 -0.2400  0.8559  0.3731
10111TIP3    H151748   0.889   4.663   5.151  0.4648  2.2572  1.6218
10111TIP3    H251749   0.996   4.724   5.063  0.4451  0.8238  0.5675
10112TIP3   OH251750   5.203   6.365  13.191  0.0235  0.6459  0.0590
10112TIP3    H151751   5.200   6.365  13.286  1.5795 -1.8154  0.1957
10112TIP3    H251752   5.188   6.274  13.166 -0.5023  1.2627 -2.0730
10113TIP3   OH251753   2.343   2.211   2.304 -0.3251  0.3703  1.0216
10113TIP3    H151754   2.397   2.135   2.282 -1.5313 -1.0090  2.5100
10113TIP3    H251755   2.374   2.281   2.246  1.0679 -1.1499 -0.1628
10114TIP3   OH251756   0.136   3.412   4.414  0.1739 -0.0982 -0.3655
10114TIP3    H151757   0.183   3.370   4.486 -0.4801  0.8840  0.6831
10114TIP3    H251758   0.105   3.495   4.451 -3.8050 -1.3466 -0.3746
10115TIP3   OH251759   6.133   5.853  17.099 -0.4749  0.4396  0.1846
10115TIP3    H151760   6.224   5.847  17.128 -0.7207  0.7668  1.0776
10115TIP3    H251761   6.138   5.859  17.004  0.2879 -2.6408 -0.0738
10116TIP3   OH251762   4.628   4.652   4.956 -0.4850 -0.4477 -0.1320
10116TIP3    H151763   4.550   4.599   4.970  0.2223 -1.0402  2.0561
10116TIP3    H251764   4.691   4.591   4.918 -0.2619 -0.7195  0.6447
10117TIP3   OH251765   1.130   0.017  15.680  0.1026 -0.3326  0.3484
10117TIP3    H151766   1.079   0.037  15.758  1.4405 -0.1764  1.2102
10117TIP3    H251767   1.069  -0.029  15.623 -0.7067 -1.1199  1.7948
10118TIP3   OH251768   3.127   3.032  14.670 -0.2443  0.5547 -0.2365
10118TIP3    H151769   3.042   3.031  14.714 -0.6403 -0.7615 -0.9775
10118TIP3    H251770   3.111   2.992  14.585  0.8869  1.3943 -0.8719
10119TIP3   OH251771   5.531   2.141  14.741  0.2718 -0.4194 -0.0364
10119TIP3    H151772   5.541   2.216  14.800 -1.4952  1.2307 -1.6598
10119TIP3    H251773   5.525   2.181  14.654 -0.4780 -2.4742 -0.9858
10120TIP3   OH251774   5.356   1.281  15.414 -0.2981 -0.3029  0.0598
10120TIP3    H151775   5.289   1.217  15.441 -0.6101  0.1787  0.4595
10120TIP3    H251776   5.415   1.286  15.490  1.1692 -1.9596 -0.9074
10121TIP3   OH251777   0.318   5.465  14.544  0.1845 -0.0423  0.2239
10121TIP3    H151778   0.305   5.472  14.449 -0.7206  2.7640  0.4742
10121TIP3    H251779   0.237   5.498  14.581  0.2356 -1.7901  2.0440
10122TIP3   OH251780   0.904   6.157   6.124 -0.0668  0.6205  0.5010
10122TIP3    H151781   0.929   6.240   6.164  1.8844 -0.5931  1.9518
10122TIP3    H251782   0.898   6.096   6.197  0.4807 -0.9683 -0.7246
10123TIP3   OH251783   2.101   1.458  14.037  0.0650 -0.2923  0.1528
10123TIP3    H151784   2.013   1.497  14.033  0.4082  0.5092  0.2195
10123TIP3    H251785   2.121   1.452  14.130 -0.8313 -2.6402  0.2670
10124TIP3   OH251786   4.361   2.154   4.443 -0.5659 -0.3304  0.3789
10124TIP3    H151787   4.435   2.093   4.450 -1.0137 -0.7594  1.5959
10124TIP3    H251788   4.301   2.126   4.512 -0.9023  1.3525  0.7978
10125TIP3   OH251789   3.600   0.633   3.910  0.2921  0.0137 -0.3834
10125TIP3    H151790   3.504   0.630   3.911  0.3023 -1.0648 -0.5108
10125TIP3    H251791   3.626   0.633   4.002  0.1661 -1.2020 -0.3241
10126TIP3   OH251792   3.813   1.653  14.693 -0.0005 -0.0464  0.0258
10126TIP3    H151793   3.894   1.693  14.726  0.0216  0.2224 -0.3552
10126TIP3    H251794   3.783   1.598  14.766  1.2022 -1.1744 -0.2837
10127TIP3   OH251795   1.765   6.130   3.137 -0.2167 -0.0676 -0.3683
10127TIP3    H151796   1.749   6.036   3.136 -1.3772  0.0956  0.6306
10127TIP3    H251797   1.688   6.168   3.094 -0.3889  0.4858  0.4019
10128TIP3   OH251798   5.934   1.672  11.479  0.2938  0.0551  0.1804
10128TIP3    H151799   5.856   1.644  11.528 -0.5840  0.4523 -0.9407
10128TIP3    H251800   5.901   1.737  11.416  1.5406  0.2571 -0.2973
10129TIP3   OH251801   4.900   6.339   2.559  0.8337  0.1410 -1.0910
10129TIP3    H151802   4.900   6.360   2.466  0.7744  0.0721 -1.1061
10129TIP3    H251803   4.907   6.244   2.563 -0.2306  0.0525 -1.0448
10130TIP3   OH251804   3.362   4.782   3.015 -0.2966 -0.0885  0.4234
10130TIP3    H151805   3.362   4.686   3.015  2.0827 -0.1462 -0.0597
10130TIP3    H251806   3.342   4.806   2.925 -1.3227 -0.0866  0.6360
10131TIP3   OH251807   2.125   0.516  16.709 -0.2362  0.2977  0.0826
10131TIP3    H151808   2.152   0.565  16.632  0.4987  0.6833  0.5761
10131TIP3    H251809   2.204   0.509  16.763 -0.6768 -0.1764  0.6873
10132TIP3   OH251810   5.724   5.393  14.213 -0.3392  0.1862  0.2632
10132TIP3    H151811   5.758   5.328  14.274  0.4008 -0.2934 -0.6289
10132TIP3    H251812   5.803   5.432  14.173 -0.7917  0.9215  0.0658
10133TIP3   OH251813   2.588   0.554  13.742 -0.5776 -0.0357  0.0674
10133TIP3    H151814   2.566   0.532  13.651  0.9063  0.2021 -0.3842
10133TIP3    H251815   2.536   0.632  13.761  0.6896  1.2319 -1.3585
10134TIP3   OH251816   5.938   4.794  15.474 -0.2235 -0.4879  0.1040
10134TIP3    H151817   5.946   4.829  15.385 -0.9110 -1.9581 -0.5568
10134TIP3    H251818   5.971   4.865  15.530 -0.4993  0.7625 -1.2509
10135TIP3   OH251819   6.086   0.396   5.754  0.3980  0.7462 -0.3509
10135TIP3    H151820   6.172   0.431   5.734  1.1593 -0.2031  1.0864
10135TIP3    H251821   6.103   0.318   5.806 -1.3127 -0.0951 -0.9823
10136TIP3   OH251822   5.045   0.694   6.473 -0.0881 -0.0398  0.1532
10136TIP3    H151823   5.018   0.778   6.436 -0.9922  0.2623  1.4228
10136TIP3    H251824   5.099   0.654   6.405 -0.9469  0.8671 -1.1019
10137TIP3   OH251825   3.473   5.755   5.130 -0.1647  0.0533 -0.5526
10137TIP3    H151826   3.543   5.809   5.096 -0.9137  1.9124  0.6671
10137TIP3    H251827   3.517   5.687   5.181  0.7795  0.8479 -0.2821
10138TIP3   OH251828   4.925   1.932   4.085  0.8528  0.2276 -0.6223
10138TIP3    H151829   4.962   1.982   4.158 -1.6418 -0.4294  1.2532
10138TIP3    H251830   4.946   1.841   4.105 -0.3248 -0.0080 -0.3754
10139TIP3   OH251831   4.035   1.510   0.638  0.6163 -0.0377 -0.2796
10139TIP3    H151832   3.986   1.590   0.655  1.3752  0.5670 -0.8626
10139TIP3    H251833   4.108   1.513   0.698  0.9786  0.0140 -0.7159
10140TIP3   OH251834   4.409   1.832  16.958 -0.5797 -0.0272 -0.2784
10140TIP3    H151835   4.431   1.816  17.049 -0.2132 -1.1063 -0.5373
10140TIP3    H251836   4.487   1.806  16.909  0.9200  4.4870 -0.7104
10141TIP3   OH251837   5.083   5.963   2.890 -0.4197  0.2986  0.4269
10141TIP3    H151838   5.012   6.005   2.842 -0.9917  1.1125  1.9342
10141TIP3    H251839   5.073   5.994   2.980  0.7533 -0.9969  1.0396
10142TIP3   OH251840   3.053   0.644   3.671 -0.0571  0.0581 -0.0453
10142TIP3    H151841   3.040   0.738   3.680  1.1730  0.1504  1.0789
10142TIP3    H251842   2.973   0.605   3.707 -0.6544  0.6519 -0.6846
10143TIP3   OH251843   5.716   4.207   3.833  0.4282 -0.1939 -0.2707
10143TIP3    H151844   5.791   4.264   3.850  0.5260  0.0886 -1.5440
10143TIP3    H251845   5.694   4.169   3.918 -0.0273  2.1971  0.7405
10144TIP3   OH251846   1.279   1.475   2.681  0.0016  0.4916  0.5087
10144TIP3    H151847   1.284   1.540   2.610 -0.0021  0.0818  0.1333
10144TIP3    H251848   1.190   1.483   2.715 -0.1388  0.3699  0.1663
10145TIP3   OH251849   6.426   0.708   6.411 -0.7233 -0.0155 -0.7832
10145TIP3    H151850   6.423   0.618   6.381  0.7933 -0.0197 -1.0235
10145TIP3    H251851   6.471   0.756   6.341  0.5903  0.4569  0.3329
10146TIP3   OH251852   4.093   4.374   1.029  0.2685  0.5210  0.4657
10146TIP3    H151853   4.069   4.433   1.101 -1.8857 -1.0574  1.1561
10146TIP3    H251854   4.121   4.432   0.959  0.4267  2.2320  1.8698
10147TIP3   OH251855   3.678   4.727  16.448 -0.1784  0.0323  0.7600
10147TIP3    H151856   3.707   4.749  16.536 -3.8506 -1.5950  2.5963
10147TIP3    H251857   3.681   4.631  16.445 -1.5988 -0.0114 -0.2799
10148TIP3   OH251858   4.161   4.887   1.223 -0.3002  0.1003  0.0594
10148TIP3    H151859   4.249   4.925   1.224 -0.1603 -0.2118  0.7201
10148TIP3    H251860   4.128   4.903   1.135  0.7260 -0.4731 -0.4462
10149TIP3   OH251861   3.567   6.295   4.562  0.1000  0.7466 -0.1395
10149TIP3    H151862   3.641   6.289   4.623  0.7934  0.5514 -0.9731
10149TIP3    H251863   3.499   6.240   4.601 -0.2895  2.2735  1.5301
10150TIP3   OH251864   4.763   6.271  11.173 -0.0534  0.6171 -0.7015
10150TIP3    H151865   4.705   6.305  11.105 -0.3058  3.1954  0.6698
10150TIP3    H251866   4.745   6.326  11.249  2.4423 -0.1109  0.5086
10151TIP3   OH251867   2.544   1.687   4.844  0.3161 -0.2065 -0.6414
10151TIP3    H151868   2.630   1.671   4.806  1.2990  0.8016  1.0274
10151TIP3    H251869   2.562   1.700   4.938 -1.8102 -1.3143 -0.0104
10152TIP3   OH251870   1.252   2.674  12.498  0.5230  0.1528  0.2849
10152TIP3    H151871   1.193   2.706  12.430  0.0981 -0.3654  0.4063
10152TIP3    H251872   1.227   2.582  12.511  0.4553  0.3013  1.2910
10153TIP3   OH251873   1.147   6.653   3.777  0.4620 -0.9755  0.1529
10153TIP3    H151874   1.179   6.605   3.853  1.0588 -1.7209 -0.5549
10153TIP3    H251875   1.110   6.586   3.720 -1.6682 -0.2372  0.5670
10154TIP3   OH251876   3.454   1.372   3.859 -0.1756 -0.5915 -0.0133
10154TIP3    H151877   3.537   1.412   3.887  0.2423 -0.4215 -1.4452
10154TIP3    H251878   3.400   1.371   3.939  0.1749  1.8632  0.3125
10155TIP3   OH251879   4.502   1.111  14.331 -0.2465 -0.1136  0.1493
10155TIP3    H151880   4.491   1.204  14.308 -2.0056 -0.2410  0.3546
10155TIP3    H251881   4.588   1.107  14.372 -0.3236  1.5205  0.5476
10156TIP3   OH251882   1.379   3.387   0.404  0.2176  0.0360 -0.4067
10156TIP3    H151883   1.343   3.470   0.375 -1.1409  0.3159  1.9208
10156TIP3    H251884   1.307   3.343   0.450  1.2838 -1.8453 -0.4060
10157TIP3   OH251885   2.386   4.137   1.878 -0.1210 -0.4412 -0.1314
10157TIP3    H151886   2.460   4.197   1.889  0.0271 -0.6935  0.2447
10157TIP3    H251887   2.400   4.069   1.943 -0.8157 -0.3673  0.0988
10158TIP3   OH251888   5.693   2.257   4.195 -0.7227 -0.3996  0.0405
10158TIP3    H151889   5.779   2.223   4.218 -1.1016 -1.1656  0.3637
10158TIP3    H251890   5.696   2.269   4.100 -0.9478 -2.4637 -0.2572
10159TIP3   OH251891   3.007   0.035  15.500 -0.6214  0.3974  0.6498
10159TIP3    H151892   2.939   0.044  15.567 -1.8857 -2.2923 -0.1430
10159TIP3    H251893   2.974  -0.032  15.440  0.9658  1.8883 -2.0894
10160TIP3   OH251894   0.057   2.825  16.359 -0.4599  0.1723 -0.4399
10160TIP3    H151895   0.051   2.919  16.378 -0.2455  0.1713 -0.3568
10160TIP3    H251896   0.151   2.810  16.343 -0.5055 -0.0105 -0.5410
10161TIP3   OH251897   4.354   4.021   5.250  0.0547  0.4818  0.9414
10161TIP3    H151898   4.295   4.022   5.325 -0.9934 -3.5626  0.4067
10161TIP3    H251899   4.298   4.040   5.175  0.0040 -0.4171  0.7367
10162TIP3   OH251900   0.354   2.932  13.392  0.2236 -0.5271  0.1773
10162TIP3    H151901   0.403   2.862  13.349 -0.2501 -1.0866  0.5324
10162TIP3    H251902   0.375   2.921  13.485  0.0038 -0.3095  0.2514
10163TIP3   OH251903   3.769   0.890   1.700 -0.8157 -0.5240  0.6933
10163TIP3    H151904   3.769   0.825   1.631  1.4118  0.6962 -0.5771
10163TIP3    H251905   3.821   0.851   1.770 -0.4514 -0.5796  0.3959
10164TIP3   OH251906   6.260   6.026   1.099  0.6228  0.5523  0.2408
10164TIP3    H151907   6.286   5.936   1.119 -0.1570  0.3306  0.2683
10164TIP3    H251908   6.177   6.038   1.145  1.6555  1.9153  1.8407
10165TIP3   OH251909   5.181   5.102  15.620  0.1679  0.0385 -0.2562
10165TIP3    H151910   5.178   5.198  15.613  2.6476  0.3709  1.5788
10165TIP3    H251911   5.271   5.079  15.595 -0.0547 -1.6609  0.3769
10166TIP3   OH251912   1.752   2.759  12.051 -0.0690 -0.3302  0.4377
10166TIP3    H151913   1.847   2.768  12.055  0.1232 -1.7409 -0.3784
10166TIP3    H251914   1.732   2.684  12.107 -0.4408 -1.3576 -0.9942
10167TIP3   OH251915   6.332   0.386  13.397  0.0586 -0.5442  0.5217
10167TIP3    H151916   6.427   0.398  13.401  0.1840 -1.1279 -0.4893
10167TIP3    H251917   6.304   0.393  13.488  0.9640  0.4273  0.7447
10168TIP3   OH251918   4.820   5.498  14.251  0.2014  0.8648 -0.1609
10168TIP3    H151919   4.744   5.505  14.194  0.5734  3.3033 -0.4701
10168TIP3    H251920   4.894   5.526  14.197  0.8434  1.4479  0.9821
10169TIP3   OH251921   0.179   1.474  11.807 -0.2856 -0.3381 -0.1060
10169TIP3    H151922   0.141   1.551  11.850 -1.8698 -0.1681 -1.6881
10169TIP3    H251923   0.202   1.505  11.720  1.2417 -1.1044 -0.0083
10170TIP3   OH251924   3.740   0.847   0.159  0.7076 -0.4953 -0.1770
10170TIP3    H151925   3.800   0.778   0.186 -0.4659 -1.8586 -0.9250
10170TIP3    H251926   3.795   0.925   0.152  1.5207 -0.5084  3.8642
10171TIP3   OH251927   0.556   5.023  12.459  0.1325 -0.2073  0.1284
10171TIP3    H151928   0.549   5.097  12.519  0.2275  0.3039 -0.4777
10171TIP3    H251929   0.507   4.952  12.502 -0.6531  0.4493  0.3369
10172TIP3   OH251930   4.371   3.068  11.648 -0.5121  0.6314  0.5783
10172TIP3    H151931   4.442   3.126  11.679  0.3657 -0.5312  0.8286
10172TIP3    H251932   4.407   2.980  11.658 -0.3777  0.1116 -3.2852
10173TIP3   OH251933   5.227   1.771   2.923 -0.0808 -0.7844 -0.3627
10173TIP3    H151934   5.229   1.753   3.017  0.6827  0.4026 -0.1299
10173TIP3    H251935   5.142   1.812   2.908 -0.8031 -2.2898 -0.4609
10174TIP3   OH251936   2.877   6.684   4.726  0.3253 -0.3607 -0.3487
10174TIP3    H151937   2.845   6.645   4.645  0.1092  0.4343 -0.6610
10174TIP3    H251938   2.808   6.745   4.753 -0.3588 -1.7845  1.3387
10175TIP3   OH251939   0.778   2.903   4.532 -0.2873  0.5548  0.0547
10175TIP3    H151940   0.721   2.827   4.520  0.7359 -0.0865 -0.9509
10175TIP3    H251941   0.835   2.902   4.455  0.2065  1.9394  0.3859
10176TIP3   OH251942   1.451   4.070   0.073  0.6768 -0.3837  0.1028
10176TIP3    H151943   1.454   4.166   0.074 -1.2414 -0.1799 -2.2112
10176TIP3    H251944   1.498   4.046  -0.007 -1.2192 -1.1077 -0.8619
10177TIP3   OH251945   5.027   3.702  13.873 -0.1475 -0.0906 -0.0502
10177TIP3    H151946   4.989   3.681  13.958  0.8924 -0.1915  0.3912
10177TIP3    H251947   5.098   3.763  13.891 -0.4842  0.5958 -0.9365
10178TIP3   OH251948   0.827   4.957  15.439 -0.2002 -0.0817 -0.2290
10178TIP3    H151949   0.866   4.930  15.522  0.8768  0.9525 -0.3762
10178TIP3    H251950   0.802   4.875  15.396 -0.3170 -0.6468  0.8924
10179TIP3   OH251951   3.279   6.461  13.637  1.1334 -0.2652 -0.1027
10179TIP3    H151952   3.241   6.470  13.549  0.9250  1.3167  0.1070
10179TIP3    H251953   3.330   6.380  13.633 -2.0385 -2.4203 -0.4528
10180TIP3   OH251954   5.514   4.546  16.075 -0.0718 -0.1995  0.7025
10180TIP3    H151955   5.604   4.565  16.047  0.1629 -1.8955  0.1866
10180TIP3    H251956   5.465   4.538  15.993 -0.6191  0.2770  0.9725
10181TIP3   OH251957   1.661   1.384  14.917 -0.2764  0.4523 -0.3850
10181TIP3    H151958   1.695   1.389  15.007 -1.5940  1.2009  0.1018
10181TIP3    H251959   1.610   1.303  14.916  0.6726 -0.1534 -0.8170
10182TIP3   OH251960   5.056   5.075   3.907  0.6600  0.7086 -0.1179
10182TIP3    H151961   5.063   5.037   3.819  2.7054  2.7553 -0.9297
10182TIP3    H251962   5.016   5.161   3.892 -0.9567  0.2413  1.2686
10183TIP3   OH251963   1.195   6.012   2.025 -0.3670 -0.3231 -0.9618
10183TIP3    H151964   1.191   6.094   2.075  0.1264  0.5355 -2.2586
10183TIP3    H251965   1.119   6.018   1.966 -0.8071 -1.2034 -0.4917
10184TIP3   OH251966   0.719   3.244  13.852 -0.0433 -0.5422 -0.1801
10184TIP3    H151967   0.776   3.241  13.775 -0.3108  0.4494 -0.4298
10184TIP3    H251968   0.668   3.163  13.847 -1.1807  0.2226 -1.9347
10185TIP3   OH251969   0.860   2.316  14.124 -0.3679  0.3875 -0.4676
10185TIP3    H151970   0.826   2.355  14.044  0.5404 -0.6343 -1.3886
10185TIP3    H251971   0.932   2.373  14.150 -0.6228  0.6830 -0.3954
10186TIP3   OH251972   5.649   3.715   5.219 -0.3389  0.1877  0.2664
10186TIP3    H151973   5.574   3.747   5.268 -1.1881 -1.2714 -0.0420
10186TIP3    H251974   5.718   3.704   5.285 -0.8705  0.0668  0.8035
10187TIP3   OH251975   1.730   2.914  12.321 -0.1169 -0.3342  0.0838
10187TIP3    H151976   1.689   2.847  12.267 -0.9286  0.4160 -0.2592
10187TIP3    H251977   1.697   2.897  12.410  0.5822 -1.0738  0.2101
10188TIP3   OH251978   4.108   0.956   4.959 -0.0652  0.0092  0.3538
10188TIP3    H151979   4.134   0.943   5.051  1.1071 -1.3613 -0.1207
10188TIP3    H251980   4.035   0.896   4.946 -1.2869  1.3610  0.7811
10189TIP3   OH251981   2.590   1.300   1.323 -0.2587  0.7843 -0.6522
10189TIP3    H151982   2.497   1.290   1.343 -0.5200  1.6791 -1.3821
10189TIP3    H251983   2.632   1.301   1.409 -0.8565 -0.1518 -0.3303
10190TIP3   OH251984   5.021   0.683  16.122  0.0220 -0.4655  0.0376
10190TIP3    H151985   4.945   0.688  16.065  0.8006 -1.1238 -1.0912
10190TIP3    H251986   4.985   0.671  16.210 -1.1691 -0.7640 -0.4810
10191TIP3   OH251987   3.961   3.612   6.105  0.3815  0.2853 -0.0422
10191TIP3    H151988   3.887   3.672   6.092  0.8915  1.1985  1.0852
10191TIP3    H251989   3.922   3.525   6.096 -0.2602  0.7209 -2.3672
10192TIP3   OH251990   2.815   4.952  11.400  0.3371  0.1692 -0.3501
10192TIP3    H151991   2.750   4.940  11.332  0.9053 -0.8451 -0.7391
10192TIP3    H251992   2.771   4.922  11.480  0.0918  0.1427 -0.4931
10193TIP3   OH251993   4.635   4.501  16.333  0.1178  0.1562  0.3526
10193TIP3    H151994   4.629   4.536  16.422  0.1789  0.8642  0.0862
10193TIP3    H251995   4.728   4.499  16.314  0.0952  0.1721  0.2391
10194TIP3   OH251996   1.064   1.627   0.674  0.2548 -0.7675 -0.2174
10194TIP3    H151997   1.033   1.627   0.583 -0.4523  0.1861  0.0210
10194TIP3    H251998   1.157   1.651   0.667  0.3126 -1.1068 -0.7136
10195TIP3   OH251999   4.691   6.737   0.482 -0.2531 -0.4171 -0.2061
10195TIP3    H152000   4.783   6.718   0.501 -0.6583 -0.4400  2.0483
10195TIP3    H252001   4.651   6.651   0.469 -0.0373 -0.4350 -0.7538
10196TIP3   OH252002   2.763   6.304  16.009 -0.2373  0.3242  0.4563
10196TIP3    H152003   2.730   6.287  16.097  0.0627  0.2802  0.5649
10196TIP3    H252004   2.686   6.324  15.957 -0.2351  2.6750  1.2495
10197TIP3   OH252005   2.475   0.953   2.633  0.1642 -0.0316 -0.3554
10197TIP3    H152006   2.440   0.867   2.613  0.5068  0.0921 -1.5479
10197TIP3    H252007   2.399   1.010   2.640 -0.0191 -0.2909 -0.2449
10198TIP3   OH252008   6.725   1.158   1.236  0.0155 -0.0181  0.3166
10198TIP3    H152009   6.752   1.247   1.257  0.2352 -0.3497  1.5122
10198TIP3    H252010   6.697   1.121   1.320 -0.4713 -0.9401 -0.2330
10199TIP3   OH252011   0.879   2.562  12.398  0.3176 -0.3548 -0.1111
10199TIP3    H152012   0.860   2.471  12.421 -1.0650 -0.4021 -1.2751
10199TIP3    H252013   0.849   2.613  12.473 -0.7974 -0.7327 -0.2868
10200TIP3   OH252014   0.954   6.731   2.663 -0.3114  0.4152 -0.0846
10200TIP3    H152015   0.939   6.767   2.751  0.5877 -2.0854  1.1928
10200TIP3    H252016   1.049   6.721   2.658 -0.3709  0.3678 -1.2898
10201TIP3   OH252017   5.112   3.335   4.705 -0.3711  0.4732 -0.4533
10201TIP3    H152018   5.180   3.319   4.639  1.1157 -0.3284  1.1931
10201TIP3    H252019   5.117   3.429   4.722  1.3987  0.2318  0.6718
10202TIP3   OH252020   2.617   1.160   4.275 -0.6111  0.2081  0.0681
10202TIP3    H152021   2.622   1.236   4.218  2.0768  1.1045  1.2886
10202TIP3    H252022   2.691   1.105   4.249 -0.8976 -0.6547  0.9854
10203TIP3   OH252023   4.397   3.533  11.225 -0.6725  0.2053 -0.0923
10203TIP3    H152024   4.488   3.517  11.248  0.0385  2.0208 -1.3632
10203TIP3    H252025   4.397   3.541  11.129 -2.3535 -0.7297 -0.2190
10204TIP3   OH252026   1.756   1.716   2.068  0.8191  0.0334 -0.2113
10204TIP3    H152027   1.720   1.677   2.148 -1.3383  0.6774 -0.8213
10204TIP3    H252028   1.708   1.674   1.997  1.5410  0.6668 -1.0947
10205TIP3   OH252029   3.726   5.983  14.217 -0.3261 -0.2367 -0.1352
10205TIP3    H152030   3.771   5.989  14.301 -1.1205  2.5209  0.1830
10205TIP3    H252031   3.795   5.964  14.154  0.5700 -0.4871  0.8907
10206TIP3   OH252032   3.151   1.214   3.741 -0.0089  1.1456  0.2762
10206TIP3    H152033   3.183   1.220   3.831 -0.8277  0.2244  0.6483
10206TIP3    H252034   3.122   1.123   3.732  2.6411  0.3867 -1.8223
10207TIP3   OH252035   2.021   0.665   2.270  0.5598 -0.1218  0.2501
10207TIP3    H152036   2.003   0.707   2.354  0.6180  0.5944 -0.0828
10207TIP3    H252037   2.057   0.735   2.216 -1.1475 -0.0848 -0.9492
10208TIP3   OH252038   3.986   1.648   4.473  0.4519 -0.3102 -0.1470
10208TIP3    H152039   4.007   1.609   4.558 -1.1746  1.5613  1.2118
10208TIP3    H252040   4.067   1.690   4.445  1.2021 -1.5566  0.1033
10209TIP3   OH252041   4.361   0.652   1.810  0.3131  0.1344 -0.4883
10209TIP3    H152042   4.293   0.592   1.781  0.4666  0.3754 -1.3950
10209TIP3    H252043   4.413   0.670   1.731  0.2828  1.4232 -0.2494
10210TIP3   OH252044   6.456   2.857   5.531 -0.0236  0.6256 -0.2821
10210TIP3    H152045   6.430   2.790   5.594 -0.9589 -1.2876 -2.5343
10210TIP3    H252046   6.550   2.867   5.542  0.0328 -0.6553  0.5197
10211TIP3   OH252047   2.463   1.385   3.300 -0.4757  0.0889  0.1818
10211TIP3    H152048   2.419   1.315   3.349 -3.4110  2.0048  0.4700
10211TIP3    H252049   2.456   1.462   3.356 -1.0633  1.5922 -1.8539
10212TIP3   OH252050   3.894   3.202   2.355 -0.2995  0.5163 -0.2123
10212TIP3    H152051   3.822   3.151   2.318 -0.1522 -0.0504  0.2491
10212TIP3    H252052   3.864   3.226   2.443  0.8291 -1.4773  0.7982
10213TIP3   OH252053   5.229   6.244  16.490 -0.5012  0.9236 -0.2019
10213TIP3    H152054   5.307   6.231  16.436  0.0031  2.2982  0.1650
10213TIP3    H252055   5.156   6.221  16.432  0.1788 -1.3620 -0.2468
10214TIP3   OH252056   5.434   6.660  11.096 -0.1068 -0.7115 -0.0728
10214TIP3    H152057   5.369   6.650  11.026  0.7505 -2.7225 -0.6551
10214TIP3    H252058   5.506   6.709  11.054 -0.4810 -0.0229  0.0652
10215TIP3   OH252059   3.801   3.641   2.744  0.1736  0.0673 -0.4912
10215TIP3    H152060   3.770   3.656   2.833  0.2800 -0.7797 -0.3021
10215TIP3    H252061   3.893   3.617   2.754 -0.5236 -3.0083 -0.5140
10216TIP3   OH252062   2.848   0.925   3.040  0.3663 -0.1929 -0.1589
10216TIP3    H152063   2.916   0.885   2.984 -0.5286  0.0343 -1.4655
10216TIP3    H252064   2.786   0.853   3.056 -0.2034  0.1301 -0.8297
10217TIP3   OH252065   3.432   2.038   1.774 -0.0130 -0.2250 -0.4450
10217TIP3    H152066   3.413   1.991   1.855 -0.9970  1.6807  0.5116
10217TIP3    H252067   3.347   2.068   1.743  0.5155  0.4641 -1.2877
10218TIP3   OH252068   6.090   3.093  16.190 -0.1115 -0.3893 -0.6212
10218TIP3    H152069   6.184   3.106  16.197  0.0447 -1.4103 -0.6399
10218TIP3    H252070   6.076   3.004  16.223 -0.8244 -0.9636 -2.3421
10219TIP3   OH252071   5.474   6.047   4.749  0.1471  0.0980 -0.0779
10219TIP3    H152072   5.510   6.034   4.662 -1.1963 -0.2882 -0.6081
10219TIP3    H252073   5.406   5.980   4.757  1.5082 -1.1353  2.0193
10220TIP3   OH252074   1.191   1.514  14.701  0.2902 -0.2572 -0.1353
10220TIP3    H152075   1.259   1.508  14.768  0.0256 -1.5195  0.0415
10220TIP3    H252076   1.138   1.589  14.727  2.2435  1.4777 -0.9054
10221TIP3   OH252077   2.440   0.393   5.550 -0.2521 -0.2558  0.0950
10221TIP3    H152078   2.445   0.486   5.527  0.3448 -0.3943 -0.3655
10221TIP3    H252079   2.494   0.349   5.484 -0.6810 -0.9503  0.2003
10222TIP3   OH252080   0.372   0.979  16.056  0.0086  0.3910 -0.2446
10222TIP3    H152081   0.405   1.064  16.086  1.2669 -0.0206 -0.3955
10222TIP3    H252082   0.282   0.975  16.089 -0.4124  2.1905 -1.1015
10223TIP3   OH252083   5.615   3.614  16.017  0.5173 -0.0049  0.1440
10223TIP3    H152084   5.570   3.674  15.958 -0.1593 -1.0943 -0.4795
10223TIP3    H252085   5.545   3.572  16.067  1.0561  0.6608  1.5346
10224TIP3   OH252086   6.164   3.684   0.283  0.2618 -0.3979  0.5845
10224TIP3    H152087   6.076   3.687   0.245  0.8512 -1.3103 -0.9163
10224TIP3    H252088   6.159   3.743   0.358 -2.0072 -1.4479  1.3451
10225TIP3   OH252089   1.450   3.402   2.146  0.2356 -0.0644  0.1198
10225TIP3    H152090   1.485   3.492   2.142  1.7191 -0.6464 -2.4067
10225TIP3    H252091   1.358   3.411   2.121  0.3427  0.7747 -0.0036
10226TIP3   OH252092   6.160   2.565   5.802 -0.7344 -0.6752 -0.4224
10226TIP3    H152093   6.236   2.578   5.746  0.0009 -0.6922  0.5467
10226TIP3    H252094   6.109   2.497   5.757 -0.2932 -0.5136 -1.1888
10227TIP3   OH252095   5.896   3.995  16.169  0.0582  0.2196  0.0626
10227TIP3    H152096   5.949   4.009  16.247 -0.6190 -1.4074  0.8596
10227TIP3    H252097   5.919   3.906  16.140 -0.5397  0.3731 -0.9314
10228TIP3   OH252098   2.296   4.630  16.465  0.5156 -0.3187 -0.0054
10228TIP3    H152099   2.293   4.554  16.407  0.3137  0.7853 -1.5151
10228TIP3    H252100   2.242   4.605  16.540 -0.4999 -1.2454 -1.0023
10229TIP3   OH252101   3.780   1.452   4.455 -0.1506  0.3514  0.4628
10229TIP3    H152102   3.825   1.369   4.440 -0.2995  0.2487  0.5809
10229TIP3    H252103   3.838   1.518   4.417 -0.5652  0.0930 -0.6529
10230TIP3   OH252104   0.482   3.503   3.447  0.4263 -0.0806  0.2904
10230TIP3    H152105   0.469   3.526   3.539  0.5672  1.6502 -0.0725
10230TIP3    H252106   0.567   3.541   3.425 -0.2358  0.7947 -0.9046
10231TIP3   OH252107   6.326   2.354  13.014  0.1239  0.6162  0.1409
10231TIP3    H152108   6.357   2.266  12.993 -1.4726  0.2121 -0.6592
10231TIP3    H252109   6.360   2.371  13.102 -0.1396 -1.0995  0.6092
10232TIP3   OH252110   4.397   1.631   4.691  0.7171  0.3224 -0.3496
10232TIP3    H152111   4.334   1.562   4.710  0.4479  0.4924 -0.6271
10232TIP3    H252112   4.481   1.585   4.680  0.2134 -0.2103 -2.4879
10233TIP3   OH252113   5.411   5.244   3.720 -0.0372  0.0007 -0.0939
10233TIP3    H152114   5.366   5.205   3.795  0.3879 -0.1295  0.0983
10233TIP3    H252115   5.401   5.180   3.649  0.0541 -0.1416  0.0204
10234TIP3   OH252116   2.321   1.153   2.731  0.7095  0.0319 -0.5953
10234TIP3    H152117   2.351   1.202   2.655  1.4833 -0.8403 -0.8800
10234TIP3    H252118   2.389   1.168   2.798 -0.3230  1.3717  0.1854
10235TIP3   OH252119   3.280   1.065  11.653 -0.1748  0.0863 -0.4148
10235TIP3    H152120   3.343   1.095  11.588  0.1241 -2.5773 -1.4911
10235TIP3    H252121   3.203   1.122  11.641  0.1139  0.0810 -2.6903
10236TIP3   OH252122   1.647   3.697  11.941  0.7518 -0.0334 -0.1717
10236TIP3    H152123   1.732   3.709  11.982  0.5790  1.2669 -0.1775
10236TIP3    H252124   1.602   3.781  11.952 -0.6195 -0.7576  0.0375
10237TIP3   OH252125   0.590   1.341  12.941 -0.3837  0.0384 -0.1268
10237TIP3    H152126   0.526   1.367  12.874  0.3219 -1.0689 -1.2577
10237TIP3    H252127   0.538   1.332  13.021 -0.8220  4.4083  0.3624
10238TIP3   OH252128   5.994   6.487  12.447  0.0051 -0.6754 -0.0666
10238TIP3    H152129   6.022   6.574  12.476 -1.9554  1.1755 -3.1647
10238TIP3    H252130   5.950   6.450  12.524  1.0987  0.9207  1.4288
10239TIP3   OH252131   6.050   6.546  15.263 -0.0880  0.1063  0.1311
10239TIP3    H152132   6.139   6.549  15.297 -0.1489 -1.3249  0.4424
10239TIP3    H252133   6.036   6.455  15.238 -1.3730  0.3650 -0.1769
10240TIP3   OH252134   4.650   3.743  15.342  0.2856  0.1095 -0.1578
10240TIP3    H152135   4.585   3.674  15.356  1.0966 -0.7603 -0.5072
10240TIP3    H252136   4.623   3.814  15.401 -2.0636  0.5957 -1.6933
10241TIP3   OH252137   3.118   5.577  14.974 -0.2199 -0.1032 -0.5993
10241TIP3    H152138   3.110   5.671  14.988 -1.6104 -0.1924 -0.6886
10241TIP3    H252139   3.212   5.560  14.980 -0.1469  0.8369  2.2791
10242TIP3   OH252140   1.364   5.229   2.702 -0.0275 -0.4480 -0.0404
10242TIP3    H152141   1.451   5.232   2.743  0.3626 -0.7397 -0.8239
10242TIP3    H252142   1.327   5.316   2.718  0.8290  0.0352 -0.5847
10243TIP3   OH252143   2.243   6.376   3.027 -0.2043  0.0491  0.2309
10243TIP3    H152144   2.171   6.368   2.964 -1.5099 -1.2101  1.8010
10243TIP3    H252145   2.219   6.318   3.099  1.6700  0.7522  1.5092
10244TIP3   OH252146   1.216   1.019   6.091  0.8258  0.3182  0.4579
10244TIP3    H152147   1.255   1.066   6.017 -0.8014 -0.2564 -0.8419
10244TIP3    H252148   1.243   0.928   6.079 -0.6143 -0.0387 -0.3109
10245TIP3   OH252149   0.725   3.005  12.665 -0.3897  0.4388  0.2352
10245TIP3    H152150   0.791   3.060  12.623 -1.0338  1.1080  0.0661
10245TIP3    H252151   0.676   2.966  12.592 -0.7128  0.6172  0.3514
10246TIP3   OH252152   0.147   6.312  12.005  0.6430  0.6855 -0.1117
10246TIP3    H152153   0.143   6.408  12.000 -2.2472  0.7633  1.5496
10246TIP3    H252154   0.218   6.294  12.066  0.4234  1.8548  0.5213
10247TIP3   OH252155   0.954   6.332  15.804  0.2051  0.6099 -0.6230
10247TIP3    H152156   0.904   6.262  15.845 -0.1636  0.9215 -0.5302
10247TIP3    H252157   1.002   6.373  15.876 -0.2796  1.0230 -0.5259
10248TIP3   OH252158   5.126   4.134  15.591  0.4719 -0.4351  1.1311
10248TIP3    H152159   5.068   4.077  15.541 -0.0811  0.4132  0.7759
10248TIP3    H252160   5.204   4.144  15.537  0.4567 -0.6308  1.0727
10249TIP3   OH252161   3.149   0.229  15.139 -0.3629 -0.7663  0.5010
10249TIP3    H152162   3.057   0.257  15.135 -0.5767 -1.0896  2.1937
10249TIP3    H252163   3.188   0.262  15.059 -1.3965  1.5124  0.8549
10250TIP3   OH252164   1.205   4.576   3.505  0.0572  0.1169  1.4915
10250TIP3    H152165   1.146   4.610   3.438  0.6422 -1.2238  0.2495
10250TIP3    H252166   1.161   4.498   3.538  0.9646 -0.7440  0.7449
10251TIP3   OH252167   3.821   1.225  15.025  0.4655 -0.1823  0.2254
10251TIP3    H152168   3.889   1.228  14.958  1.2184 -0.7354  0.9402
10251TIP3    H252169   3.817   1.133  15.051  0.1874  0.0210  0.9337
10252TIP3   OH252170   6.612   2.118  15.379 -0.0995 -0.0181 -0.3167
10252TIP3    H152171   6.699   2.098  15.414 -0.2138 -1.6251 -0.8859
10252TIP3    H252172   6.629   2.176  15.305  0.4921 -0.3021 -0.4111
10253TIP3   OH252173   3.368   2.532   2.782  0.5981  0.4061 -0.3444
10253TIP3    H152174   3.282   2.530   2.740 -0.4723 -0.4563  1.7017
10253TIP3    H252175   3.400   2.442   2.777  0.3995  0.2603  0.7106
10254TIP3   OH252176   5.246   4.297  15.928 -0.2544  0.4305  0.0839
10254TIP3    H152177   5.193   4.296  15.848 -3.6476 -1.2066  2.1103
10254TIP3    H252178   5.305   4.372  15.917 -1.3295  0.9297 -3.4243
10255TIP3   OH252179   5.275   0.350  16.307  0.7897  0.4479 -0.5206
10255TIP3    H152180   5.219   0.311  16.239  1.7954 -1.4785 -0.2991
10255TIP3    H252181   5.352   0.294  16.311  0.3147 -0.1872  2.9553
10256TIP3   OH252182   2.786   4.496   0.535 -0.5975  0.2234  0.1538
10256TIP3    H152183   2.695   4.496   0.505 -0.5485 -1.7165 -0.1403
10256TIP3    H252184   2.783   4.456   0.621 -0.0026 -0.0405  0.0576
10257TIP3   OH252185   0.758   0.311  16.403  0.4697 -0.0813 -0.1128
10257TIP3    H152186   0.792   0.304  16.314 -0.6784 -1.4698 -0.4791
10257TIP3    H252187   0.787   0.230  16.446 -1.4437 -0.8222 -0.1373
10258TIP3   OH252188   5.361   4.138   1.666 -0.5260 -0.1483 -0.6052
10258TIP3    H152189   5.331   4.179   1.585 -0.8534  1.4295  0.2848
10258TIP3    H252190   5.445   4.180   1.685 -1.4589  1.1067  0.9875
10259TIP3   OH252191   0.304   1.392   5.272  0.0973  0.2690  0.4018
10259TIP3    H152192   0.216   1.394   5.308 -0.2773  0.4875 -0.5217
10259TIP3    H252193   0.328   1.299   5.271 -0.2827  0.1749  0.2426
10260TIP3   OH252194   6.131   5.041   5.591 -0.7846 -0.1831 -0.2495
10260TIP3    H152195   6.127   5.125   5.638 -0.3308 -0.1969 -0.1821
10260TIP3    H252196   6.177   5.061   5.510 -0.6584 -0.3724 -0.2245
10261TIP3   OH252197   4.232   3.575   6.060 -0.3118 -0.2685  0.1563
10261TIP3    H152198   4.141   3.580   6.087 -0.7731  1.2501 -1.4862
10261TIP3    H252199   4.236   3.626   5.979  1.9483 -0.4975  0.0565
10262TIP3   OH252200   2.700   2.209   4.812  0.2099 -0.0805  0.5119
10262TIP3    H152201   2.674   2.149   4.882 -0.2405 -0.0885  0.3380
10262TIP3    H252202   2.773   2.259   4.850 -0.5838  0.5112  1.3000
10263TIP3   OH252203   5.498   1.444  12.681  0.1343  0.2893  0.0499
10263TIP3    H152204   5.512   1.362  12.633 -0.7278  0.7459 -1.0292
10263TIP3    H252205   5.408   1.439  12.713  0.6357  0.0874  1.4607
10264TIP3   OH252206   6.271   2.319   4.033  0.4874 -0.3324 -0.3238
10264TIP3    H152207   6.253   2.396   4.087  2.0123  0.0245 -0.2777
10264TIP3    H252208   6.193   2.264   4.043 -0.1700  0.7092  0.5022
10265TIP3   OH252209   0.857   1.378  15.423 -0.6591 -0.1657  0.2457
10265TIP3    H152210   0.912   1.455  15.411  1.1738 -1.5197 -0.4080
10265TIP3    H252211   0.846   1.370  15.518  0.6675 -0.1248  0.4135
10266TIP3   OH252212   5.504   2.288   0.430  0.0715  0.0972 -0.0434
10266TIP3    H152213   5.482   2.271   0.338  0.6006  1.3041 -0.4230
10266TIP3    H252214   5.587   2.242   0.443  0.9932  1.4793 -0.7670
10267TIP3   OH252215   5.020   4.992   0.619  0.4348  0.8693 -0.6658
10267TIP3    H152216   4.968   5.035   0.686  0.1112  0.4397 -0.6335
10267TIP3    H252217   4.958   4.975   0.548  1.0046  2.2639 -1.5199
10268TIP3   OH252218   4.004   1.843   3.933  0.1703  0.2494  0.0537
10268TIP3    H152219   3.935   1.834   3.867 -1.6737 -0.6584  1.9987
10268TIP3    H252220   3.959   1.876   4.011  1.3982 -2.5840  2.1427
10269TIP3   OH252221   3.279   3.435   4.371  0.1165 -0.5885  0.6895
10269TIP3    H152222   3.216   3.396   4.311  0.0246 -0.8040  0.9220
10269TIP3    H252223   3.343   3.366   4.388 -0.9791 -1.2396  2.4335
10270TIP3   OH252224   6.675   2.393   5.073 -0.3328 -0.1692  0.0684
10270TIP3    H152225   6.718   2.478   5.070  2.7741 -1.4881  1.8779
10270TIP3    H252226   6.620   2.396   5.151  1.0476 -0.2851  1.0782
10271TIP3   OH252227   6.501   0.335   1.431 -0.1712  0.3878  0.3085
10271TIP3    H152228   6.538   0.308   1.515  0.8883 -0.0832 -0.2882
10271TIP3    H252229   6.576   0.369   1.381 -1.0160  1.9069  0.0280
10272TIP3   OH252230   5.720   2.684  14.306 -0.2171  0.5806 -0.2038
10272TIP3    H152231   5.657   2.655  14.241 -0.1400 -0.5710  0.2045
10272TIP3    H252232   5.745   2.604  14.353 -1.1504  1.4872  2.0210
10273TIP3   OH252233   5.752   1.140   5.011  0.9706  0.1341 -0.4618
10273TIP3    H152234   5.766   1.222   5.058  0.9673 -0.6293  0.9022
10273TIP3    H252235   5.766   1.071   5.076 -1.3728 -0.9161 -0.9422
10274TIP3   OH252236   5.992   5.828   1.784  0.1756  0.3931  0.2177
10274TIP3    H152237   6.047   5.897   1.822  2.3570 -0.1666 -1.6920
10274TIP3    H252238   6.047   5.749   1.790 -1.9417 -1.0732  1.6141
10275TIP3   OH252239   4.569   0.287  15.684 -0.1168 -0.5450 -0.6040
10275TIP3    H152240   4.540   0.196  15.678 -0.0315 -0.7416  1.3704
10275TIP3    H252241   4.496   0.338  15.648 -0.0706 -1.3818 -1.9379
10276TIP3   OH252242   5.128   3.026  12.264 -0.3738 -0.4070 -0.2249
10276TIP3    H152243   5.102   3.110  12.227  0.1515 -0.4932 -0.8062
10276TIP3    H252244   5.223   3.032  12.274  0.0326 -1.7898 -2.5668
10277TIP3   OH252245   5.898   1.789  11.841  0.3685 -0.1061  0.6153
10277TIP3    H152246   5.984   1.766  11.807 -0.8248 -1.9016 -1.4404
10277TIP3    H252247   5.871   1.865  11.789 -1.2469 -2.5501 -2.4295
10278TIP3   OH252248   4.460   0.329  14.041 -0.1882 -0.3547 -0.2766
10278TIP3    H152249   4.468   0.247  13.992 -1.3676 -0.5644 -0.1555
10278TIP3    H252250   4.369   0.356  14.027  0.1631  0.9031 -0.2571
10279TIP3   OH252251   3.726   2.091   0.583  0.6889  0.0778  0.0677
10279TIP3    H152252   3.723   2.115   0.675  1.7583  0.9202 -0.0950
10279TIP3    H252253   3.652   2.136   0.543  0.9821  0.7574  0.2871
10280TIP3   OH252254   1.740   1.806   3.033 -0.2888 -0.2546 -0.6066
10280TIP3    H152255   1.780   1.720   3.023  0.8093 -0.1877  2.2485
10280TIP3    H252256   1.807   1.868   3.006  0.2616 -0.2335  0.7631
10281TIP3   OH252257   2.175   3.017   6.244  0.3285  0.0582 -0.0344
10281TIP3    H152258   2.162   3.008   6.339 -0.1197 -0.9690 -0.1753
10281TIP3    H252259   2.114   3.086   6.218 -1.0068 -0.9949  0.1565
10282TIP3   OH252260   4.222   0.396   3.373  0.7253 -0.2567 -0.0139
10282TIP3    H152261   4.131   0.367   3.370  0.4194  0.6724  0.0195
10282TIP3    H252262   4.272   0.316   3.388 -0.0910 -0.7600  0.0853
10283TIP3   OH252263   3.364   2.761  17.018  0.3386 -0.1075  0.2877
10283TIP3    H152264   3.311   2.687  17.046  1.0068 -1.2460 -1.3551
10283TIP3    H252265   3.437   2.764  17.080  0.0983 -0.5661  0.5938
10284TIP3   OH252266   6.236   0.587  14.157 -0.4356 -0.5067 -0.1812
10284TIP3    H152267   6.268   0.674  14.179 -2.7545  0.0965  1.1027
10284TIP3    H252268   6.184   0.600  14.078  0.4159 -1.0122 -0.8338
10285TIP3   OH252269   3.601   1.988   2.345  0.1770  0.4168  0.1226
10285TIP3    H152270   3.638   2.071   2.314  0.7793  0.2049  0.2625
10285TIP3    H252271   3.611   1.992   2.440  0.0855  0.2387  0.1399
10286TIP3   OH252272   4.788   3.901  12.676  0.3725 -0.1907 -0.5874
10286TIP3    H152273   4.698   3.879  12.698  0.6399 -1.4771 -0.7184
10286TIP3    H252274   4.841   3.850  12.737  1.0218  1.2206  0.0824
10287TIP3   OH252275   4.745   6.322   6.211  0.7293  0.4004 -0.2267
10287TIP3    H152276   4.700   6.378   6.274 -0.3904 -0.9582  0.2493
10287TIP3    H252277   4.831   6.306   6.249  0.4163  0.3863  0.5033
10288TIP3   OH252278   1.468   6.381  17.324  0.3014  0.9479  0.0066
10288TIP3    H152279   1.425   6.327  17.390  1.1450  0.8900  0.5308
10288TIP3    H252280   1.409   6.380  17.249 -0.2813  0.3274  0.4632
10289TIP3   OH252281   0.658   2.923  14.927  0.1740 -0.1398 -0.6842
10289TIP3    H152282   0.579   2.969  14.955  1.5842  0.6562  2.4286
10289TIP3    H252283   0.729   2.987  14.937  1.7458 -1.9433  0.5500
10290TIP3   OH252284   4.838   3.096  17.272 -0.5114  0.2345  0.3463
10290TIP3    H152285   4.746   3.103  17.247 -0.7171  1.4236  1.3793
10290TIP3    H252286   4.865   3.185  17.292  0.7466 -0.1606  0.5119
10291TIP3   OH252287   3.442   1.532   2.349 -0.1874 -0.0071 -0.8051
10291TIP3    H152288   3.455   1.456   2.293  0.6044  1.7542 -3.1688
10291TIP3    H252289   3.366   1.577   2.312  0.2495  1.1244 -0.3847
10292TIP3   OH252290   2.693   3.920  10.766 -0.1001  0.3009 -0.2111
10292TIP3    H152291   2.698   3.921  10.670  0.6887 -0.0300 -0.1801
10292TIP3    H252292   2.782   3.899  10.795 -0.0222  1.6347  0.6230
10293TIP3   OH252293   6.108   1.415  16.147 -0.1602  0.4826  0.1158
10293TIP3    H152294   6.137   1.346  16.088 -2.4303  0.4204 -1.0515
10293TIP3    H252295   6.068   1.369  16.221  0.9738  0.5734  0.8089
10294TIP3   OH252296   3.376   5.535  14.519 -0.0127  0.0050  1.0631
10294TIP3    H152297   3.346   5.512  14.607  0.2256  0.7914  1.3572
10294TIP3    H252298   3.336   5.621  14.502 -2.4505 -1.3633 -0.7763
10295TIP3   OH252299   1.131   5.437  12.282 -0.3654  0.3585 -0.1710
10295TIP3    H152300   1.151   5.387  12.362 -2.0071 -2.2438 -1.2525
10295TIP3    H252301   1.048   5.480  12.300 -0.1602  0.7346 -0.1013
10296TIP3   OH252302   1.518   6.725  12.865 -0.2807  0.0822  0.4619
10296TIP3    H152303   1.575   6.779  12.811 -1.7392  0.9271 -0.2893
10296TIP3    H252304   1.574   6.695  12.937  1.3194  0.1348 -0.7097
10297TIP3   OH252305   0.608   3.401   2.454 -0.1936  0.5193  0.3532
10297TIP3    H152306   0.638   3.346   2.526 -0.2436 -1.9678 -1.3575
10297TIP3    H252307   0.655   3.367   2.377 -1.1208  2.1518 -1.0093
10298TIP3   OH252308   3.532   4.982  14.094 -0.3997 -0.3184 -0.3877
10298TIP3    H152309   3.551   4.899  14.052 -0.8958  0.4942 -2.3516
10298TIP3    H252310   3.437   4.993  14.083 -0.7435 -0.5373  1.9219
10299TIP3   OH252311   1.054   5.004   4.026  0.1476  0.1751 -0.0518
10299TIP3    H152312   1.148   4.988   4.018  0.4159  1.7237 -0.1386
10299TIP3    H252313   1.028   4.949   4.101  1.1665 -0.0450  0.1629
10300TIP3   OH252314   1.361   6.664   4.397 -0.5984  0.1144 -0.5205
10300TIP3    H152315   1.449   6.626   4.398 -0.8114 -0.3829 -0.0234
10300TIP3    H252316   1.367   6.740   4.455 -0.6684 -0.3261  0.0689
10301TIP3   OH252317   4.809   1.338   2.580 -0.3987 -0.4121 -0.1094
10301TIP3    H152318   4.841   1.428   2.580 -0.7337 -0.2913 -0.7844
10301TIP3    H252319   4.873   1.290   2.633  0.3133  0.0336 -0.5516
10302TIP3   OH252320   0.105   2.379   1.104 -0.2340 -0.3223 -0.5038
10302TIP3    H152321   0.020   2.363   1.144 -0.3911 -1.1883 -1.1542
10302TIP3    H252322   0.132   2.465   1.138 -1.3889 -0.0033 -0.3511
10303TIP3   OH252323   4.274   0.644  11.837 -0.2709  0.7916  0.1127
10303TIP3    H152324   4.199   0.702  11.820  0.2172  2.5772  3.2280
10303TIP3    H252325   4.263   0.572  11.774 -2.0567  3.1883 -2.6072
10304TIP3   OH252326   1.191   5.238   4.009 -0.1516  0.5164 -0.4221
10304TIP3    H152327   1.126   5.173   3.983  0.7090 -1.1842  1.4440
10304TIP3    H252328   1.180   5.310   3.946 -1.9504 -0.8946 -1.8074
10305TIP3   OH252329   2.845   3.765  12.539  0.0065 -0.0468  0.4297
10305TIP3    H152330   2.808   3.725  12.460  0.6026  0.1601  0.0434
10305TIP3    H252331   2.938   3.744  12.536  0.2146  0.8264  0.5558
10306TIP3   OH252332   2.208   2.877  13.712  0.1674  0.1450  0.0522
10306TIP3    H152333   2.287   2.906  13.666 -0.4572 -0.1463 -1.2668
10306TIP3    H252334   2.238   2.850  13.798  1.3784  0.8239 -0.1386
10307TIP3   OH252335   6.588   1.301   1.483  0.4125  0.3854  0.3801
10307TIP3    H152336   6.674   1.343   1.481  1.3741 -1.4097 -2.4198
10307TIP3    H252337   6.591   1.244   1.559  2.0692 -0.2351 -0.1046
10308TIP3   OH252338   2.467   4.299  10.760  0.4535  0.4381 -0.0473
10308TIP3    H152339   2.477   4.389  10.790  1.4952  0.0316  0.8960
10308TIP3    H252340   2.491   4.245  10.835 -0.1365 -0.6351 -0.5978
10309TIP3   OH252341   5.107   2.354  15.861 -0.3234 -0.2045  0.1347
10309TIP3    H152342   5.106   2.313  15.775  0.6914 -1.7262  0.8069
10309TIP3    H252343   5.181   2.416  15.857  2.8460 -3.5367  1.2243
10310TIP3   OH252344   0.746   1.251   5.095  0.3779  0.3391  0.3202
10310TIP3    H152345   0.760   1.162   5.063 -2.3480  0.2133 -0.8022
10310TIP3    H252346   0.767   1.247   5.189  1.0915 -1.2375  0.1185
10311TIP3   OH252347   5.041   2.825   2.589  0.2218  0.0847  0.0022
10311TIP3    H152348   5.104   2.891   2.617 -0.1812  1.0740 -1.3039
10311TIP3    H252349   4.956   2.861   2.612  0.0400 -0.5732  0.4114
10312TIP3   OH252350   0.758   3.320   5.007  0.1089 -0.4348 -0.1001
10312TIP3    H152351   0.688   3.255   5.000 -2.1406  1.5511  1.9656
10312TIP3    H252352   0.769   3.333   5.101  1.2085  1.3819 -0.4228
10313TIP3   OH252353   5.294   6.432   5.306 -0.3530  0.9055  0.0420
10313TIP3    H152354   5.358   6.393   5.365  2.9006  3.1494 -1.6397
10313TIP3    H252355   5.236   6.483   5.363  0.7802  0.6176  1.5050
10314TIP3   OH252356   1.262   0.815   2.032 -0.0479 -0.6883  0.4313
10314TIP3    H152357   1.275   0.808   2.127  0.3692 -1.2954  0.3347
10314TIP3    H252358   1.348   0.838   1.998 -0.4471  0.6798  0.2989
10315TIP3   OH252359   0.468   4.886  12.998 -0.2106  0.4305 -0.0420
10315TIP3    H152360   0.539   4.895  13.062 -0.3325 -2.0389  0.5509
10315TIP3    H252361   0.473   4.794  12.970 -2.9047  0.2856 -0.2895
10316TIP3   OH252362   5.256   2.319   2.635  0.0185  0.5346  0.4441
10316TIP3    H152363   5.179   2.285   2.680 -2.0348  3.9156 -0.1767
10316TIP3    H252364   5.311   2.355   2.705  0.0542 -0.0496  0.7234
10317TIP3   OH252365   5.283   1.646   2.307  1.0573 -0.0317  0.0777
10317TIP3    H152366   5.263   1.588   2.381 -3.2955  1.1640  0.1109
10317TIP3    H252367   5.288   1.733   2.345  0.5784  0.3875 -0.7912
10318TIP3   OH252368   0.661   1.979  13.061  0.9263 -0.1761  0.2880
10318TIP3    H152369   0.583   1.923  13.070  0.8257  0.1752  1.8884
10318TIP3    H252370   0.732   1.918  13.041  0.5487 -0.7229  0.5766
10319TIP3   OH252371   1.827   3.493  12.690  0.0828  0.6867  0.6490
10319TIP3    H152372   1.846   3.518  12.781  1.1893  2.2817  0.0173
10319TIP3    H252373   1.909   3.458  12.657 -0.5262 -0.6071  0.4662
10320TIP3   OH252374   6.497   2.811  16.110 -0.1921  0.0806 -0.1885
10320TIP3    H152375   6.517   2.888  16.057 -0.2614  0.2691  0.0535
10320TIP3    H252376   6.448   2.846  16.185 -3.0883 -0.5610 -1.6630
10321TIP3   OH252377   1.176   6.068   4.514 -0.7064  0.5509 -0.6354
10321TIP3    H152378   1.194   5.974   4.512 -1.3008  0.4076  0.0663
10321TIP3    H252379   1.216   6.099   4.595 -0.6754  0.8659 -0.7680
10322TIP3   OH252380   3.126   4.951   1.497  0.1199 -0.2387 -0.3072
10322TIP3    H152381   3.209   4.980   1.534  0.5544 -0.3295 -1.1923
10322TIP3    H252382   3.137   4.857   1.485 -1.2331 -0.8407  2.4334
10323TIP3   OH252383   0.507   1.618   2.951 -0.1202 -0.2144  0.4934
10323TIP3    H152384   0.590   1.654   2.920  0.4055 -0.9244  1.0589
10323TIP3    H252385   0.517   1.523   2.943  0.1387 -0.4772  2.9752
10324TIP3   OH252386   1.426   2.620   4.631  0.1303  0.1014  0.0298
10324TIP3    H152387   1.409   2.604   4.538 -1.2078  1.2028  0.0586
10324TIP3    H252388   1.399   2.539   4.675  2.4768 -1.1418 -0.6509
10325TIP3   OH252389   1.524   2.951   1.087  0.1925  0.3969 -0.0417
10325TIP3    H152390   1.446   2.967   1.139  0.1667  1.5189 -0.4042
10325TIP3    H252391   1.568   3.036   1.081  1.8019 -0.3393  0.7044
10326TIP3   OH252392   6.196   4.784  14.515 -0.7162 -0.6424 -0.1979
10326TIP3    H152393   6.137   4.821  14.580 -0.8655  1.8261 -1.6310
10326TIP3    H252394   6.180   4.834  14.436  0.1208 -2.9287 -1.9396
10327TIP3   OH252395   1.680   3.659  15.163  0.0276 -0.2909 -0.6251
10327TIP3    H152396   1.672   3.582  15.107  1.4024 -0.3667 -0.7540
10327TIP3    H252397   1.590   3.689  15.177 -0.5687 -2.2157 -0.1409
10328TIP3   OH252398   2.539   2.847   0.688 -0.1867  0.0625  0.2664
10328TIP3    H152399   2.517   2.763   0.649 -1.1771  0.7550 -0.7353
10328TIP3    H252400   2.479   2.856   0.762 -0.1257 -0.0800  0.3333
10329TIP3   OH252401   2.960   2.919  15.671  0.0757  0.5596 -0.4380
10329TIP3    H152402   3.020   2.902  15.744 -0.0380 -0.2442 -0.5170
10329TIP3    H252403   2.950   2.834  15.628  0.2504  1.0436 -1.4814
10330TIP3   OH252404   2.556   2.182   1.164 -0.5645  0.1780 -0.0647
10330TIP3    H152405   2.493   2.251   1.187 -0.4173  0.2771  0.0422
10330TIP3    H252406   2.582   2.203   1.074 -2.2535 -1.0443 -0.8927
10331TIP3   OH252407   6.601   2.597   2.259  0.6019 -0.0665 -0.1663
10331TIP3    H152408   6.686   2.594   2.304  1.2373  0.8981 -1.2537
10331TIP3    H252409   6.552   2.665   2.306  0.0505 -1.2520  1.0474
10332TIP3   OH252410   2.195   6.748   2.519 -0.1215 -0.0749  0.2752
10332TIP3    H152411   2.220   6.825   2.468 -0.9361 -0.5569 -0.8977
10332TIP3    H252412   2.255   6.679   2.492  0.2860  0.0004  0.9551
10333TIP3   OH252413   5.490   5.395  12.416  0.1206  0.3581  0.0936
10333TIP3    H152414   5.407   5.374  12.373  0.8550  0.0339 -1.2081
10333TIP3    H252415   5.492   5.337  12.493 -1.0413  0.6858  0.4008
10334TIP3   OH252416   5.134   1.441  13.360 -0.1599 -0.8265 -0.5007
10334TIP3    H152417   5.127   1.484  13.275  0.8648 -1.7199 -1.0614
10334TIP3    H252418   5.203   1.489  13.407 -2.4906  1.3592  0.9272
10335TIP3   OH252419   3.166   0.753   1.153  0.2036  0.2075 -0.2093
10335TIP3    H152420   3.226   0.814   1.109 -1.1987  0.0707 -2.4827
10335TIP3    H252421   3.151   0.792   1.239  0.2422  2.4901 -1.1645
10336TIP3   OH252422   0.790   5.518  15.845 -1.1681  0.1848 -0.7157
10336TIP3    H152423   0.792   5.422  15.852 -1.2482  0.2073 -0.3392
10336TIP3    H252424   0.725   5.535  15.776 -2.2547 -0.0008  0.2260
10337TIP3   OH252425   1.440   5.283   1.578 -0.2258  0.3751  0.5496
10337TIP3    H152426   1.439   5.191   1.552  0.0338  0.3784  0.5265
10337TIP3    H252427   1.428   5.332   1.497  1.2053  0.4037  0.3297
10338TIP3   OH252428   2.869   3.280   1.131 -0.0470 -0.2394  0.2569
10338TIP3    H152429   2.784   3.281   1.086 -0.4391 -0.0269  0.9815
10338TIP3    H252430   2.897   3.189   1.127 -0.9947 -0.5897  1.2474
10339TIP3   OH252431   4.175   1.397  16.650  0.3725 -0.4256 -0.5978
10339TIP3    H152432   4.213   1.482  16.630  0.5450 -0.4242 -0.2806
10339TIP3    H252433   4.193   1.384  16.743 -1.2008 -0.0140 -0.1937
10340TIP3   OH252434   0.205   3.267   0.135  0.0322 -0.0756  0.2673
10340TIP3    H152435   0.118   3.228   0.146  0.4118 -0.6245  1.4192
10340TIP3    H252436   0.203   3.303   0.046 -0.4811 -2.3666 -0.7358
10341TIP3   OH252437   1.898   0.845   1.566 -0.1607 -0.0695 -0.0107
10341TIP3    H152438   1.825   0.903   1.589  0.8097  1.1437  0.1610
10341TIP3    H252439   1.976   0.899   1.582  0.7047 -0.5073 -2.3688
10342TIP3   OH252440   4.420   6.679   0.797 -0.1569 -0.0739 -0.1816
10342TIP3    H152441   4.512   6.697   0.817 -0.0145 -0.2221 -0.7035
10342TIP3    H252442   4.406   6.589   0.827  0.3780 -0.7316 -1.7805
10343TIP3   OH252443   1.625   1.229  15.829 -0.5536  0.0700 -0.1053
10343TIP3    H152444   1.672   1.208  15.749  0.8169  2.5603 -0.0470
10343TIP3    H252445   1.538   1.256  15.799 -1.4361 -2.7537 -0.3564
10344TIP3   OH252446   0.911   4.936  14.180 -0.3596 -0.2282  0.2471
10344TIP3    H152447   0.967   4.868  14.219 -0.8720  0.2785  1.9961
10344TIP3    H252448   0.972   5.004  14.153 -0.0316 -0.0834  1.2918
10345TIP3   OH252449   0.976   1.901   2.831 -0.3077  0.3973  0.4818
10345TIP3    H152450   1.046   1.941   2.882 -0.3287  0.6418  0.3208
10345TIP3    H252451   0.905   1.966   2.833 -0.0814  0.6857 -0.3794
10346TIP3   OH252452   0.085   0.940   1.093  0.4888 -0.2603 -0.9886
10346TIP3    H152453   0.029   0.918   1.019  0.8992  1.2661 -1.8072
10346TIP3    H252454   0.044   1.018   1.132  2.4004  1.3828 -2.0985
10347TIP3   OH252455   2.565   4.940  11.249 -0.0869 -0.1662 -0.4254
10347TIP3    H152456   2.623   4.916  11.176  0.1951  0.1976 -0.3202
10347TIP3    H252457   2.484   4.968  11.207  0.5929  1.5043 -0.6711
10348TIP3   OH252458   5.680   1.264   3.979 -0.6485 -0.1147  0.5774
10348TIP3    H152459   5.737   1.266   3.902 -0.6511 -0.5611  0.5629
10348TIP3    H252460   5.691   1.350   4.019 -0.4189  0.0127  0.2440
10349TIP3   OH252461   4.678   5.974  11.469  0.2612 -0.0143 -0.4136
10349TIP3    H152462   4.595   5.984  11.421 -0.4047 -1.7861  0.3055
10349TIP3    H252463   4.688   6.058  11.515 -0.7169  0.5223 -1.1227
10350TIP3   OH252464   6.744   3.807  17.216 -0.1136  0.0947 -0.0531
10350TIP3    H152465   6.834   3.808  17.247  0.0180  2.9184 -0.2546
10350TIP3    H252466   6.740   3.735  17.154  1.7624 -0.5733  0.5451
10351TIP3   OH252467   4.761   5.301  14.420  0.2036 -0.6520  0.5581
10351TIP3    H152468   4.712   5.241  14.364 -0.4535 -1.7349  2.2245
10351TIP3    H252469   4.814   5.352  14.360 -0.2612 -1.9557 -1.0212
10352TIP3   OH252470   3.633   5.929  13.743 -0.1560  0.6627  0.0455
10352TIP3    H152471   3.618   6.013  13.699 -1.6621  0.2734 -0.2597
10352TIP3    H252472   3.681   5.876  13.679  0.1387  1.0390 -0.0476
10353TIP3   OH252473   1.371   6.222   3.260 -0.5969 -0.3683 -0.1983
10353TIP3    H152474   1.358   6.202   3.352  0.5501  1.1974  0.3535
10353TIP3    H252475   1.368   6.318   3.256  0.6504 -0.3508 -1.5576
10354TIP3   OH252476   4.219   6.034   1.074 -0.1496 -0.3639 -0.1715
10354TIP3    H152477   4.261   6.101   1.128 -1.4886 -1.1901  2.0311
10354TIP3    H252478   4.231   5.953   1.122 -0.2698 -1.4103 -1.8154
10355TIP3   OH252479   1.950   1.185   4.618 -0.0597  0.2071 -0.2306
10355TIP3    H152480   2.031   1.179   4.669  0.4367 -1.5961 -1.1396
10355TIP3    H252481   1.891   1.237   4.673  1.1269  0.0655  1.2502
10356TIP3   OH252482   1.335   3.013  13.562  0.3914  0.2814  0.4425
10356TIP3    H152483   1.377   2.973  13.486 -0.0959  1.7975 -0.6646
10356TIP3    H252484   1.403   3.066  13.602 -0.4044  3.0543 -1.5775
10357TIP3   OH252485   1.800   4.386   5.172 -0.2642 -0.1234 -0.0340
10357TIP3    H152486   1.894   4.373   5.184 -0.0621  0.8540 -0.4444
10357TIP3    H252487   1.760   4.340   5.245  0.5459 -0.2820  0.3255
10358TIP3   OH252488   3.112   3.923   5.257 -0.2959  0.4060  0.0819
10358TIP3    H152489   3.143   3.841   5.217 -1.7804  0.2662 -0.8535
10358TIP3    H252490   3.090   3.979   5.183 -0.1039  1.3461  0.7205
10359TIP3   OH252491   5.904   3.158  16.887  0.2541  0.3444 -0.0473
10359TIP3    H152492   5.936   3.204  16.810  0.3651 -0.6499 -0.6085
10359TIP3    H252493   5.958   3.079  16.892 -0.0527  0.1732  0.7956
10360TIP3   OH252494   2.530   2.537  16.016  0.4570  0.3754 -0.6174
10360TIP3    H152495   2.552   2.528  16.109  0.2289  1.2688 -0.4625
10360TIP3    H252496   2.562   2.457  15.976  0.5430 -0.0322  0.2382
10361TIP3   OH252497   3.977   5.708  11.893 -0.1710 -0.3260 -0.1408
10361TIP3    H152498   3.944   5.795  11.914 -1.7035 -0.9896  0.3160
10361TIP3    H252499   3.942   5.652  11.962 -2.8605 -2.0629 -2.6973
10362TIP3   OH252500   3.139   1.018  16.594  0.2304  0.4996 -0.1570
10362TIP3    H152501   3.168   1.091  16.649  1.5357 -1.5721  2.0639
10362TIP3    H252502   3.203   0.949  16.610 -1.0424 -1.2275 -2.0539
10363TIP3   OH252503   2.179   6.289  15.653 -0.5260  0.0557 -0.8276
10363TIP3    H152504   2.093   6.254  15.678 -1.4395  1.6152 -1.6284
10363TIP3    H252505   2.225   6.215  15.614 -2.3277 -0.3599 -2.3225
10364TIP3   OH252506   3.272   4.252  15.633 -0.2441 -0.0088 -0.0852
10364TIP3    H152507   3.254   4.328  15.578 -0.8624 -0.1562 -0.0882
10364TIP3    H252508   3.278   4.288  15.722  2.6990  0.5491 -0.4002
10365TIP3   OH252509   0.367   2.541   3.810  0.0539 -0.2820 -0.0370
10365TIP3    H152510   0.410   2.621   3.779  0.9375 -0.5002  0.6064
10365TIP3    H252511   0.358   2.487   3.731  1.0342 -0.2603 -0.1757
10366TIP3   OH252512   4.539   6.659  15.348 -0.1125 -0.7339  0.1063
10366TIP3    H152513   4.573   6.597  15.283 -0.2040 -1.1012  0.4046
10366TIP3    H252514   4.590   6.641  15.427  0.1799 -0.1113  0.0684
10367TIP3   OH252515   1.681   2.588  12.249  0.3767  0.0576 -0.6386
10367TIP3    H152516   1.701   2.622  12.336  2.4843  1.1362 -1.4724
10367TIP3    H252517   1.642   2.502  12.265 -0.3513  0.7115  1.3749
10368TIP3   OH252518   5.345   0.458  14.351 -0.2520  0.4634 -0.2363
10368TIP3    H152519   5.356   0.428  14.261 -0.1070  0.8193 -0.3361
10368TIP3    H252520   5.251   0.476  14.359 -0.5816 -1.2718  0.2164
10369TIP3   OH252521   3.457   5.126   5.254 -0.2805 -0.4290  0.0895
10369TIP3    H152522   3.406   5.065   5.199 -0.7099  1.4913 -1.7853
10369TIP3    H252523   3.415   5.122   5.339 -1.6356 -1.1908 -0.5781
10370TIP3   OH252524   0.682   6.239   2.698  0.2027  0.1718 -0.5061
10370TIP3    H152525   0.762   6.288   2.681  0.9851 -0.0791  2.0316
10370TIP3    H252526   0.703   6.149   2.673  0.5144  0.2071 -0.3690
10371TIP3   OH252527   2.758   6.137   0.361 -0.0291 -0.1705  0.0706
10371TIP3    H152528   2.815   6.194   0.309 -0.5380  0.0908 -0.2132
10371TIP3    H252529   2.682   6.122   0.305 -1.3073  1.3620  1.3026
10372TIP3   OH252530   4.971   6.717  16.411  0.3973  0.3916 -0.5230
10372TIP3    H152531   5.000   6.642  16.463 -0.7769 -0.5672 -1.2091
10372TIP3    H252532   5.023   6.712  16.331  0.7744  0.7049 -0.3062
10373TIP3   OH252533   3.627   0.993  15.520  0.0824  0.0819 -0.0196
10373TIP3    H152534   3.638   0.994  15.615 -0.5786 -0.0053  0.0572
10373TIP3    H252535   3.701   0.940  15.488  1.6367  1.9474  0.2524
10374TIP3   OH252536   5.367   5.862  12.761  0.5011  0.2641 -0.0220
10374TIP3    H152537   5.346   5.775  12.727  2.1884  0.5623 -1.9889
10374TIP3    H252538   5.395   5.846  12.851 -1.7278 -0.8665  0.5522
10375TIP3   OH252539   3.559   6.688  13.706  0.2174  0.7014  0.5570
10375TIP3    H152540   3.594   6.771  13.673  1.6386 -0.5751 -1.3696
10375TIP3    H252541   3.516   6.649  13.629  0.7478 -0.9328  1.0578
10376TIP3   OH252542   5.073   1.345  15.700  1.1770 -0.0193 -0.1993
10376TIP3    H152543   5.089   1.297  15.782  0.4290 -0.7605 -0.4676
10376TIP3    H252544   5.149   1.402  15.690  0.4359  1.4591  1.9699
10377TIP3   OH252545   5.715   2.818   1.206  0.0299 -0.2264  0.0772
10377TIP3    H152546   5.735   2.727   1.181 -0.4081 -0.4488  0.5340
10377TIP3    H252547   5.692   2.813   1.298  2.1242  0.6605  0.6998
10378TIP3   OH252548   0.451   0.146   2.599 -0.3557  0.0100  0.0212
10378TIP3    H152549   0.533   0.098   2.585 -0.7441 -0.3001 -1.4341
10378TIP3    H252550   0.397   0.088   2.652 -0.1666 -0.4278 -0.2608
10379TIP3   OH252551   4.285   1.146   2.168 -0.3224  0.3444  0.2903
10379TIP3    H152552   4.240   1.062   2.178 -0.4556  0.3356 -0.3894
10379TIP3    H252553   4.228   1.198   2.112 -0.0840  0.7810  0.4446
10380TIP3   OH252554   0.112   6.753  11.470 -0.0775 -0.6834  0.9003
10380TIP3    H152555   0.133   6.677  11.525 -0.7069 -0.4683  1.4530
10380TIP3    H252556   0.093   6.823  11.532 -1.4502 -0.6062  0.4340
10381TIP3   OH252557   0.429   4.335  12.939  0.6458  0.0509 -0.2935
10381TIP3    H152558   0.480   4.256  12.923  0.7900  0.4065 -1.7921
10381TIP3    H252559   0.368   4.311  13.009  1.4927 -1.0036  0.1007
10382TIP3   OH252560   2.506   5.962  13.739 -0.4646 -0.0473  0.4777
10382TIP3    H152561   2.579   5.972  13.678  0.3274 -1.1887  1.2090
10382TIP3    H252562   2.454   6.042  13.728  1.5491  1.3685  0.8082
10383TIP3   OH252563   4.623   6.473   0.487 -0.1656  0.4341  0.4521
10383TIP3    H152564   4.655   6.446   0.401 -0.0440  0.8390  0.3710
10383TIP3    H252565   4.545   6.420   0.501  0.7524 -0.8849  0.8310
10384TIP3   OH252566   1.327   1.718   0.577 -0.5119  0.2231 -1.4048
10384TIP3    H152567   1.369   1.771   0.644  2.4935 -1.9823 -1.3319
10384TIP3    H252568   1.328   1.774   0.499  1.8096  0.6460 -1.1473
10385TIP3   OH252569   1.266   4.548   3.806 -0.4232 -0.0693  0.1286
10385TIP3    H152570   1.277   4.617   3.741  0.0286 -0.5936 -0.3642
10385TIP3    H252571   1.233   4.593   3.883  1.1060  0.9077  0.2477
10386TIP3   OH252572   5.326   1.089   6.261 -0.4198 -0.2391 -0.3516
10386TIP3    H152573   5.360   1.001   6.251 -1.8399 -0.7458 -1.0130
10386TIP3    H252574   5.250   1.080   6.318 -0.5307  0.5595 -0.3493
10387TIP3   OH252575   1.096   3.767   4.188  0.8066  0.6601  0.6916
10387TIP3    H152576   1.043   3.688   4.197 -0.7098  1.7207  1.5122
10387TIP3    H252577   1.170   3.740   4.133  0.0315 -1.1656  0.4669
10388TIP3   OH252578   0.867   2.753   0.101 -0.1183  0.2372  0.7916
10388TIP3    H152579   0.786   2.755   0.050  0.4119  0.2824 -0.0714
10388TIP3    H252580   0.922   2.688   0.056  0.1032 -0.2247  1.7100
10389TIP3   OH252581   6.361   4.119   0.214  0.3106  0.0917  0.2307
10389TIP3    H152582   6.443   4.073   0.231  0.9361  1.6505  1.6574
10389TIP3    H252583   6.347   4.109   0.120  2.9306  1.0007 -0.3439
10390TIP3   OH252584   4.831   2.153  12.475 -0.1759 -0.3203  0.5573
10390TIP3    H152585   4.924   2.160  12.452  0.0879  1.3010  1.9342
10390TIP3    H252586   4.790   2.117  12.397  1.1270  1.9085 -1.2687
10391TIP3   OH252587   0.252   5.843   5.604  0.1087  0.4377 -0.5886
10391TIP3    H152588   0.181   5.840   5.668  0.0336 -0.5311 -0.7099
10391TIP3    H252589   0.212   5.820   5.521  0.3153  1.1616 -0.8964
10392TIP3   OH252590   3.837   2.889   1.299 -0.9888  0.7099 -0.0696
10392TIP3    H152591   3.803   2.978   1.298 -1.2100  0.6271  0.0729
10392TIP3    H252592   3.871   2.875   1.211 -2.3474  0.4023 -0.5751
10393TIP3   OH252593   0.724   5.395   1.716  0.0570 -0.3255 -0.0023
10393TIP3    H152594   0.653   5.457   1.731 -0.0961 -0.4916 -0.0416
10393TIP3    H252595   0.703   5.320   1.771  0.7151  0.0205  0.7483
10394TIP3   OH252596   3.256   4.284  13.878 -0.1316  0.3825  0.1621
10394TIP3    H152597   3.187   4.240  13.827  0.2723  0.6925 -0.6588
10394TIP3    H252598   3.222   4.283  13.968 -1.0764  0.2615 -0.1752
10395TIP3   OH252599   4.625   0.262  15.324  0.0859  0.1415 -0.0030
10395TIP3    H152600   4.550   0.228  15.372  0.4718 -1.8413 -0.7111
10395TIP3    H252601   4.598   0.260  15.232  0.7722 -0.0017 -0.2097
10396TIP3   OH252602   1.515   4.170   4.782  0.4979 -0.3694 -0.2089
10396TIP3    H152603   1.583   4.197   4.844  0.5386  3.2941 -1.5701
10396TIP3    H252604   1.435   4.210   4.816  0.4984  1.6081 -2.2323
10397TIP3   OH252605   4.699   1.177  12.920 -0.6384 -0.4794  0.5305
10397TIP3    H152606   4.776   1.144  12.875  0.4654  0.1625  1.8567
10397TIP3    H252607   4.658   1.099  12.958  0.6811 -0.6406  1.7445
10398TIP3   OH252608   2.860   2.205  15.986  0.0448  0.2743 -0.7641
10398TIP3    H152609   2.936   2.255  16.014  0.7497 -0.7844 -0.7520
10398TIP3    H252610   2.885   2.169  15.901 -0.3871 -0.1897 -0.6999
10399TIP3   OH252611   5.670   4.686   1.515 -0.0497 -0.4907 -0.2272
10399TIP3    H152612   5.643   4.640   1.435 -1.3271  0.6337 -0.4672
10399TIP3    H252613   5.740   4.745   1.486 -0.0951 -0.5175 -0.3922
10400TIP3   OH252614   5.493   1.410   4.236 -0.4839 -0.2628  0.2728
10400TIP3    H152615   5.554   1.477   4.264 -0.7772 -0.0398  0.3855
10400TIP3    H252616   5.449   1.446   4.159 -1.8939  0.4199  1.3524
10401TIP3   OH252617   0.100   1.318   0.525 -0.3855 -0.1452 -0.5907
10401TIP3    H152618   0.105   1.234   0.571 -1.9897 -0.7379 -1.4183
10401TIP3    H252619   0.055   1.376   0.586 -0.6118 -0.3206 -0.5892
10402TIP3   OH252620   2.305   3.992  15.642  0.3842  0.2445  0.0870
10402TIP3    H152621   2.322   3.913  15.692 -0.2755  0.2946  0.4008
10402TIP3    H252622   2.235   4.036  15.689  2.4127  2.3122  1.3541
10403TIP3   OH252623   5.378   0.043  13.856  0.7827  0.5894 -0.0377
10403TIP3    H152624   5.431   0.067  13.932 -0.4016 -2.3626  1.9414
10403TIP3    H252625   5.290   0.075  13.877  0.6736  0.7186 -0.6901
10404TIP3   OH252626   4.366   3.690  13.003  0.3536 -0.5438  0.1360
10404TIP3    H152627   4.411   3.768  13.037  0.6020 -0.5705 -0.1244
10404TIP3    H252628   4.397   3.618  13.057 -1.4095 -0.1859  1.7199
10405TIP3   OH252629   5.211   3.459  14.831 -0.1956  0.2672 -0.2841
10405TIP3    H152630   5.199   3.364  14.821 -0.7440  0.3849 -0.7450
10405TIP3    H252631   5.147   3.498  14.772 -0.1834  0.9334  0.1375
10406TIP3   OH252632   2.661   4.492   4.372  0.4046  1.0068  0.2494
10406TIP3    H152633   2.589   4.456   4.424 -0.6649  1.1632 -1.0598
10406TIP3    H252634   2.621   4.564   4.322  1.6074  1.4711 -0.0856
10407TIP3   OH252635   6.673   0.456   0.824  0.0526  0.1115  0.3291
10407TIP3    H152636   6.592   0.458   0.874  0.0586 -0.1722  0.3483
10407TIP3    H252637   6.742   0.470   0.888 -0.0529  1.7360  0.1399
10408TIP3   OH252638   1.940   1.780  12.644 -0.7474  0.3611 -0.3228
10408TIP3    H152639   1.995   1.730  12.705 -0.9153 -0.5277 -0.8795
10408TIP3    H252640   1.905   1.714  12.584  0.5556  1.3848 -2.3151
10409TIP3   OH252641   0.743   3.541  12.999  0.1397  0.6300 -0.1816
10409TIP3    H152642   0.680   3.496  13.054  0.9230  0.4877  0.6170
10409TIP3    H252643   0.690   3.591  12.937 -0.7505 -0.5588 -0.4242
10410TIP3   OH252644   4.791   3.676   0.561  0.3692 -0.4691 -0.2996
10410TIP3    H152645   4.854   3.652   0.629 -0.9556  0.1461  1.2025
10410TIP3    H252646   4.756   3.593   0.529 -0.9176 -0.7445  1.6821
10411TIP3   OH252647   6.728   6.070   0.449  0.3675 -0.1825  0.7939
10411TIP3    H152648   6.687   6.098   0.531 -0.4988  1.1631 -0.0540
10411TIP3    H252649   6.658   6.028   0.400 -0.0050  1.7977 -0.5119
10412TIP3   OH252650   5.665   4.485   3.412  0.1290 -0.7680  0.2367
10412TIP3    H152651   5.719   4.445   3.344  1.9052  0.9905  0.4960
10412TIP3    H252652   5.712   4.465   3.493  0.4343  0.7625  0.4730
10413TIP3   OH252653   3.521   2.059  14.303  0.0747 -0.1140  0.7334
10413TIP3    H152654   3.585   2.128  14.288 -0.7234  0.5335  0.2185
10413TIP3    H252655   3.520   2.008  14.221 -0.8545  0.5521  0.3139
10414TIP3   OH252656   5.044   0.408   5.243  0.1002  0.0537 -0.1303
10414TIP3    H152657   4.996   0.407   5.327 -0.4082  0.8828 -0.4012
10414TIP3    H252658   5.132   0.379   5.266 -0.4498 -1.3069  0.4208
10415TIP3   OH252659   3.772   3.359  14.024  0.3021 -0.2435  0.2274
10415TIP3    H152660   3.820   3.277  14.016 -0.2723 -0.6771  1.1530
10415TIP3    H252661   3.741   3.361  14.114  0.7717  1.2557  0.3954
10416TIP3   OH252662   0.706   2.949  14.114  0.0660  0.7611  0.4412
10416TIP3    H152663   0.712   2.923  14.022 -0.0443  1.0689  0.3484
10416TIP3    H252664   0.707   2.866  14.162 -1.0122  0.5508  0.1119
10417TIP3   OH252665   3.913   1.864  14.900  0.1467 -0.5084  0.3029
10417TIP3    H152666   3.878   1.810  14.970 -0.4504  0.1467  0.5148
10417TIP3    H252667   3.848   1.932  14.887  0.8024  0.0569 -0.0841
10418TIP3   OH252668   1.130   5.885  13.964 -0.2574 -0.2105 -0.0523
10418TIP3    H152669   1.150   5.979  13.959  0.4777 -0.3452  0.1989
10418TIP3    H252670   1.211   5.846  13.998 -0.2015 -1.0626 -1.1299
10419TIP3   OH252671   0.714   6.629  11.841 -0.0357  0.3896 -0.2948
10419TIP3    H152672   0.726   6.539  11.809  0.3024  0.0657  0.6984
10419TIP3    H252673   0.680   6.618  11.930  1.0021  1.2176  0.2268
10420TIP3   OH252674   1.917   4.103  16.921 -0.7718 -0.7936 -0.1370
10420TIP3    H152675   1.938   4.163  16.993 -2.2308 -0.7768  0.3140
10420TIP3    H252676   1.932   4.016  16.958 -3.0906 -0.8631  0.8080
10421TIP3   OH252677   6.343   3.352  11.568 -0.2013 -0.3606  0.4541
10421TIP3    H152678   6.307   3.343  11.656  0.6120  1.5035  1.0097
10421TIP3    H252679   6.296   3.425  11.529  0.6548 -0.0437 -0.0230
10422TIP3   OH252680   0.098   5.516   4.648  0.4028 -0.2392 -0.7460
10422TIP3    H152681   0.040   5.548   4.718  0.0161 -0.3063 -1.0309
10422TIP3    H252682   0.052   5.439   4.613  0.7708 -0.4214 -0.8309
10423TIP3   OH252683   3.361   5.209  11.204  0.0764  0.5054 -0.1069
10423TIP3    H152684   3.431   5.243  11.149 -0.8284  1.8719 -0.4559
10423TIP3    H252685   3.283   5.257  11.176 -0.6658  0.2799  1.4768
10424TIP3   OH252686   4.203   4.773   1.488  0.0593 -0.3532 -0.1430
10424TIP3    H152687   4.136   4.705   1.488 -0.5091  0.2020  0.2707
10424TIP3    H252688   4.197   4.812   1.401 -0.7357  0.2605  0.1826
10425TIP3   OH252689   4.723   2.810   3.087  0.1557  0.0381 -0.4310
10425TIP3    H152690   4.798   2.854   3.128  0.7935 -1.6059  0.2363
10425TIP3    H252691   4.750   2.796   2.996  0.8786 -0.9566 -0.0816
10426TIP3   OH252692   2.659   4.007   2.674 -0.4008  0.4955  0.1298
10426TIP3    H152693   2.586   4.032   2.617 -0.2717 -0.3464 -0.4196
10426TIP3    H252694   2.730   4.067   2.649 -0.5334  0.5279 -0.1806
10427TIP3   OH252695   0.631   2.991   4.255  0.0321  0.6774  0.3396
10427TIP3    H152696   0.633   2.985   4.351 -1.5282 -0.1068  0.3482
10427TIP3    H252697   0.621   3.085   4.238  0.3771  0.8296  0.9463
10428TIP3   OH252698   0.706   5.524   2.379  0.2634 -0.7943 -0.0818
10428TIP3    H152699   0.624   5.481   2.401  0.7405 -2.0794 -0.7293
10428TIP3    H252700   0.730   5.490   2.293  1.2615 -0.1358 -0.0863
10429TIP3   OH252701   0.962   0.198   5.609  0.2310 -0.4951  0.3085
10429TIP3    H152702   0.868   0.198   5.622  0.4646 -1.7900  2.4861
10429TIP3    H252703   0.975   0.244   5.526 -2.4198 -1.7369 -0.9073
10430TIP3   OH252704   2.497   0.950   2.182  0.3017 -0.1738 -0.1412
10430TIP3    H152705   2.542   0.974   2.263 -0.5083 -1.5806  0.7592
10430TIP3    H252706   2.565   0.908   2.129  1.0395  1.4728 -0.5941
10431TIP3   OH252707   2.276   5.161  13.555  0.2042 -0.5734 -0.5095
10431TIP3    H152708   2.336   5.137  13.626 -0.0121  1.4256  0.4026
10431TIP3    H252709   2.200   5.198  13.599 -1.4283 -2.2987 -1.6839
10432TIP3   OH252710   1.634   6.531  15.565 -0.1990  0.4568 -0.1926
10432TIP3    H152711   1.588   6.539  15.649 -0.3779  1.0210 -0.3427
10432TIP3    H252712   1.568   6.553  15.499 -0.5218 -1.5214 -0.6055
10433TIP3   OH252713   0.079   2.174  11.671 -0.1250 -0.6980  0.1386
10433TIP3    H152714   0.068   2.252  11.725  0.3040 -0.7834  0.3517
10433TIP3    H252715   0.160   2.189  11.622  0.0580 -1.0850  0.3163
10434TIP3   OH252716   0.803   3.757  12.289 -0.4326 -0.1920 -0.2218
10434TIP3    H152717   0.727   3.804  12.256 -0.4081  0.2856  0.3705
10434TIP3    H252718   0.878   3.812  12.262 -0.3768 -0.0872  0.1429
10435TIP3   OH252719   3.839   4.898   2.286 -0.0669 -0.1982 -0.0501
10435TIP3    H152720   3.933   4.889   2.270  0.4379 -1.4339  2.9870
10435TIP3    H252721   3.828   4.988   2.315  0.3258 -0.2788  0.3565
10436TIP3   OH252722   4.241   3.628   3.952  0.0298  0.1359 -0.0799
10436TIP3    H152723   4.164   3.607   4.004  0.2692 -1.7103 -0.4158
10436TIP3    H252724   4.234   3.722   3.936 -2.7134 -0.1464 -0.9891
10437TIP3   OH252725   3.291   2.472  13.993  0.2820 -0.2397 -0.8259
10437TIP3    H152726   3.267   2.414  13.921  2.3453 -1.2925 -0.7446
10437TIP3    H252727   3.322   2.552  13.950 -0.0473 -0.2235 -1.0361
10438TIP3   OH252728   0.700   6.295   1.289  0.3154  0.1422  0.1290
10438TIP3    H152729   0.745   6.342   1.220  0.7397  1.5532  1.3113
10438TIP3    H252730   0.723   6.342   1.369  0.9743 -2.2255  1.4387
10439TIP3   OH252731   6.653   6.472   3.881 -0.0865  0.0803  0.6235
10439TIP3    H152732   6.648   6.547   3.940  1.4303 -1.1459  2.4419
10439TIP3    H252733   6.571   6.475   3.832 -1.3412  1.3078  2.6301
10440TIP3   OH252734   3.002   6.105  12.193 -0.2696 -0.0942 -0.4249
10440TIP3    H152735   2.956   6.179  12.233 -1.3651 -0.0251 -1.7569
10440TIP3    H252736   2.960   6.027  12.230 -0.0645 -0.0609 -0.1076
10441TIP3   OH252737   3.069   4.745   4.122  0.2020  0.0924 -0.5922
10441TIP3    H152738   3.022   4.752   4.039  1.0126  1.5769 -0.9800
10441TIP3    H252739   3.002   4.757   4.189 -0.0149  2.3136 -1.1343
10442TIP3   OH252740   3.865   0.530  12.314  0.4277  0.0931 -0.0018
10442TIP3    H152741   3.926   0.573  12.254  0.1977 -0.2275 -0.4672
10442TIP3    H252742   3.919   0.472  12.367  0.8770  1.5572  1.2155
10443TIP3   OH252743   0.811   2.145   2.863 -0.0909  0.4840  0.1026
10443TIP3    H152744   0.805   2.190   2.947 -1.8792 -0.9477  0.8103
10443TIP3    H252745   0.721   2.131   2.836  0.4521  0.3347 -1.7568
10444TIP3   OH252746   4.531   4.041   1.195 -0.9908  0.6764 -0.0161
10444TIP3    H152747   4.618   4.058   1.231 -0.0779  0.2975 -1.8778
10444TIP3    H252748   4.519   4.110   1.129 -1.7762  0.2969 -0.2812
10445TIP3   OH252749   3.239   0.439  13.737 -0.6015 -0.4448 -0.0913
10445TIP3    H152750   3.255   0.360  13.686 -1.9394 -0.2847 -0.8235
10445TIP3    H252751   3.201   0.407  13.819  0.6355 -0.6487  0.4184
10446TIP3   OH252752   2.666   3.143  14.609 -0.0551  0.2223 -0.0614
10446TIP3    H152753   2.600   3.082  14.576  0.5134 -1.3175  1.5013
10446TIP3    H252754   2.648   3.224  14.562 -3.1562 -0.0766  0.3707
10447TIP3   OH252755   5.056   0.828   0.802  0.1387 -0.3180  0.3397
10447TIP3    H152756   5.030   0.855   0.890  0.1018  1.3202 -0.1429
10447TIP3    H252757   5.132   0.771   0.816 -0.9159 -1.5182  1.4985
10448TIP3   OH252758   1.917   1.920   2.066 -0.0719 -0.2801  0.3450
10448TIP3    H152759   1.841   1.866   2.087 -0.3297  0.1271  0.4732
10448TIP3    H252760   1.993   1.865   2.087 -0.3299 -0.7614  0.0231
10449TIP3   OH252761   5.635   3.624  11.452  0.2498 -0.7999 -0.0571
10449TIP3    H152762   5.606   3.542  11.412  0.1379 -0.8237  0.0704
10449TIP3    H252763   5.561   3.651  11.506  0.5134 -0.9321  0.3792
10450TIP3   OH252764   6.561   6.168   3.159 -0.3414 -0.0179  0.6287
10450TIP3    H152765   6.632   6.122   3.113 -0.3570  0.1423  0.4451
10450TIP3    H252766   6.604   6.208   3.235 -0.1978  0.2330  0.4183
10451TIP3   OH252767   2.661   6.368   5.094 -0.0233 -0.0876 -0.7808
10451TIP3    H152768   2.701   6.343   5.010  1.2378  0.3112 -0.3284
10451TIP3    H252769   2.725   6.341   5.159 -1.2052 -0.8357  0.1115
10452TIP3   OH252770   0.145   5.703  15.328 -0.1342  0.7407  0.5239
10452TIP3    H152771   0.059   5.739  15.306 -0.2951  0.4362  0.6448
10452TIP3    H252772   0.163   5.640  15.258 -0.3291  0.2874  0.8771
10453TIP3   OH252773   0.123   3.545  10.556  0.1919 -0.0831  0.4505
10453TIP3    H152774   0.196   3.604  10.538  0.0855  0.0066  0.3071
10453TIP3    H252775   0.147   3.501  10.637 -1.1361  2.4515  2.3302
10454TIP3   OH252776   3.347   0.202  11.009  0.0843  0.0219 -0.1404
10454TIP3    H152777   3.407   0.238  10.944 -0.6565 -0.0379 -0.8690
10454TIP3    H252778   3.389   0.122  11.040  0.3879 -0.0094 -0.6330
10455TIP3   OH252779   6.426   4.298  14.980 -0.3589 -0.3730 -0.0589
10455TIP3    H152780   6.358   4.364  14.991  1.2868  1.5106 -0.6906
10455TIP3    H252781   6.446   4.299  14.887 -0.5942 -2.1317 -0.1651
10456TIP3   OH252782   3.780   1.286  17.324 -0.1281  0.3347  0.2122
10456TIP3    H152783   3.743   1.225  17.387  0.1147 -1.3442 -1.1843
10456TIP3    H252784   3.711   1.296  17.258  0.9903 -1.0371 -1.2406
10457TIP3   OH252785   6.660   6.370   2.435  0.3000 -0.0747  0.1710
10457TIP3    H152786   6.721   6.379   2.362 -0.1816  3.3246  0.0540
10457TIP3    H252787   6.674   6.448   2.489 -0.3765 -1.7455  3.0009
10458TIP3   OH252788   5.505   3.180  17.187 -0.0376 -0.4003 -0.1191
10458TIP3    H152789   5.589   3.143  17.214 -0.9526 -2.4495  0.1000
10458TIP3    H252790   5.476   3.233  17.261  0.1053 -1.3899  0.6640
10459TIP3   OH252791   6.114   5.944  16.154 -0.1909  0.1554 -0.4063
10459TIP3    H152792   6.114   5.851  16.131  0.2544 -0.7768  2.8623
10459TIP3    H252793   6.022   5.969  16.149 -0.5040 -0.8588 -0.0411
10460TIP3   OH252794   2.598   4.500  16.653 -0.6997  0.0856 -0.8141
10460TIP3    H152795   2.569   4.518  16.563  0.0781 -0.1554 -1.1167
10460TIP3    H252796   2.517   4.493  16.703 -1.1545 -0.1478 -1.5692
10461TIP3   OH252797   0.748   0.195   3.597 -0.3569 -0.3053 -0.2591
10461TIP3    H152798   0.770   0.257   3.667 -0.6247  0.4917 -0.8595
10461TIP3    H252799   0.756   0.109   3.637 -1.6776  0.1573  1.1035
10462TIP3   OH252800   2.404   3.278   2.602 -0.3339 -0.0208 -0.1865
10462TIP3    H152801   2.347   3.346   2.636  0.7261  0.9895 -0.3792
10462TIP3    H252802   2.379   3.269   2.510 -2.1108 -1.6310  0.3870
10463TIP3   OH252803   1.229   5.681  13.241  0.0066  0.2927 -0.0381
10463TIP3    H152804   1.295   5.612  13.251  0.1030  0.3914  0.0075
10463TIP3    H252805   1.264   5.739  13.174  0.0529  0.4473  0.1194
10464TIP3   OH252806   0.593   4.732   1.584  0.1674  1.2072 -0.3505
10464TIP3    H152807   0.520   4.709   1.642  0.0691  1.9695 -0.1589
10464TIP3    H252808   0.580   4.678   1.506  0.5923 -0.2273  0.5358
10465TIP3   OH252809   2.667   2.072  12.729 -0.2687  0.7695  0.1157
10465TIP3    H152810   2.692   2.165  12.724  0.7336  0.5469  0.7490
10465TIP3    H252811   2.671   2.041  12.639  0.2445  1.1285  0.0091
10466TIP3   OH252812   4.219   3.590   4.235 -0.6095  0.0351  0.0756
10466TIP3    H152813   4.311   3.617   4.226 -0.4238 -0.0297  1.4942
10466TIP3    H252814   4.172   3.671   4.255 -0.4220 -0.2794  1.9731
10467TIP3   OH252815   6.100   6.315  13.586  0.6627 -0.4057 -0.1860
10467TIP3    H152816   6.046   6.238  13.568  1.0708 -0.4162 -1.5558
10467TIP3    H252817   6.056   6.360  13.657 -0.8164 -0.7381 -0.8573
10468TIP3   OH252818   3.042   6.060  16.653 -0.1560 -0.0326 -0.2811
10468TIP3    H152819   3.086   6.081  16.570  0.2757  0.5156  0.0775
10468TIP3    H252820   3.099   5.995  16.695  0.9167  1.4654  0.6769
10469TIP3   OH252821   6.403   4.741   3.704 -0.5935  0.2539  0.6674
10469TIP3    H152822   6.465   4.678   3.669  0.2490  1.4794 -0.1325
10469TIP3    H252823   6.454   4.795   3.764 -1.8746 -1.4253  3.4912
10470TIP3   OH252824   3.666   1.618   4.662  0.2713 -0.6427 -0.0383
10470TIP3    H152825   3.579   1.577   4.662 -0.4840  0.8612 -0.9617
10470TIP3    H252826   3.709   1.582   4.585  0.1441 -0.7106 -0.0786
10471TIP3   OH252827   3.508   6.429   0.460 -0.1781 -0.2712  0.3744
10471TIP3    H152828   3.484   6.345   0.420  0.4113  0.3096 -1.2916
10471TIP3    H252829   3.604   6.432   0.451 -0.2108  0.6388  0.2662
10472TIP3   OH252830   5.522   2.876   2.670  0.0829 -0.8130 -0.2289
10472TIP3    H152831   5.531   2.781   2.672  0.4033 -0.7780  0.9704
10472TIP3    H252832   5.596   2.906   2.616  1.9031 -1.0959  1.9486
10473TIP3   OH252833   5.541   1.823  14.134 -0.2853 -0.3784 -0.0821
10473TIP3    H152834   5.546   1.788  14.223 -1.1260  1.4267  0.7244
10473TIP3    H252835   5.574   1.912  14.141 -0.0598 -0.3124 -1.6569
10474TIP3   OH252836   3.137   0.785   2.589  0.1535  0.4693  0.2927
10474TIP3    H152837   3.190   0.864   2.596 -1.5505  1.5340  2.3856
10474TIP3    H252838   3.058   0.813   2.541 -0.7964  0.2744  1.6969
10475TIP3   OH252839   5.977   3.595  11.518  0.5303 -0.2852  0.4527
10475TIP3    H152840   6.063   3.586  11.478 -0.9216 -2.0557 -2.5943
10475TIP3    H252841   5.929   3.654  11.459 -1.1358 -1.4993  0.5175
10476TIP3   OH252842   3.993   3.847  16.868  0.2129  0.5108 -0.7456
10476TIP3    H152843   4.072   3.883  16.910 -0.9349 -0.1877  2.3081
10476TIP3    H252844   4.000   3.753  16.883 -2.0646  0.5863  1.4837
10477TIP3   OH252845   6.333   0.064   3.234 -0.3990  0.4735 -0.4300
10477TIP3    H152846   6.326   0.127   3.163 -3.2043  1.2717  0.4270
10477TIP3    H252847   6.244   0.056   3.268  0.5094 -1.2549  1.8161
10478TIP3   OH252848   5.491   6.450   4.323 -0.0772 -0.2722 -0.1418
10478TIP3    H152849   5.463   6.412   4.406  0.2159 -1.0535 -0.3955
10478TIP3    H252850   5.439   6.530   4.315 -0.9127 -0.7627  0.2598
10479TIP3   OH252851   5.003   4.614  14.196  0.1027  0.2404 -0.4679
10479TIP3    H152852   5.096   4.635  14.204  0.5181 -1.7352  0.7596
10479TIP3    H252853   4.960   4.675  14.256  0.7859  0.2389  0.0454
10480TIP3   OH252854   6.393   4.911  16.279 -0.3077  0.6598 -0.1991
10480TIP3    H152855   6.362   4.994  16.242 -1.6242  0.6027  0.7252
10480TIP3    H252856   6.331   4.845  16.247 -0.0432  0.2351  0.1491
10481TIP3   OH252857   0.137   4.655  16.484  0.3651 -0.5388 -0.4287
10481TIP3    H152858   0.104   4.733  16.438 -0.3182 -0.4384  0.2211
10481TIP3    H252859   0.222   4.639  16.445  0.7050  0.7958 -0.2721
10482TIP3   OH252860   1.435   6.672   0.100 -0.0054  0.5424  0.5387
10482TIP3    H152861   1.341   6.670   0.118 -0.0216  0.1853  0.4341
10482TIP3    H252862   1.462   6.580   0.107  0.8119  0.8891  3.0528
10483TIP3   OH252863   6.352   2.185   4.357  0.8393 -0.3854 -0.2170
10483TIP3    H152864   6.296   2.177   4.434 -0.5480  1.5245 -0.9557
10483TIP3    H252865   6.340   2.103   4.310 -0.5787 -0.4231  0.1636
10484TIP3   OH252866   1.478   1.135   0.185  0.0341 -0.5728  0.0971
10484TIP3    H152867   1.470   1.094   0.271  1.4255 -1.5808 -0.2105
10484TIP3    H252868   1.568   1.167   0.182  0.3661 -1.5274 -1.3534
10485TIP3   OH252869   5.906   3.131   1.758  0.1405 -0.2754  0.0025
10485TIP3    H152870   5.918   3.226   1.757  0.1109 -0.2441 -1.8446
10485TIP3    H252871   5.934   3.102   1.671  1.9343 -2.2148  1.1281
10486TIP3   OH252872   5.716   1.873  12.270 -0.0061 -0.4265 -0.1102
10486TIP3    H152873   5.744   1.859  12.361 -1.7265  1.4643  0.8005
10486TIP3    H252874   5.738   1.792  12.225  1.1384 -1.3218  1.9332
10487TIP3   OH252875   1.902   5.663   3.015  0.0841 -0.0411 -0.1566
10487TIP3    H152876   1.841   5.600   2.976 -2.1507  1.8593  0.0089
10487TIP3    H252877   1.898   5.739   2.957  1.4474  0.5688  0.5035
10488TIP3   OH252878   5.001   1.723  12.785  0.0090  0.1885  0.3314
10488TIP3    H152879   5.007   1.636  12.823 -0.6430  0.3227  0.7599
10488TIP3    H252880   5.064   1.722  12.713 -0.9151 -1.0728 -0.5136
10489TIP3   OH252881   3.050   4.721   3.673  0.0407 -0.5199 -0.2998
10489TIP3    H152882   2.990   4.791   3.647  1.6791  1.3744  0.7665
10489TIP3    H252883   3.057   4.667   3.594  1.3490  2.4807 -2.4859
10490TIP3   OH252884   6.386   1.183  13.628 -0.0410  0.6812  0.1422
10490TIP3    H152885   6.419   1.165  13.540 -0.5203 -0.8440  0.2411
10490TIP3    H252886   6.461   1.166  13.685 -0.1973  0.0175  0.1525
10491TIP3   OH252887   0.723   4.575  14.007  0.0367  0.4387 -0.7317
10491TIP3    H152888   0.809   4.606  13.977  1.1352  0.3588  2.0551
10491TIP3    H252889   0.702   4.630  14.082 -1.2795 -0.9813  0.0067
10492TIP3   OH252890   3.987   4.316   0.305  0.6624  0.1210  0.0625
10492TIP3    H152891   3.909   4.323   0.361  0.6327 -0.0106  0.0399
10492TIP3    H252892   3.971   4.238   0.252 -0.1292  1.2537 -1.4275
10493TIP3   OH252893   2.607   0.352   4.343  0.3911  0.0624 -0.0614
10493TIP3    H152894   2.534   0.372   4.402  1.3139 -0.6519  1.3518
10493TIP3    H252895   2.674   0.417   4.363  1.4891 -1.3756  1.1240
10494TIP3   OH252896   1.272   0.966  14.345 -0.1702 -0.2444  0.0640
10494TIP3    H152897   1.339   0.983  14.278 -1.4571  0.4164 -1.1122
10494TIP3    H252898   1.264   1.049  14.392 -0.7684 -0.0367 -0.3877
10495TIP3   OH252899   6.636   4.137   1.670  0.0754  0.1110  0.4572
10495TIP3    H152900   6.718   4.137   1.718  0.5771  1.8439 -0.3230
10495TIP3    H252901   6.568   4.125   1.737  0.9197 -1.2493  1.1150
10496TIP3   OH252902   3.953   1.805  12.762  0.5032 -0.3471  0.2247
10496TIP3    H152903   3.942   1.899  12.776 -2.4406 -0.8884  2.6314
10496TIP3    H252904   3.954   1.768  12.850 -1.6644 -2.8059 -0.6498
10497TIP3   OH252905   2.033   0.863  13.369 -0.0121 -0.7520 -0.3324
10497TIP3    H152906   1.981   0.784  13.353  0.5110 -1.5382  1.6624
10497TIP3    H252907   1.971   0.935  13.355 -0.8109 -1.5409 -1.0174
10498TIP3   OH252908   5.078   5.671  11.949  0.3992  0.0154 -0.2068
10498TIP3    H152909   5.085   5.623  12.032 -0.7178  0.0532 -0.0712
10498TIP3    H252910   5.073   5.763  11.974  0.2005  0.0365 -0.3182
10499TIP3   OH252911   3.201   3.061  14.291  0.0793 -0.3405 -0.0506
10499TIP3    H152912   3.242   2.986  14.248  1.1315 -0.0178  0.3492
10499TIP3    H252913   3.150   3.023  14.362 -1.2046 -0.8299 -1.1910
10500TIP3   OH252914   5.850   4.537  15.478  0.0811 -0.2751 -0.0336
10500TIP3    H152915   5.868   4.630  15.490  0.9797 -0.3149 -0.8413
10500TIP3    H252916   5.760   4.533  15.447  0.0690  0.3346 -0.0841
10501TIP3   OH252917   3.128   3.334  17.075 -0.1175 -0.1936 -0.4770
10501TIP3    H152918   3.040   3.313  17.044 -0.1472  1.3650 -1.5546
10501TIP3    H252919   3.131   3.298  17.163 -1.2041 -1.8303 -1.0632
10502TIP3   OH252920   5.387   2.603   2.929 -0.0785  0.3380  0.0600
10502TIP3    H152921   5.393   2.605   2.833  0.4653  1.5685  0.1095
10502TIP3    H252922   5.322   2.669   2.950 -1.8470 -1.4275  0.4637
10503TIP3   OH252923   3.787   5.990  12.894 -0.1351 -0.7636 -0.4143
10503TIP3    H152924   3.829   5.911  12.859  1.5401  0.4295 -1.1694
10503TIP3    H252925   3.694   5.978  12.872  0.1260 -2.3577 -0.8147
10504TIP3   OH252926   5.117   5.592   3.557 -0.0355 -0.1298 -0.1952
10504TIP3    H152927   5.160   5.521   3.605  0.8367 -0.2705 -1.1389
10504TIP3    H252928   5.075   5.548   3.483 -0.1455  0.2430 -0.3549
10505TIP3   OH252929   0.964   4.467  12.297  0.3132 -0.3166 -0.1956
10505TIP3    H152930   0.985   4.531  12.230 -1.9212 -0.0298 -0.7209
10505TIP3    H252931   0.994   4.506  12.379  0.2602  0.7591 -0.6717
10506TIP3   OH252932   6.621   2.279  12.043 -0.5653  0.1123 -0.4828
10506TIP3    H152933   6.662   2.288  11.957  1.4683 -2.0136  0.1650
10506TIP3    H252934   6.664   2.345  12.097  0.2880 -0.4951 -0.4069
10507TIP3   OH252935   0.571   4.193   0.570  0.5303 -0.2118  0.6310
10507TIP3    H152936   0.531   4.253   0.506  0.0429  0.6811  1.7340
10507TIP3    H252937   0.664   4.215   0.569  0.7070 -0.9245 -0.5038
10508TIP3   OH252938   5.537   0.218   3.213 -0.8256  0.7418 -0.1433
10508TIP3    H152939   5.543   0.260   3.127 -0.8420 -0.0982 -0.5698
10508TIP3    H252940   5.526   0.125   3.193  2.4595  0.0135  0.7324
10509TIP3   OH252941   2.146   0.301   2.809  0.7756 -0.4586 -0.1237
10509TIP3    H152942   2.220   0.320   2.866  0.2776  1.6854 -0.1111
10509TIP3    H252943   2.076   0.273   2.869  0.7946  0.0297  0.1266
10510TIP3   OH252944   6.454   6.052   4.425  0.1998  0.2759 -0.2806
10510TIP3    H152945   6.524   6.010   4.474  0.1202  0.4855  0.0180
10510TIP3    H252946   6.436   6.132   4.474  0.9061  1.0787 -1.2708
10511TIP3   OH252947   3.240   4.602  14.072 -0.3943 -0.0058  0.1884
10511TIP3    H152948   3.255   4.663  14.144  0.9150 -0.9883  0.7976
10511TIP3    H252949   3.289   4.638  13.999 -1.3929  0.7823 -0.1069
10512TIP3   OH252950   1.015   2.430  14.471 -0.0471  0.6473 -0.2251
10512TIP3    H152951   1.087   2.441  14.533 -0.1602 -1.3844  0.3136
10512TIP3    H252952   1.052   2.457  14.387  2.5673 -3.3994 -0.6559
10513TIP3   OH252953   0.339   3.465  15.918  0.1221 -0.6187 -0.4974
10513TIP3    H152954   0.264   3.523  15.907  0.3555 -0.4053 -1.0134
10513TIP3    H252955   0.405   3.500  15.858  1.8539  1.2025  2.2366
10514TIP3   OH252956   4.726   5.802   0.468 -0.3823  0.3059 -0.0140
10514TIP3    H152957   4.635   5.797   0.496 -0.1006  1.5657  1.2333
10514TIP3    H252958   4.722   5.827   0.376 -1.3036 -1.7056 -0.5853
10515TIP3   OH252959   1.996   4.918   4.619  0.0510 -0.5512 -0.1965
10515TIP3    H152960   2.037   4.866   4.688 -0.0262  0.6181  0.7686
10515TIP3    H252961   1.947   4.855   4.567  0.1952 -1.4783  0.7624
10516TIP3   OH252962   6.462   0.785   2.095  0.1398 -0.4231 -0.0616
10516TIP3    H152963   6.493   0.734   2.020 -0.1013  2.6818 -2.4768
10516TIP3    H252964   6.541   0.826   2.130 -0.0318 -0.0692 -0.0888
10517TIP3   OH252965   4.833   5.336  16.568  0.3398 -0.4052 -0.3260
10517TIP3    H152966   4.843   5.259  16.624  0.2123  0.0706  0.3657
10517TIP3    H252967   4.913   5.386  16.581 -0.9314  1.2270  1.8274
10518TIP3   OH252968   1.586   3.428  15.817 -0.3416 -0.2499 -0.4328
10518TIP3    H152969   1.635   3.505  15.789  1.5203 -1.0946  0.2912
10518TIP3    H252970   1.541   3.454  15.897 -0.9863  0.5048 -1.0322
10519TIP3   OH252971   0.324   5.366   0.956  0.8465  0.3348 -0.3378
10519TIP3    H152972   0.308   5.359   1.050 -0.3888 -0.4678 -0.5844
10519TIP3    H252973   0.398   5.427   0.949  0.5316  0.9392  1.1159
10520TIP3   OH252974   2.805   2.507  14.813 -0.2933  0.2465 -0.0968
10520TIP3    H152975   2.730   2.562  14.789  0.1682  0.3454 -1.4150
10520TIP3    H252976   2.804   2.437  14.748 -0.0192 -0.4972  0.6945
10521TIP3   OH252977   5.195   1.583   2.035  0.4243 -0.5969 -0.0383
10521TIP3    H152978   5.104   1.609   2.021  1.1650  1.8137 -0.8879
10521TIP3    H252979   5.213   1.608   2.125  0.8124  1.0045 -0.5199
10522TIP3   OH252980   2.562   2.446   4.810 -0.6472 -0.1676  0.3167
10522TIP3    H152981   2.613   2.387   4.753 -0.2695 -1.0025  1.4771
10522TIP3    H252982   2.471   2.423   4.791 -0.6409  1.2289 -1.6609
10523TIP3   OH252983   3.888   2.135   4.707  0.3605  0.0181  0.0995
10523TIP3    H152984   3.845   2.101   4.628  1.6509  1.0985 -1.1388
10523TIP3    H252985   3.820   2.183   4.753  0.0665  1.3150 -1.5808
10524TIP3   OH252986   2.600   2.631   5.126 -0.6685  0.1647 -0.2905
10524TIP3    H152987   2.564   2.641   5.038  0.1653 -2.6750 -1.0630
10524TIP3    H252988   2.524   2.618   5.182 -1.1224 -0.0234 -0.9343
10525TIP3   OH252989   0.584   6.124  16.425 -0.2096 -0.0335 -0.1993
10525TIP3    H152990   0.512   6.165  16.377 -1.3405 -0.7106  0.8582
10525TIP3    H252991   0.622   6.061  16.364 -0.0489  0.8053 -0.9934
10526TIP3   OH252992   6.674   3.440   5.021  0.0997  0.5951  0.4727
10526TIP3    H152993   6.698   3.355   5.060  0.0311 -0.0124 -0.7404
10526TIP3    H252994   6.587   3.425   4.983  0.1230  1.1933  0.1770
10527TIP3   OH252995   3.499   4.750   1.218 -0.4426 -0.0367 -0.2287
10527TIP3    H152996   3.475   4.666   1.180 -0.6738  0.9255 -2.3430
10527TIP3    H252997   3.562   4.788   1.157 -0.1409  1.2307  0.8043
10528TIP3   OH252998   4.019   1.946  16.670 -0.0243  0.5456 -0.3981
10528TIP3    H152999   4.023   2.032  16.710  1.7574  0.5255 -0.4380
10528TIP3    H253000   4.077   1.892  16.723 -1.0525 -0.6279 -0.4235
10529TIP3   OH253001   2.709   6.278   2.345 -0.3679  0.3229  0.2639
10529TIP3    H153002   2.705   6.290   2.250 -2.5259  1.8817  0.4874
10529TIP3    H253003   2.757   6.355   2.377 -1.6188  0.9963  0.5783
10530TIP3   OH253004   4.581   4.347   3.009 -0.1696  0.1868 -0.0365
10530TIP3    H153005   4.501   4.397   2.990  0.9556  1.7533 -0.8187
10530TIP3    H253006   4.571   4.266   2.958 -0.9709  0.6592 -0.6557
10531TIP3   OH253007   0.621   6.298   5.965  0.2479  0.1004 -0.2896
10531TIP3    H153008   0.530   6.269   5.967  0.8096 -1.7516  1.0482
10531TIP3    H253009   0.671   6.218   5.951  1.8283  0.5171  2.3463
10532TIP3   OH253010   4.975   6.185   0.982 -0.4330  0.0625  0.0173
10532TIP3    H153011   4.942   6.118   0.922 -0.3082 -1.1742  1.2720
10532TIP3    H253012   5.000   6.137   1.061  2.3439  1.2301 -0.0453
10533TIP3   OH253013   5.774   4.726   4.657 -0.1281 -0.1480 -0.2002
10533TIP3    H153014   5.840   4.663   4.629 -0.0752 -0.3097  0.2698
10533TIP3    H253015   5.714   4.674   4.712 -1.0284 -0.1573 -1.1574
10534TIP3   OH253016   1.576   2.661   1.069  0.1886  0.7550 -0.3679
10534TIP3    H153017   1.519   2.628   1.138  1.0348  2.4265  1.2375
10534TIP3    H253018   1.553   2.753   1.061 -0.1794  0.5209 -2.6861
10535TIP3   OH253019   2.595   0.046   2.165  0.3784  0.0948 -0.7028
10535TIP3    H153020   2.596   0.127   2.216  0.2437  0.1793 -0.8335
10535TIP3    H253021   2.538   0.065   2.091 -1.4292 -0.8199  0.3910
10536TIP3   OH253022   3.022   1.453   3.723  0.1550 -0.2381 -0.3079
10536TIP3    H153023   2.934   1.428   3.750  0.1378 -1.0410 -1.0620
10536TIP3    H253024   3.067   1.369   3.710  0.8357  0.1625 -0.5511
10537TIP3   OH253025   4.142   0.873   5.280  0.4265 -0.2736  0.7514
10537TIP3    H153026   4.049   0.854   5.293  0.3891 -0.0070  0.8892
10537TIP3    H253027   4.187   0.815   5.341  0.5919 -3.1627 -1.8978
10538TIP3   OH253028   5.185   0.668   1.835  0.0439 -0.2581 -0.1011
10538TIP3    H153029   5.124   0.730   1.793 -0.8281 -0.8969  0.1929
10538TIP3    H253030   5.255   0.657   1.770 -2.2958 -2.8761 -2.4999
10539TIP3   OH253031   5.927   2.528   4.315 -0.4779 -0.0861 -0.7789
10539TIP3    H153032   6.010   2.496   4.281 -0.3757 -0.6705 -0.0034
10539TIP3    H253033   5.943   2.620   4.337  0.7692 -0.8151  1.7852
10540TIP3   OH253034   6.352   0.378  16.468  0.2426  0.1763  0.5886
10540TIP3    H153035   6.442   0.345  16.467 -0.1547 -0.9567  0.3432
10540TIP3    H253036   6.302   0.311  16.422 -0.5282  1.4223 -0.4558
10541TIP3   OH253037   6.061   0.974  13.771 -0.2466  0.0363  0.9547
10541TIP3    H153038   6.071   1.069  13.782  0.2914  0.0614  0.2970
10541TIP3    H253039   6.023   0.945  13.853 -1.0938  0.9241  0.8940
10542TIP3   OH253040   6.741   2.141  12.335 -0.3899 -0.0978 -0.2876
10542TIP3    H153041   6.710   2.112  12.421  0.3258  1.1651  0.4318
10542TIP3    H253042   6.682   2.099  12.272 -1.8979  0.1797  0.8926
10543TIP3   OH253043   0.257   2.403   2.529 -0.1007 -0.2437  0.3316
10543TIP3    H153044   0.187   2.416   2.592  0.3113  0.6232  0.6214
10543TIP3    H253045   0.212   2.373   2.450 -1.1851  2.7319 -0.3414
10544TIP3   OH253046   5.786   2.221   3.197  0.4266  0.1064  0.1009
10544TIP3    H153047   5.839   2.275   3.255  0.1456  2.2540 -1.5302
10544TIP3    H253048   5.839   2.142   3.183  1.1434  0.1881  2.0124
10545TIP3   OH253049   4.400   1.447   3.586  0.1462 -0.4006 -0.0842
10545TIP3    H153050   4.379   1.478   3.674  0.9312 -0.0320 -0.0188
10545TIP3    H253051   4.417   1.354   3.596 -3.2222 -1.1951 -0.4397
10546TIP3   OH253052   3.796   4.914  16.046 -0.1440 -0.1213 -0.5829
10546TIP3    H153053   3.755   4.993  16.083 -0.2036  1.0815 -2.9878
10546TIP3    H253054   3.786   4.925  15.951  2.7572 -1.4445 -1.1348
10547TIP3   OH253055   6.749   5.528   1.097  0.0521 -0.4384  0.2113
10547TIP3    H153056   6.776   5.583   1.170  0.9835 -1.5228  0.7151
10547TIP3    H253057   6.693   5.584   1.044  0.1878  0.6821  1.2146
10548TIP3   OH253058   6.482   4.414   5.076 -0.0614 -0.1017  0.7071
10548TIP3    H153059   6.520   4.478   5.016 -2.9287  1.0587 -0.0421
10548TIP3    H253060   6.529   4.427   5.158  2.1649  0.1019 -0.5231
10549TIP3   OH253061   6.585   4.077  12.239 -0.3711  0.6136  0.0497
10549TIP3    H153062   6.630   4.157  12.268 -0.9002  1.4360 -1.3211
10549TIP3    H253063   6.622   4.008  12.294  0.7153  1.6647  0.6939
10550TIP3   OH253064   5.442   2.185   3.967 -0.5520  0.3069 -0.1305
10550TIP3    H153065   5.416   2.275   3.944  0.6903  0.6551 -0.2187
10550TIP3    H253066   5.534   2.180   3.943 -0.2071 -0.5247  1.2931
10551TIP3   OH253067   6.072   5.624  14.997 -0.0995  0.1441  0.2408
10551TIP3    H153068   6.016   5.669  14.934  0.7858 -0.1615 -0.8019
10551TIP3    H253069   6.051   5.664  15.081  0.4349  2.3149 -0.5943
10552TIP3   OH253070   4.027   3.890  14.761 -0.1367  0.0027  0.6672
10552TIP3    H153071   4.043   3.810  14.712  1.3325 -0.4452  1.8059
10552TIP3    H253072   4.114   3.926  14.777 -0.7684  2.0847 -0.1791
10553TIP3   OH253073   6.177   6.751   1.719 -0.1823 -0.4882  0.3342
10553TIP3    H153074   6.086   6.732   1.696 -0.6022  0.4878  1.1174
10553TIP3    H253075   6.195   6.836   1.680 -0.3309  0.3393  1.9505
10554TIP3   OH253076   5.194   1.456  15.211  0.4145 -0.6727 -0.2472
10554TIP3    H153077   5.245   1.383  15.248  0.5159 -1.2380 -1.4637
10554TIP3    H253078   5.257   1.527  15.201  0.7080 -0.9904 -0.6721
10555TIP3   OH253079   6.640   0.927  15.986  0.1491  0.3390 -0.0150
10555TIP3    H153080   6.580   0.927  16.060  0.5664  0.2308  0.3238
10555TIP3    H253081   6.725   0.908  16.024  0.0363 -2.0900 -0.7967
10556TIP3   OH253082   1.152   2.371   6.230  0.3802  0.6380 -0.3902
10556TIP3    H153083   1.194   2.288   6.253 -0.9318 -0.1381 -0.7205
10556TIP3    H253084   1.198   2.437   6.282  0.0559 -0.5671  1.5015
10557TIP3   OH253085   5.234   1.747   0.496 -0.0379  0.3549  0.2019
10557TIP3    H153086   5.170   1.775   0.562 -0.3535 -0.2651  0.1728
10557TIP3    H253087   5.304   1.705   0.547  0.4676  1.2486  0.2513
10558TIP3   OH253088   0.128   2.683  14.643 -0.1163  0.0178 -0.5553
10558TIP3    H153089   0.124   2.775  14.617  1.8160  0.6837  1.2621
10558TIP3    H253090   0.040   2.662  14.672 -0.8187  0.9764 -1.8808
10559TIP3   OH253091   6.141   1.705  16.171  0.2436 -0.4959  0.1257
10559TIP3    H153092   6.137   1.611  16.185 -1.0360 -0.2969  1.2375
10559TIP3    H253093   6.149   1.714  16.076  0.6814 -1.7233  0.0284
10560TIP3   OH253094   4.548   0.417  16.991  0.3392  0.1455 -0.1852
10560TIP3    H153095   4.476   0.421  16.929 -0.5809 -2.2851  0.6002
10560TIP3    H253096   4.621   0.381  16.941 -0.3097 -1.5139  0.0177
10561TIP3   OH253097   3.776   6.705  13.964 -0.0265 -0.0423  0.7526
10561TIP3    H153098   3.817   6.769  13.907 -0.1708 -0.5773  0.0284
10561TIP3    H253099   3.789   6.621  13.919 -0.3450 -0.4470  1.3943
10562TIP3   OH253100   2.949   2.782   1.071 -0.9347  0.4746 -0.1724
10562TIP3    H153101   2.889   2.854   1.088 -1.6741 -0.1220 -0.1761
10562TIP3    H253102   2.900   2.703   1.096 -0.7762 -0.1575 -1.7097
10563TIP3   OH253103   5.146   1.013  13.086 -0.3354  0.0004 -0.3751
10563TIP3    H153104   5.093   0.933  13.092  0.2472 -0.5380 -1.8906
10563TIP3    H253105   5.232   0.987  13.118 -0.7293  0.6811  1.3708
10564TIP3   OH253106   1.851   0.975  15.985 -0.2959  0.0711  0.0030
10564TIP3    H153107   1.863   0.880  15.978  0.9704  0.2174 -0.1277
10564TIP3    H253108   1.777   0.995  15.928 -0.0153 -0.7321 -0.6573
10565TIP3   OH253109   5.154   0.494   2.716  0.1947 -0.1736 -0.3086
10565TIP3    H153110   5.109   0.445   2.786  0.2786  1.0525  0.6378
10565TIP3    H253111   5.202   0.563   2.763 -0.9045  1.5851 -1.6866
10566TIP3   OH253112   2.820   2.133   3.178 -0.0094  0.0411 -0.3793
10566TIP3    H153113   2.914   2.147   3.168  0.2613 -0.1556  1.4551
10566TIP3    H253114   2.811   2.099   3.267 -1.6740 -1.3523 -1.0189
10567TIP3   OH253115   0.092   5.671  14.809 -0.0236  0.0377 -0.1206
10567TIP3    H153116   0.051   5.628  14.884 -1.8188  0.0661 -1.0348
10567TIP3    H253117   0.081   5.609  14.737 -0.3758  0.9631 -0.8805
10568TIP3   OH253118   4.001   6.647  14.893  0.2184  0.4465 -0.1967
10568TIP3    H153119   3.954   6.730  14.887 -0.4944  0.1857  1.3648
10568TIP3    H253120   3.950   6.586  14.839 -0.5671  0.4684  0.5038
10569TIP3   OH253121   2.371   3.943   3.675 -0.3706 -0.7909 -0.1893
10569TIP3    H153122   2.457   3.981   3.691 -0.6132 -0.2790 -0.0946
10569TIP3    H253123   2.390   3.856   3.640  0.1868 -1.5181  1.7998
10570TIP3   OH253124   6.485   0.914   3.650  0.4757  0.1468 -0.4093
10570TIP3    H153125   6.391   0.913   3.667  0.4533  2.3493 -0.1437
10570TIP3    H253126   6.500   0.993   3.600  2.3409  0.4338  0.5105
10571TIP3   OH253127   0.178   6.732   5.619  0.2652  0.2917  0.2474
10571TIP3    H153128   0.154   6.803   5.679  0.4684  0.0147  0.6557
10571TIP3    H253129   0.271   6.718   5.635  1.4307  3.0057 -2.9858
10572TIP3   OH253130   0.174   1.261  15.185  0.2930  0.3209 -0.3540
10572TIP3    H153131   0.095   1.311  15.203 -0.2905 -0.9842  0.9663
10572TIP3    H253132   0.145   1.185  15.136  0.6752 -0.2553  0.2812
10573TIP3   OH253133   5.163   3.865   0.999 -0.5557  0.2806  0.0530
10573TIP3    H153134   5.079   3.840   0.959 -1.1480  0.5268  1.0986
10573TIP3    H253135   5.200   3.782   1.030 -0.4236  0.1771 -0.3724
10574TIP3   OH253136   3.827   6.636   1.259 -0.3808 -0.4180 -0.3507
10574TIP3    H153137   3.874   6.595   1.186 -0.2704 -0.0610 -0.4781
10574TIP3    H253138   3.895   6.661   1.321 -0.4364 -0.2598 -0.3541
10575TIP3   OH253139   4.425   1.971   5.724 -0.7604 -0.5097  0.3452
10575TIP3    H153140   4.480   1.914   5.778 -0.3882 -0.5738 -0.0958
10575TIP3    H253141   4.481   1.995   5.650 -0.9392  0.3530  0.4742
10576TIP3   OH253142   1.307   1.393  13.785  0.5973  0.3793 -0.3863
10576TIP3    H153143   1.397   1.390  13.815  0.6995 -0.9483 -0.7831
10576TIP3    H253144   1.290   1.486  13.771  1.9821  0.6288 -0.5517
10577TIP3   OH253145   2.027   5.820   1.353 -0.2806  0.2034  0.4398
10577TIP3    H153146   2.023   5.915   1.340 -0.7352  0.0749 -0.3475
10577TIP3    H253147   2.077   5.788   1.278  2.6340  0.1339  2.2578
10578TIP3   OH253148   1.985   4.725  11.087 -0.4732  0.0707  0.2398
10578TIP3    H153149   1.895   4.758  11.084 -0.4894 -0.0407 -0.7380
10578TIP3    H253150   1.999   4.701  11.179 -0.8468  1.7195  0.7586
10579TIP3   OH253151   4.957   1.549  14.604  0.2915  0.0836  0.4036
10579TIP3    H153152   5.040   1.590  14.582  0.0795  0.5796  0.5110
10579TIP3    H253153   4.893   1.621  14.600 -0.7406 -0.8139 -2.9599
10580TIP3   OH253154   2.565   1.166  12.665 -0.2521 -0.4762 -0.0246
10580TIP3    H153155   2.530   1.124  12.587 -0.2143 -1.3891  0.4328
10580TIP3    H253156   2.651   1.126  12.677  0.8057  1.4226 -0.8873
10581TIP3   OH253157   6.414   4.315  11.557 -0.0053 -0.2424 -0.2512
10581TIP3    H153158   6.434   4.238  11.612 -0.7806 -0.4826 -0.2995
10581TIP3    H253159   6.477   4.309  11.485  0.5764 -0.2998  0.2489
10582TIP3   OH253160   1.536   6.382   5.333 -0.1373  0.1379  0.1140
10582TIP3    H153161   1.497   6.439   5.266  0.7431 -1.4097 -1.8371
10582TIP3    H253162   1.462   6.332   5.368 -0.9276  2.4160  1.8845
10583TIP3   OH253163   2.699   5.879  12.120 -0.1456 -0.0893  0.1239
10583TIP3    H153164   2.623   5.821  12.130  0.1952 -0.7140 -0.8445
10583TIP3    H253165   2.769   5.822  12.088  0.6623  0.5392  0.7531
10584TIP3   OH253166   5.787   6.112  16.253  0.1026  0.4798  0.2135
10584TIP3    H153167   5.802   6.074  16.166 -0.7873  1.1949 -0.2715
10584TIP3    H253168   5.694   6.099  16.268 -0.4447  3.1595 -0.3469
10585TIP3   OH253169   1.395   2.700   2.018 -0.1772  0.1335  0.2487
10585TIP3    H153170   1.380   2.786   2.057  0.8794  1.2944 -1.7594
10585TIP3    H253171   1.477   2.671   2.058  2.1331  2.3220 -2.5004
10586TIP3   OH253172   4.378   3.918  15.657 -0.1957 -0.2765 -0.0455
10586TIP3    H153173   4.374   3.841  15.714 -0.7016  0.0350  0.3397
10586TIP3    H253174   4.287   3.937  15.635 -0.0372 -0.0817 -0.5388
10587TIP3   OH253175   1.849   5.079   0.137  0.5555  0.2070  0.0159
10587TIP3    H153176   1.806   5.125   0.065  0.7030 -0.6223 -0.6203
10587TIP3    H253177   1.805   4.993   0.140  1.5540 -0.3226 -0.0671
10588TIP3   OH253178   5.044   3.527   4.230 -0.5808  0.4295  0.4567
10588TIP3    H153179   4.993   3.462   4.182 -2.6263  2.0468  0.2696
10588TIP3    H253180   5.135   3.509   4.208 -1.1972 -1.3873 -0.7812
10589TIP3   OH253181   0.217   2.824   0.829 -0.6279 -0.4487 -0.2697
10589TIP3    H153182   0.146   2.808   0.767  0.1289 -2.8502 -0.6189
10589TIP3    H253183   0.178   2.812   0.915 -1.4014  1.7193 -0.2521
10590TIP3   OH253184   0.484   4.736  15.512 -0.8045 -0.2576 -0.0266
10590TIP3    H153185   0.417   4.670  15.496 -1.8423  1.1356 -1.8571
10590TIP3    H253186   0.557   4.710  15.457 -0.7429 -0.5069  0.1697
10591TIP3   OH253187   3.139   3.474   1.736  0.6842  0.6880 -0.3690
10591TIP3    H153188   3.129   3.521   1.819  0.5956  0.6791 -0.3751
10591TIP3    H253189   3.187   3.395   1.760  1.0792  0.9139 -0.4029
10592TIP3   OH253190   6.329   5.449   0.634 -0.1065 -0.5976  0.1422
10592TIP3    H153191   6.236   5.428   0.640 -0.2570 -0.2290 -0.6418
10592TIP3    H253192   6.373   5.364   0.639 -0.5002 -0.7952  0.3154
10593TIP3   OH253193   1.981   0.990  15.162 -0.4281 -0.1133  0.2606
10593TIP3    H153194   2.062   0.942  15.143 -0.3536  0.2400 -0.3526
10593TIP3    H253195   2.007   1.082  15.158 -0.4538  0.0061  1.9392
10594TIP3   OH253196   5.838   5.068  14.714  0.4888  0.0174 -0.3646
10594TIP3    H153197   5.755   5.046  14.755  0.3225 -1.9481 -1.5986
10594TIP3    H253198   5.884   4.984  14.707  1.7664  0.7617 -1.4080
10595TIP3   OH253199   3.777   3.507  14.371 -0.0995  0.0749 -0.1351
10595TIP3    H153200   3.708   3.461  14.323  1.5971 -1.1908 -1.4323
10595TIP3    H253201   3.759   3.486  14.463 -0.6678 -1.3345 -0.5407
10596TIP3   OH253202   0.922   4.455   2.185  0.0003  0.3346  0.3391
10596TIP3    H153203   0.942   4.419   2.099  2.2770  0.0370  0.9143
10596TIP3    H253204   0.922   4.379   2.244  0.4344  0.7524  0.8909
10597TIP3   OH253205   6.020   4.121   0.907 -0.6706 -0.1263  0.0557
10597TIP3    H153206   6.052   4.168   0.830 -0.2548 -0.3064  0.1168
10597TIP3    H253207   5.953   4.062   0.874 -0.1184 -0.5877 -0.2499
10598TIP3   OH253208   4.282   2.755   3.283  0.1635  0.2987 -0.4831
10598TIP3    H153209   4.377   2.765   3.291  0.1568 -0.5331  0.8491
10598TIP3    H253210   4.270   2.668   3.246 -0.1062 -0.0933  0.5121
10599TIP3   OH253211   6.468   2.404   5.251 -0.2534 -0.5179  0.0320
10599TIP3    H153212   6.428   2.321   5.279 -1.7794  0.1156 -0.1514
10599TIP3    H253213   6.408   2.471   5.284  1.2748  0.5611  0.6886
10600TIP3   OH253214   5.704   0.218  14.547  0.0264  0.1524 -0.0233
10600TIP3    H153215   5.745   0.303  14.528 -0.6380 -0.1299 -3.4178
10600TIP3    H253216   5.765   0.174  14.605  1.3168  2.2168  0.2804
10601TIP3   OH253217   4.564   4.977   1.905  0.4582  0.0477 -0.0414
10601TIP3    H153218   4.489   5.014   1.952  0.8035 -0.4514  0.9377
10601TIP3    H253219   4.554   5.009   1.815  0.9529  2.8254  0.8102
10602TIP3   OH253220   3.686   1.829  15.153  0.1688 -0.5229  0.1328
10602TIP3    H153221   3.657   1.773  15.081 -0.0643  0.3748 -0.4919
10602TIP3    H253222   3.694   1.916  15.114  0.6545 -0.1394  1.0493
10603TIP3   OH253223   4.239   6.641   3.421  0.3654  0.7067  0.0283
10603TIP3    H153224   4.170   6.580   3.446  1.9645  0.2132  4.1278
10603TIP3    H253225   4.223   6.718   3.476  0.8966  2.2529 -1.8700
10604TIP3   OH253226   6.723   5.498  17.005 -0.1757  0.3327 -0.3979
10604TIP3    H153227   6.697   5.463  17.090  0.1901 -1.3274 -0.9366
10604TIP3    H253228   6.655   5.468  16.945  0.2891  0.3091 -0.9247
10605TIP3   OH253229   0.016   4.261  11.598 -0.2291 -0.3955  0.3941
10605TIP3    H153230   0.105   4.244  11.627  0.3555  2.1489  0.3313
10605TIP3    H253231   0.024   4.282  11.505 -0.7013  0.8741  0.6136
10606TIP3   OH253232   6.264   5.533   0.283 -0.3908 -0.3790  0.1812
10606TIP3    H153233   6.229   5.448   0.256 -0.0285 -1.0691  1.7754
10606TIP3    H253234   6.187   5.589   0.292 -0.5961 -0.3845 -1.2810
10607TIP3   OH253235   4.225   0.803  12.193  0.0004  0.1029 -0.0603
10607TIP3    H153236   4.177   0.804  12.275  0.0316 -0.8883 -0.0244
10607TIP3    H253237   4.202   0.886  12.151 -0.8586  0.1362  0.4571
10608TIP3   OH253238   3.644   2.757  17.195  0.0004 -0.1824  0.0443
10608TIP3    H153239   3.570   2.800  17.238  0.3613 -1.4697  2.1012
10608TIP3    H253240   3.676   2.822  17.132 -0.2822  2.0594  2.0504
10609TIP3   OH253241   4.921   4.518  16.312 -0.3205 -1.1752  0.7279
10609TIP3    H153242   5.009   4.529  16.347  0.1500 -0.5566 -0.5903
10609TIP3    H253243   4.932   4.460  16.237 -0.9821 -0.7867  0.3261
10610TIP3   OH253244   2.331   5.364  11.868 -0.0470 -0.2948  0.4225
10610TIP3    H153245   2.302   5.412  11.946  0.2785  1.7279 -0.6487
10610TIP3    H253246   2.417   5.400  11.848  0.4827 -1.7627 -0.1092
10611TIP3   OH253247   5.399   5.420  13.794 -0.0491 -0.2625 -0.2688
10611TIP3    H153248   5.449   5.450  13.870 -1.5222  2.3092 -0.1752
10611TIP3    H253249   5.435   5.469  13.720 -1.7231  0.9511 -0.3478
10612TIP3   OH253250   0.129   1.565   1.963  0.5623 -0.2875  0.4207
10612TIP3    H153251   0.146   1.627   1.892  0.0251 -0.0775  0.4741
10612TIP3    H253252   0.106   1.484   1.918 -1.7839  0.3684  0.3012
10613TIP3   OH253253   6.010   1.939  16.365 -0.0261  0.1005 -0.3936
10613TIP3    H153254   6.097   1.898  16.362 -0.4391 -0.7378 -1.1546
10613TIP3    H253255   5.982   1.931  16.456  0.2811 -0.4934 -0.3494
10614TIP3   OH253256   5.092   3.711  13.561  0.4522  0.1734  0.0783
10614TIP3    H153257   5.005   3.680  13.585 -0.7382  1.1119 -2.5926
10614TIP3    H253258   5.098   3.799  13.599  0.7471 -0.3693  1.2983
10615TIP3   OH253259   2.608   2.000  14.939  1.2573 -0.7282 -0.0691
10615TIP3    H153260   2.621   2.067  15.006 -0.0510 -1.7023  1.2380
10615TIP3    H253261   2.682   1.940  14.951  1.1450 -0.7817  0.3825
10616TIP3   OH253262   6.095   0.324  16.310 -0.2160  0.0046  1.4082
10616TIP3    H153263   6.123   0.377  16.235  2.3761 -1.4456  1.2246
10616TIP3    H253264   6.024   0.374  16.350  0.4034  2.3298 -0.2049
10617TIP3   OH253265   0.273   3.169  12.189  0.1382  0.2204 -0.1602
10617TIP3    H153266   0.207   3.236  12.178 -0.9384 -0.9990 -1.5401
10617TIP3    H253267   0.259   3.108  12.116  1.4894 -1.1470  0.6422
10618TIP3   OH253268   2.511   5.135  11.987 -0.2959  0.1025 -0.3262
10618TIP3    H153269   2.501   5.185  11.906 -0.6181  2.0925  0.8625
10618TIP3    H253270   2.437   5.075  11.988  0.2767 -0.6837 -1.9600
10619TIP3   OH253271   5.026   4.849  17.328  0.4917  0.0371  0.3543
10619TIP3    H153272   4.950   4.849  17.270  1.2032  1.0308 -0.6439
10619TIP3    H253273   5.094   4.802  17.278  1.2793  1.3742  0.1103
10620TIP3   OH253274   6.228   3.444   2.140 -0.9110  0.1908 -0.4287
10620TIP3    H153275   6.320   3.453   2.113  0.0203 -0.9043  2.0918
10620TIP3    H253276   6.199   3.534   2.155  0.3221  0.4708  0.4199
10621TIP3   OH253277   5.540   5.685  16.542  0.1610 -0.0983 -0.1563
10621TIP3    H153278   5.491   5.738  16.605  0.9927 -0.4073  0.7783
10621TIP3    H253279   5.548   5.599  16.583  3.4695  0.5325  0.8939
10622TIP3   OH253280   3.990   3.756   4.310  0.5092  0.3566 -0.4170
10622TIP3    H153281   3.973   3.736   4.218 -1.8144  0.1932 -0.0019
10622TIP3    H253282   3.918   3.715   4.358  1.9787 -0.0674  1.5659
10623TIP3   OH253283   0.145   5.015  14.638 -0.4386 -0.1609 -0.6060
10623TIP3    H153284   0.118   5.091  14.587  0.7216  0.2985 -0.5720
10623TIP3    H253285   0.142   5.045  14.729 -1.3099 -0.5981 -0.4765
10624TIP3   OH253286   6.611   4.877   6.173 -0.4802 -0.3324  0.7333
10624TIP3    H153287   6.533   4.831   6.201 -2.2482  0.5462 -2.2310
10624TIP3    H253288   6.582   4.929   6.097  3.0799 -0.4032 -0.8819
10625TIP3   OH253289   6.025   3.305  15.846  0.2653 -0.1411  0.3148
10625TIP3    H153290   5.945   3.290  15.895 -0.9330  0.2311 -1.4456
10625TIP3    H253291   6.068   3.377  15.892 -0.8921  0.2940  0.7485
10626TIP3   OH253292   5.562   1.737  11.170  0.0778 -0.8697 -0.0384
10626TIP3    H153293   5.595   1.670  11.110  1.1533  0.0148 -0.4756
10626TIP3    H253294   5.544   1.812  11.114 -1.4087 -0.8696  0.4003
10627TIP3   OH253295   3.958   6.306   0.663 -0.3657 -0.3186  0.2785
10627TIP3    H153296   3.991   6.247   0.730  0.9346  0.0121 -0.0357
10627TIP3    H253297   4.020   6.379   0.663 -0.9357  0.1791 -0.5638
10628TIP3   OH253298   6.457   5.896  12.796  0.7362  0.2513  0.2023
10628TIP3    H153299   6.509   5.921  12.720 -0.5821  0.5676 -0.6378
10628TIP3    H253300   6.462   5.800  12.798  3.2103  0.3349  1.5467
10629TIP3   OH253301   4.265   2.867   6.818  0.6800  0.3422  0.3543
10629TIP3    H153302   4.338   2.928   6.808  0.9547  0.7217  3.5979
10629TIP3    H253303   4.189   2.924   6.830 -0.0455 -0.0564 -1.8664
10630TIP3   OH253304   4.031   0.565  16.867 -0.2479 -0.3693 -0.2017
10630TIP3    H153305   3.981   0.484  16.858  0.5200 -0.9058  0.2078
10630TIP3    H253306   4.122   0.539  16.850 -0.1403  0.6569 -1.3250
10631TIP3   OH253307   3.470   3.087  17.046  0.5202  0.4401  0.0989
10631TIP3    H153308   3.422   3.010  17.078  1.1290 -0.3446 -0.8066
10631TIP3    H253309   3.411   3.127  16.982  2.0373 -2.1930 -3.2535
10632TIP3   OH253310   1.274   2.266  13.929 -0.1389 -1.3978 -0.2998
10632TIP3    H153311   1.210   2.337  13.927  1.0941 -0.2477 -0.4547
10632TIP3    H253312   1.252   2.211  13.855  0.0637 -0.0672 -1.3897
10633TIP3   OH253313   2.222   4.256  16.607 -0.7368 -0.1024 -0.0928
10633TIP3    H153314   2.146   4.199  16.596 -2.0693  1.3880  0.9542
10633TIP3    H253315   2.212   4.322  16.539  0.5339 -0.7944 -0.9873
10634TIP3   OH253316   5.602   6.139   0.507  0.2907 -0.2434  0.0458
10634TIP3    H153317   5.531   6.145   0.571 -0.1868  0.5578 -0.5402
10634TIP3    H253318   5.613   6.228   0.475 -0.1655 -0.7785 -1.7129
10635TIP3   OH253319   1.105   5.849  16.041  0.2941 -0.2729  0.0431
10635TIP3    H153320   1.011   5.836  16.024  0.5897 -1.7868 -0.6380
10635TIP3    H253321   1.125   5.932  15.999 -0.8438  0.3260  0.6346
10636TIP3   OH253322   5.414   0.956   1.058  1.0751  0.2723  0.3902
10636TIP3    H153323   5.462   0.907   1.125  0.2594  0.9520  1.5047
10636TIP3    H253324   5.374   1.029   1.105 -0.0366  0.4285 -0.7289
10637TIP3   OH253325   1.064   2.725   4.019 -0.1178 -0.1268 -0.2894
10637TIP3    H153326   1.051   2.630   4.021  0.0969 -0.1675 -0.6939
10637TIP3    H253327   0.983   2.759   3.980 -0.0055 -0.1836 -0.5746
10638TIP3   OH253328   4.118   6.095   3.277  0.0266  0.0114 -1.0129
10638TIP3    H153329   4.190   6.122   3.334 -1.1473 -0.4816  0.8016
10638TIP3    H253330   4.040   6.100   3.333 -1.2483 -0.2321 -2.6788
10639TIP3   OH253331   2.509   6.114  17.274  0.6000  0.1316 -0.0363
10639TIP3    H153332   2.529   6.068  17.192  2.8503 -2.1238  1.6527
10639TIP3    H253333   2.414   6.112  17.279  0.4119 -0.0986 -2.3071
10640TIP3   OH253334   2.432   3.064   4.525 -0.1537  0.2203  0.2294
10640TIP3    H153335   2.471   3.149   4.548 -1.3451  0.3736  1.9165
10640TIP3    H253336   2.502   3.018   4.479  1.8571  0.7399  2.4859
10641TIP3   OH253337   0.493   5.522   5.723 -0.6864 -0.4550  0.1137
10641TIP3    H153338   0.448   5.548   5.642 -0.4011  3.4919  1.0374
10641TIP3    H253339   0.585   5.512   5.697 -0.7535 -0.1881 -0.2331
10642TIP3   OH253340   3.582   3.517   1.181 -0.0546  0.3459 -0.4254
10642TIP3    H153341   3.581   3.461   1.258  0.9278  0.4403 -0.3261
10642TIP3    H253342   3.514   3.582   1.197  0.9071  1.0700  0.9102
10643TIP3   OH253343   3.480   0.307  16.791  0.0012 -1.0174  0.3244
10643TIP3    H153344   3.504   0.271  16.876  1.5326 -0.5297  0.1137
10643TIP3    H253345   3.473   0.401  16.805 -0.0512 -0.9691 -0.0163
10644TIP3   OH253346   3.345   3.485  13.357  0.0824 -0.2713 -0.2251
10644TIP3    H153347   3.400   3.538  13.298  0.9583  0.4155  1.1607
10644TIP3    H253348   3.403   3.463  13.430 -1.5167  0.6767  1.4032
10645TIP3   OH253349   2.726   2.017   5.484 -0.1554  0.2343 -0.2966
10645TIP3    H153350   2.741   1.977   5.398 -0.4906 -1.7070  0.5060
10645TIP3    H253351   2.808   2.062   5.504  0.0681  0.3683 -1.4512
10646TIP3   OH253352   2.195   0.393  14.405 -0.0456 -0.3459 -0.3332
10646TIP3    H153353   2.163   0.324  14.347 -0.9771  0.7187 -1.1514
10646TIP3    H253354   2.158   0.371  14.491 -0.9027 -0.5132 -0.7307
10647TIP3   OH253355   4.920   4.787  16.274 -0.4230  0.0269 -0.0757
10647TIP3    H153356   4.959   4.856  16.328  2.6973 -0.0854 -1.9521
10647TIP3    H253357   4.967   4.708  16.298 -3.6034 -1.5449  1.6669
10648TIP3   OH253358   5.894   6.055   0.745  0.1725 -0.1629  0.3434
10648TIP3    H153359   5.801   6.068   0.763  0.1807  0.5277 -0.0730
10648TIP3    H253360   5.917   6.126   0.685  1.2954  0.5172  1.5267
10649TIP3   OH253361   1.181   5.266   2.258 -0.1175  0.2859 -0.4680
10649TIP3    H153362   1.111   5.319   2.297 -0.8489 -1.3024  0.5040
10649TIP3    H253363   1.243   5.252   2.329 -1.5557 -2.7961  0.3413
10650TIP3   OH253364   1.650   4.883  14.468 -0.7047  0.0181 -0.0080
10650TIP3    H153365   1.605   4.905  14.387  0.0316  0.0852 -0.4057
10650TIP3    H253366   1.684   4.967  14.499  0.8507 -0.3131 -0.7575
10651TIP3   OH253367   6.568   1.878  14.393 -0.0856  0.0392 -0.1482
10651TIP3    H153368   6.604   1.838  14.314 -0.5558  0.2511 -0.4802
10651TIP3    H253369   6.628   1.949  14.414  0.0702 -0.0499 -0.2907
10652TIP3   OH253370   2.405   1.302  14.470 -0.1577  0.0520 -0.0222
10652TIP3    H153371   2.427   1.215  14.504 -1.4181  0.2294  1.3331
10652TIP3    H253372   2.488   1.337  14.438  0.9653 -0.4714  2.1348
10653TIP3   OH253373   5.373   2.052   6.014  0.8730 -0.4735  0.2831
10653TIP3    H153374   5.422   2.123   6.056  1.2577 -1.9505  2.5227
10653TIP3    H253375   5.437   2.007   5.960  0.5175  1.0897 -1.5519
10654TIP3   OH253376   5.912   4.112  12.622 -0.2912  0.4540  0.3768
10654TIP3    H153377   5.833   4.157  12.652 -0.6987  0.5835 -0.8586
10654TIP3    H253378   5.907   4.026  12.664 -0.9504  0.5546  0.5257
10655TIP3   OH253379   2.253   5.090  15.729 -0.1589 -0.5949 -0.1230
10655TIP3    H153380   2.275   5.096  15.636 -0.3435  1.1330 -0.0774
10655TIP3    H253381   2.158   5.079  15.731 -0.1050 -1.1227 -0.1289
10656TIP3   OH253382   3.245   4.116   1.218 -0.3083  0.7811 -0.2690
10656TIP3    H153383   3.293   4.088   1.296  1.0294  0.7414 -1.0817
10656TIP3    H253384   3.288   4.071   1.146 -0.4606  2.0968 -1.2118
10657TIP3   OH253385   2.184   0.478   5.852  0.1259  0.5003 -0.0869
10657TIP3    H153386   2.266   0.445   5.888  0.5637  0.8963 -0.6865
10657TIP3    H253387   2.200   0.572   5.841 -0.2567  0.5071 -0.5979
10658TIP3   OH253388   6.238   1.547   5.801  0.2516  0.1282  0.4261
10658TIP3    H153389   6.193   1.475   5.844 -1.3799 -0.2972 -1.7964
10658TIP3    H253390   6.190   1.625   5.829  1.9703  0.4464  2.7698
10659TIP3   OH253391   5.242   1.486   4.465  0.0369 -0.3672 -0.2368
10659TIP3    H153392   5.298   1.556   4.499  0.6775 -0.5717 -0.8406
10659TIP3    H253393   5.171   1.478   4.529  1.5158 -1.1580  1.3713
10660TIP3   OH253394   4.043   5.441   2.960 -0.3618 -0.6753  0.5890
10660TIP3    H153395   4.077   5.365   3.008  0.3866  0.1561  1.4108
10660TIP3    H253396   4.013   5.405   2.877  1.2324 -1.6782  0.4084
10661TIP3   OH253397   3.873   3.623  14.119  0.5043 -0.4705 -0.2616
10661TIP3    H153398   3.860   3.718  14.109 -0.4452 -0.7201 -1.7247
10661TIP3    H253399   3.786   3.588  14.134  0.7229 -1.2101 -0.6975
10662TIP3   OH253400   5.050   6.751  10.821 -0.0767 -0.4807 -0.3251
10662TIP3    H153401   5.009   6.670  10.791  0.3566 -2.3047  3.4555
10662TIP3    H253402   5.131   6.758  10.771  0.2080 -2.8146 -0.2676
10663TIP3   OH253403   5.939   2.328   3.663 -0.2413 -0.0683  0.1384
10663TIP3    H153404   5.878   2.302   3.594 -1.1412  0.2970  0.7749
10663TIP3    H253405   6.020   2.351   3.617 -0.2375 -1.5329 -0.6468
10664TIP3   OH253406   0.555   3.704  11.424 -0.2839 -0.2206  0.3288
10664TIP3    H153407   0.535   3.637  11.488  0.1532 -1.1660 -0.4974
10664TIP3    H253408   0.500   3.779  11.449  0.6694 -0.1718  2.4142
10665TIP3   OH253409   0.352   5.497  12.688 -0.1764 -0.0365 -0.1394
10665TIP3    H153410   0.326   5.557  12.619  1.0525  1.4654  0.6524
10665TIP3    H253411   0.299   5.418  12.673 -2.1866  1.3901 -0.9189
10666TIP3   OH253412   1.411   1.009  14.093  0.1626 -0.4017  0.5054
10666TIP3    H153413   1.433   1.102  14.098 -1.0674 -0.0344 -0.6588
10666TIP3    H253414   1.496   0.965  14.084  0.6888  0.6699  0.1169
10667TIP3   OH253415   2.333   0.339   3.018  0.0158  0.6072  0.2706
10667TIP3    H153416   2.369   0.421   3.051 -1.0697  0.7841  1.0486
10667TIP3    H253417   2.309   0.290   3.096 -0.5223  0.0868 -0.2117
10668TIP3   OH253418   4.149   6.185  14.980  0.3306 -0.4093 -0.0253
10668TIP3    H153419   4.230   6.143  14.952  0.0981  0.4356 -2.1467
10668TIP3    H253420   4.114   6.225  14.901 -0.9833  1.2286  1.3039
10669TIP3   OH253421   4.891   4.755  10.785 -0.1580 -0.2836  0.4287
10669TIP3    H153422   4.856   4.666  10.793  0.8821 -0.7912 -0.4110
10669TIP3    H253423   4.986   4.744  10.790  0.1040  0.5112 -1.7522
10670TIP3   OH253424   3.518   3.616   4.333  0.6867 -0.0205  0.1588
10670TIP3    H153425   3.529   3.601   4.239 -0.4566  0.3756 -0.0508
10670TIP3    H253426   3.441   3.564   4.357 -0.6735  1.9603  0.3055
10671TIP3   OH253427   5.636   3.323   1.992 -0.0270  0.4613 -0.3644
10671TIP3    H153428   5.659   3.415   1.980  2.7441 -0.0272  0.4927
10671TIP3    H253429   5.649   3.284   1.906  3.9309  0.0012  0.2670
10672TIP3   OH253430   3.654   4.343  16.809 -0.2139  0.3395 -0.4208
10672TIP3    H153431   3.643   4.310  16.897 -0.7634  1.2001 -0.1499
10672TIP3    H253432   3.669   4.437  16.820  0.5529  0.3277 -1.1969
10673TIP3   OH253433   6.279   2.009  11.448 -0.0708 -0.3469  0.2469
10673TIP3    H153434   6.267   1.925  11.492  0.7984 -1.1011 -0.9208
10673TIP3    H253435   6.270   1.989  11.355 -1.4445  1.1446  0.0077
10674TIP3   OH253436   5.528   6.043   2.333  0.3532 -0.1631  0.3879
10674TIP3    H153437   5.540   5.989   2.411  0.7624  1.3239  1.4050
10674TIP3    H253438   5.601   6.106   2.336 -0.1440  0.4920 -0.6928
10675TIP3   OH253439   1.407   4.896  17.236 -0.5658 -0.4393 -0.0326
10675TIP3    H153440   1.396   4.842  17.315 -0.4399 -1.0855 -0.4540
10675TIP3    H253441   1.359   4.850  17.168 -2.0335  0.9397  0.0100
10676TIP3   OH253442   5.931   4.893   0.524 -0.4408 -0.4984  0.5666
10676TIP3    H153443   5.980   4.821   0.486 -0.7350 -0.5897  0.3594
10676TIP3    H253444   5.846   4.891   0.479 -0.1096  0.5822 -0.1488
10677TIP3   OH253445   2.415   1.451  15.984 -0.0230  0.1273  0.1795
10677TIP3    H153446   2.389   1.447  16.076  1.2515  1.2437  0.6217
10677TIP3    H253447   2.435   1.360  15.961 -1.0944 -0.2789  0.7542
10678TIP3   OH253448   2.568   0.611   3.830 -0.4035  0.3589 -0.1863
10678TIP3    H153449   2.542   0.654   3.912  1.6415  2.4519 -0.5420
10678TIP3    H253450   2.497   0.631   3.769 -1.4354 -0.3213  0.7423
10679TIP3   OH253451   0.949   5.191  12.224 -0.7517 -0.1267 -0.5111
10679TIP3    H153452   0.937   5.155  12.312 -0.0125  0.6101 -0.0943
10679TIP3    H253453   0.992   5.121  12.175  1.2309  0.3423  0.4580
10680TIP3   OH253454   3.139   6.266  13.174 -0.9026 -0.2982  0.2319
10680TIP3    H153455   3.133   6.280  13.268 -1.1481 -0.1343  0.1928
10680TIP3    H253456   3.148   6.354  13.137  1.4391 -0.4764  0.2466
10681TIP3   OH253457   0.553   0.492   3.240 -0.2999  0.0657  0.1681
10681TIP3    H153458   0.590   0.435   3.173 -0.4062 -0.0890  0.2398
10681TIP3    H253459   0.468   0.518   3.206 -0.1649  0.3483  0.0438
10682TIP3   OH253460   2.967   2.154   2.639 -0.0728 -0.1363 -0.1281
10682TIP3    H153461   2.983   2.209   2.563 -0.7798 -1.7777 -1.5398
10682TIP3    H253462   2.972   2.213   2.714  1.0177  1.4601 -1.4082
10683TIP3   OH253463   2.323   1.416   0.358 -0.1642  0.0548 -0.1088
10683TIP3    H153464   2.395   1.479   0.357  0.4289 -0.6028 -1.5352
10683TIP3    H253465   2.258   1.455   0.416  1.1632  0.8494  0.9034
10684TIP3   OH253466   6.115   1.128   0.208 -0.1296  0.4650 -0.5179
10684TIP3    H153467   6.161   1.072   0.269  0.9528 -0.6091 -2.2293
10684TIP3    H253468   6.182   1.157   0.146 -0.8881  2.7189 -0.3891
10685TIP3   OH253469   4.864   0.105  15.983  0.3320  0.0428  0.5301
10685TIP3    H153470   4.792   0.043  15.966 -0.4451  0.9570  0.4176
10685TIP3    H253471   4.938   0.049  16.007 -0.4156 -0.9209  0.6645
10686TIP3   OH253472   6.313   1.044  15.587 -0.2957 -0.2226 -0.3670
10686TIP3    H153473   6.381   1.039  15.654 -0.9425  2.1637  0.5852
10686TIP3    H253474   6.303   0.955  15.555  0.9354 -1.2032  1.8155
10687TIP3   OH253475   2.740   2.212   2.370 -0.8589  0.7101  0.2327
10687TIP3    H153476   2.681   2.175   2.436 -0.8281  1.3446  0.6266
10687TIP3    H253477   2.694   2.288   2.335 -0.1182  1.4629  0.8469
10688TIP3   OH253478   1.346   6.523   5.164  0.0193 -0.3356 -0.3107
10688TIP3    H153479   1.339   6.617   5.146 -1.8885 -0.5812 -1.0198
10688TIP3    H253480   1.276   6.504   5.226  1.1674 -1.1037  0.8198
10689TIP3   OH253481   6.745   0.885  12.558  0.0009  0.0922 -0.4001
10689TIP3    H153482   6.780   0.796  12.566  0.9517  0.3588 -1.3412
10689TIP3    H253483   6.660   0.882  12.601 -0.5840 -1.6285 -1.5821
10690TIP3   OH253484   3.311   4.746   0.082 -0.3783  1.0965 -0.6338
10690TIP3    H153485   3.392   4.792   0.104  0.0218  0.6634 -1.1671
10690TIP3    H253486   3.251   4.769   0.153  0.1003  1.6934 -0.4054
10691TIP3   OH253487   6.162   5.402  14.865  0.2424  0.5620 -0.4241
10691TIP3    H153488   6.080   5.369  14.829 -0.1233  1.8555 -0.8379
10691TIP3    H253489   6.136   5.472  14.925  1.0472  1.5576 -1.1871
10692TIP3   OH253490   0.051   1.971  10.607 -0.0695  0.3170 -0.2367
10692TIP3    H153491   0.018   1.946  10.521  0.5586  1.1526 -0.7448
10692TIP3    H253492  -0.027   1.999  10.656 -0.3537  0.4710 -0.7682
10693TIP3   OH253493   0.831   2.659   3.626  0.4448  0.4375 -0.1631
10693TIP3    H153494   0.845   2.572   3.589  0.5655 -0.0635  1.0311
10693TIP3    H253495   0.869   2.719   3.562  1.9794 -0.4901 -0.1530
10694TIP3   OH253496   1.132   6.504   4.447  0.0212  0.0025  0.2065
10694TIP3    H153497   1.202   6.555   4.405 -0.4742 -0.3631 -1.1381
10694TIP3    H253498   1.168   6.415   4.452 -0.6842 -0.4199 -1.4575
10695TIP3   OH253499   1.370   3.861  11.365  0.4280  0.1661 -0.9324
10695TIP3    H153500   1.362   3.773  11.327  3.3385 -1.4320  1.7030
10695TIP3    H253501   1.457   3.890  11.340  0.3705  1.3301  0.1578
10696TIP3   OH253502   5.699   4.498   2.988  0.0018 -0.1226 -0.3265
10696TIP3    H153503   5.609   4.514   2.961 -0.0906 -1.8390 -1.1962
10696TIP3    H253504   5.753   4.544   2.924 -0.2037  2.1030  1.0068
10697TIP3   OH253505   4.716   1.789  13.735 -0.1064  0.1039  0.0970
10697TIP3    H153506   4.688   1.765  13.646 -0.5472 -0.2511  0.3331
10697TIP3    H253507   4.695   1.713  13.788 -0.8302  0.7262  0.7179
10698TIP3   OH253508   1.419   4.093  12.878  0.0285 -0.3094  0.3540
10698TIP3    H153509   1.356   4.055  12.940 -0.7491 -1.7886 -1.2678
10698TIP3    H253510   1.400   4.050  12.795  2.5188 -0.0296 -0.4392
10699TIP3   OH253511   2.352   4.968  11.091 -0.3997  0.0471 -0.2371
10699TIP3    H153512   2.393   4.900  11.039 -0.3393  0.1566 -0.3322
10699TIP3    H253513   2.287   5.007  11.033 -0.0730  0.4214 -0.3531
10700TIP3   OH253514   5.108   6.667  13.994 -0.0680  0.2110  0.3506
10700TIP3    H153515   5.037   6.638  14.051  1.2743 -0.4132  1.7747
10700TIP3    H253516   5.179   6.692  14.054  0.5132  1.9934 -0.9784
10701TIP3   OH253517   3.629   3.221  12.197  0.6125 -0.6070 -0.3928
10701TIP3    H153518   3.631   3.201  12.104 -0.7278 -1.9920 -0.1828
10701TIP3    H253519   3.686   3.155  12.237  0.5731 -0.5099 -0.1757
10702TIP3   OH253520   0.229   2.988  15.414  0.6792 -0.0674 -0.0808
10702TIP3    H153521   0.196   2.962  15.500 -0.2486 -1.9912 -0.9549
10702TIP3    H253522   0.176   3.065  15.390  1.4560  0.9542  1.3315
10703TIP3   OH253523   0.611   5.653  15.384 -1.0905 -0.7927  0.3006
10703TIP3    H153524   0.534   5.646  15.327 -0.2799 -2.0005 -0.6758
10703TIP3    H253525   0.686   5.648  15.324 -0.2246  0.6495  1.2014
10704TIP3   OH253526   1.639   1.647   4.814 -0.3967  0.0614  0.8366
10704TIP3    H153527   1.630   1.571   4.757  1.1516  0.3405  0.1698
10704TIP3    H253528   1.572   1.708   4.783 -0.2473 -0.2004 -0.0136
10705TIP3   OH253529   4.609   0.194  16.414 -0.0649 -0.4233  0.0346
10705TIP3    H153530   4.702   0.190  16.392 -0.1676 -0.2391 -0.4398
10705TIP3    H253531   4.604   0.259  16.485  0.0656  0.1574 -0.4818
10706TIP3   OH253532   0.122   4.576  16.747 -0.1474  0.2489  0.0955
10706TIP3    H153533   0.048   4.636  16.750 -0.2586  0.0637  2.0304
10706TIP3    H253534   0.147   4.574  16.654 -2.3178  0.5802 -0.5512
10707TIP3   OH253535   5.985   5.846   0.893  0.3658 -0.3384 -0.4416
10707TIP3    H153536   5.973   5.925   0.841  0.6781 -0.0307 -0.0464
10707TIP3    H253537   5.917   5.851   0.961 -0.8864 -1.3691 -1.5593
10708TIP3   OH253538   5.254   4.288  14.103  0.1056  0.4185 -0.0049
10708TIP3    H153539   5.264   4.381  14.084  2.8508  0.3450  0.6583
10708TIP3    H253540   5.235   4.248  14.018 -0.1493  1.4510 -0.4511
10709TIP3   OH253541   4.359   4.054  12.303 -0.0942  0.2172  0.0490
10709TIP3    H153542   4.280   4.010  12.333  0.4244 -0.5214  0.3940
10709TIP3    H253543   4.359   4.138  12.348 -0.2079 -0.1745  0.8076
10710TIP3   OH253544   5.598   6.214  13.714  0.0969  0.4957 -0.3941
10710TIP3    H153545   5.515   6.256  13.691  0.0709  0.3343 -0.5988
10710TIP3    H253546   5.647   6.281  13.761 -0.3463  0.4408  0.1513
10711TIP3   OH253547   2.809   6.476   4.309 -0.4669  0.0285  0.1831
10711TIP3    H153548   2.863   6.551   4.286 -1.0808  0.4853  0.2163
10711TIP3    H253549   2.800   6.480   4.404 -0.9165  0.2009  0.1335
10712TIP3   OH253550   2.788   3.652  15.895  0.3230  0.9141  0.1621
10712TIP3    H153551   2.778   3.657  15.990  1.4581  0.0954  0.3364
10712TIP3    H253552   2.765   3.740  15.864  0.4540  1.3351  1.2306
10713TIP3   OH253553   2.037   5.672  12.388  0.2626 -0.0846 -0.5033
10713TIP3    H153554   2.072   5.598  12.340  1.6572  0.3338 -0.1998
10713TIP3    H253555   1.943   5.670  12.372  0.6968  0.4022 -3.7577
10714TIP3   OH253556   4.786   4.209  16.201  0.2193  0.6018 -0.5488
10714TIP3    H153557   4.733   4.166  16.267  1.6869  1.3453  1.1877
10714TIP3    H253558   4.810   4.139  16.140  0.0284 -0.4022  0.4949
10715TIP3   OH253559   6.488   2.308  16.300 -0.4060  0.3764 -0.6179
10715TIP3    H153560   6.524   2.396  16.301 -0.1196  0.2661  0.9080
10715TIP3    H253561   6.420   2.310  16.233 -0.3885  1.7454 -0.6102
10716TIP3   OH253562   2.380   0.775  11.534 -0.1096  0.0893  0.2664
10716TIP3    H153563   2.462   0.815  11.563  1.1407 -1.3561 -1.0409
10716TIP3    H253564   2.331   0.847  11.494 -0.4807  1.4301  2.8978
10717TIP3   OH253565   1.368   3.767   5.327 -0.4092  0.0454 -0.2392
10717TIP3    H153566   1.319   3.728   5.254 -1.2264  1.2970 -0.3854
10717TIP3    H253567   1.460   3.751   5.305 -0.6878 -1.9501 -0.1898
10718TIP3   OH253568   4.389   6.704   1.481 -0.3435 -0.5645  0.6143
10718TIP3    H153569   4.369   6.797   1.491 -0.3630 -0.5240  0.2124
10718TIP3    H253570   4.335   6.675   1.408 -0.1293 -0.8273  0.5568
10719TIP3   OH253571   2.869   1.136  13.321  0.4085 -0.1933  0.1509
10719TIP3    H153572   2.863   1.130  13.226  1.5987  2.6378 -0.2083
10719TIP3    H253573   2.939   1.074  13.344  1.5538  0.5880 -1.0923
10720TIP3   OH253574   6.629   0.252   1.663 -0.2470 -0.4913 -0.7072
10720TIP3    H153575   6.597   0.337   1.694 -0.3071 -0.5304 -0.6627
10720TIP3    H253576   6.699   0.229   1.725  0.1818 -0.1888 -1.0745
10721TIP3   OH253577   0.845   2.823   2.784 -0.0556  0.3355 -0.1107
10721TIP3    H153578   0.911   2.886   2.810  1.2842 -1.5640  1.3460
10721TIP3    H253579   0.794   2.807   2.864 -0.3805 -0.4023 -0.4549
10722TIP3   OH253580   1.215   2.785  11.880 -0.2376  0.2961  0.1969
10722TIP3    H153581   1.203   2.799  11.974  3.0768  1.5937  0.5455
10722TIP3    H253582   1.295   2.833  11.859  0.3997 -1.8516 -2.8461
10723TIP3   OH253583   5.805   1.943   3.921  0.8092 -0.0247  0.0678
10723TIP3    H153584   5.803   1.945   3.825 -0.1397  1.7203  0.0857
10723TIP3    H253585   5.715   1.926   3.947  0.6054  1.7174  0.6358
10724TIP3   OH253586   0.556   6.185   0.988 -0.1526  0.1310 -0.7016
10724TIP3    H153587   0.605   6.234   0.922  0.6021 -2.3182 -2.0711
10724TIP3    H253588   0.622   6.159   1.053 -0.3831  0.1823 -0.4448
10725TIP3   OH253589   5.266   6.662  17.217 -0.3017  0.2613 -0.3206
10725TIP3    H153590   5.321   6.589  17.189 -0.9548 -0.1225 -0.6299
10725TIP3    H253591   5.259   6.719  17.139  1.0775  1.2252  0.2212
10726TIP3   OH253592   2.001   3.919   6.174  0.0594  0.6916 -0.1910
10726TIP3    H153593   2.035   3.913   6.085  0.7300 -0.3303  0.1140
10726TIP3    H253594   1.908   3.940   6.163 -0.1438 -0.6004 -1.1845
10727TIP3   OH253595   3.866   4.323  16.563  0.0872  0.2052  0.0783
10727TIP3    H153596   3.887   4.255  16.500  3.0412  2.5520 -1.7861
10727TIP3    H253597   3.773   4.341  16.549 -0.2134 -1.8390 -0.9356
10728TIP3   OH253598   1.790   4.846   4.192  0.1737 -0.0214  0.3457
10728TIP3    H153599   1.847   4.844   4.115  0.4917  0.4447  0.5617
10728TIP3    H253600   1.781   4.754   4.218  0.8476 -0.1005  0.3160
10729TIP3   OH253601   5.552   1.990  16.467  0.0930  0.8385  0.8018
10729TIP3    H153602   5.469   2.036  16.458 -1.0260 -1.2001 -0.0937
10729TIP3    H253603   5.585   1.982  16.378 -0.2809 -0.9224  0.7874
10730TIP3   OH253604   3.025   4.086  12.070  1.0065  0.1462  0.0183
10730TIP3    H153605   2.997   4.001  12.036 -1.2367  0.8955 -0.1804
10730TIP3    H253606   3.014   4.079  12.164 -3.3411  1.4129 -0.1832
10731TIP3   OH253607   3.924   3.992  12.573  0.1117 -0.4636 -0.1009
10731TIP3    H153608   3.851   3.981  12.634 -0.8920 -1.4604 -1.4090
10731TIP3    H253609   3.934   4.087  12.564  0.2397 -0.2903  1.5069
10732TIP3   OH253610   2.483   3.105  16.138  0.6950 -0.2233  0.4455
10732TIP3    H153611   2.537   3.164  16.084  0.0132 -0.3400 -0.3889
10732TIP3    H253612   2.457   3.035  16.078 -0.7120  0.0437  0.7124
10733TIP3   OH253613   0.574   3.380  13.157 -0.0833 -0.1036  0.4709
10733TIP3    H153614   0.494   3.431  13.168 -0.3597 -0.4247 -0.0546
10733TIP3    H253615   0.619   3.388  13.242  0.0897  1.3513  0.2615
10734TIP3   OH253616   0.600   4.092  11.688 -0.0888  0.4159  0.1765
10734TIP3    H153617   0.583   4.186  11.693 -0.2506  0.3377  1.3649
10734TIP3    H253618   0.515   4.053  11.667 -0.3050  0.4344  0.9991
10735TIP3   OH253619   0.616   2.305  17.276  0.4522  0.1762  0.0884
10735TIP3    H153620   0.587   2.216  17.253 -1.5867  1.2389 -1.8604
10735TIP3    H253621   0.584   2.317  17.365 -0.6071 -0.5368 -0.1709
10736TIP3   OH253622   3.974   2.996   0.615 -0.2960  0.4182  0.2754
10736TIP3    H153623   4.013   3.083   0.614 -0.6777  0.5832 -1.2804
10736TIP3    H253624   3.904   2.999   0.550 -1.5447 -0.5093  1.4992
10737TIP3   OH253625   5.664   5.263  15.133  0.6021  0.2809  0.0951
10737TIP3    H153626   5.613   5.182  15.138  1.8057 -0.4197  2.4231
10737TIP3    H253627   5.633   5.306  15.053 -2.0603 -1.1183  0.2678
10738TIP3   OH253628   0.062   5.358   1.731  1.0328  0.4976 -0.1743
10738TIP3    H153629   0.046   5.264   1.726 -1.9666  0.8961  0.0646
10738TIP3    H253630   0.095   5.382   1.645 -0.2809 -0.4653 -0.9810
10739TIP3   OH253631   5.620   5.752   3.115  0.5728  0.6149  0.2644
10739TIP3    H153632   5.671   5.832   3.099  0.1406  0.5467 -1.6667
10739TIP3    H253633   5.544   5.782   3.165  1.3429  1.0765  1.1988
10740TIP3   OH253634   0.877   6.621  17.317  0.0135 -0.6513 -0.5191
10740TIP3    H153635   0.948   6.679  17.289 -0.5440  0.6180  0.5431
10740TIP3    H253636   0.812   6.627  17.248 -1.0887  1.9726  0.5950
10741TIP3   OH253637   1.471   2.238   4.959 -0.0803  0.6181 -0.1777
10741TIP3    H153638   1.468   2.164   5.020  2.0598 -0.4056 -1.1960
10741TIP3    H253639   1.558   2.234   4.920 -0.6316  2.4656 -1.8128
10742TIP3   OH253640   4.306   3.007   1.972 -0.1565 -0.0575  0.0403
10742TIP3    H153641   4.219   3.005   1.933 -0.7759 -0.2121  1.4046
10742TIP3    H253642   4.291   3.005   2.066  1.3065  0.4661  0.3130
10743TIP3   OH253643   3.385   0.892  14.104  0.1785  0.6891  0.0209
10743TIP3    H153644   3.443   0.834  14.054  0.3440 -0.6058  1.6137
10743TIP3    H253645   3.438   0.969  14.123 -0.2467  1.7665 -2.7091
10744TIP3   OH253646   0.552   1.365  17.172 -0.8821 -0.7577 -0.3049
10744TIP3    H153647   0.565   1.283  17.124  0.5735 -0.1713 -0.9864
10744TIP3    H253648   0.556   1.341  17.264  1.5811 -1.2011 -0.4848
10745TIP3   OH253649   2.482   6.583  16.783 -0.9086  0.1328  0.0704
10745TIP3    H153650   2.421   6.588  16.709  0.8558 -0.0751 -1.4789
10745TIP3    H253651   2.502   6.490  16.792  1.0744  0.3691 -1.1617
10746TIP3   OH253652   6.462   4.731  12.406 -0.1270  0.0319  0.2333
10746TIP3    H153653   6.505   4.814  12.383 -1.5819  0.3420 -1.6124
10746TIP3    H253654   6.455   4.684  12.323  0.9696 -2.1443  1.2987
10747TIP3   OH253655   1.498   3.922  13.676  0.0071 -0.1162  0.4358
10747TIP3    H153656   1.441   3.975  13.732  0.8534 -0.0042  1.2227
10747TIP3    H253657   1.447   3.844  13.656 -2.5793  2.2274 -3.3657
10748TIP3   OH253658   4.921   2.793  15.507  0.3159  0.3680 -0.3448
10748TIP3    H153659   4.850   2.747  15.553 -1.3664 -0.1145 -3.1763
10748TIP3    H253660   4.940   2.738  15.431  3.0693  1.0366 -0.2298
10749TIP3   OH253661   3.647   1.909   4.345  0.2425  0.2351  0.3321
10749TIP3    H153662   3.670   1.817   4.347 -0.7304 -0.0112  1.5938
10749TIP3    H253663   3.564   1.912   4.297 -0.2354  0.3008  1.1345
10750TIP3   OH253664   3.246   3.583  17.341  0.2886 -0.0037  0.6540
10750TIP3    H153665   3.228   3.666  17.385  0.8817 -0.0863  1.0681
10750TIP3    H253666   3.280   3.609  17.255 -0.7792  0.1590  0.2659
10751TIP3   OH253667   4.791   2.804   2.138 -0.3617  0.3121 -0.0734
10751TIP3    H153668   4.853   2.756   2.193  0.3006  0.1458 -0.9439
10751TIP3    H253669   4.775   2.886   2.185  1.7126  1.0407 -0.5374
10752TIP3   OH253670   2.662   2.747   2.529 -0.4756 -0.1766 -0.2010
10752TIP3    H153671   2.656   2.787   2.443 -0.3741 -1.2671 -0.7342
10752TIP3    H253672   2.698   2.660   2.513 -1.6007 -0.8664  0.7973
10753TIP3   OH253673   3.114   2.387  17.197  0.2231 -0.5485 -0.5525
10753TIP3    H153674   3.149   2.298  17.193  0.4708 -0.4285 -1.0982
10753TIP3    H253675   3.023   2.375  17.225  0.3363 -0.9515 -0.3402
10754TIP3   OH253676   4.068   2.470  14.663  0.4445 -0.3145 -0.0004
10754TIP3    H153677   4.043   2.400  14.722  0.6372  0.7356  1.3752
10754TIP3    H253678   3.986   2.503  14.627  0.3472 -1.1469 -0.5497
10755TIP3   OH253679   1.576   2.647  11.383 -0.0996 -0.0266 -1.0232
10755TIP3    H153680   1.510   2.660  11.315 -0.4600 -0.0210 -0.6801
10755TIP3    H253681   1.650   2.702  11.357 -0.9253  1.3812 -0.4942
10756TIP3   OH253682   3.092   0.336   5.035  0.6686 -0.1498  0.4045
10756TIP3    H153683   3.114   0.426   5.013  3.3099 -0.7627  0.2060
10756TIP3    H253684   3.174   0.288   5.026 -0.3848 -2.3697  1.6805
10757TIP3   OH253685   2.429   1.844  11.314 -0.2062  0.0464  0.1856
10757TIP3    H153686   2.341   1.809  11.300  0.1148 -1.1136  0.9082
10757TIP3    H253687   2.482   1.768  11.336  0.5307  0.9843  1.8572
10758TIP3   OH253688   3.581   5.238  16.017 -0.1513 -0.2259  0.3266
10758TIP3    H153689   3.509   5.301  16.018  0.0508  0.0067  0.4350
10758TIP3    H253690   3.563   5.180  16.090  0.0126  0.1139  0.6436
10759TIP3   OH253691   1.777   1.892  13.729 -0.8231  0.2594  0.0981
10759TIP3    H153692   1.733   1.818  13.771  1.4499 -0.3783  1.4816
10759TIP3    H253693   1.759   1.966  13.787  0.4938 -0.1569  1.0634
10760TIP3   OH253694   6.640   2.909  11.375  0.7980  0.4805  0.1123
10760TIP3    H153695   6.654   2.826  11.330  1.2674 -1.1632  3.0558
10760TIP3    H253696   6.700   2.907  11.450 -1.2360  2.1632  1.9285
10761TIP3   OH253697   1.675   1.550   2.296 -0.1681  0.0132 -0.4827
10761TIP3    H153698   1.718   1.620   2.345  1.0808 -0.4225 -0.9236
10761TIP3    H253699   1.630   1.497   2.362  0.3830  0.1914  0.0399
10762TIP3   OH253700   0.692   5.120   6.013 -0.0826  0.2332 -0.1035
10762TIP3    H153701   0.697   5.053   6.081  0.3438 -0.3538 -0.7035
10762TIP3    H253702   0.611   5.100   5.966 -0.4914  0.7712  0.3537
10763TIP3   OH253703   2.889   6.687  13.177 -0.4541 -0.5258 -0.1840
10763TIP3    H153704   2.893   6.648  13.265 -0.9680  1.4390  0.7809
10763TIP3    H253705   2.816   6.750  13.183  0.3625  0.6035 -1.5982
10764TIP3   OH253706   5.270   4.802   5.249 -0.5399 -0.1167 -0.0217
10764TIP3    H153707   5.194   4.745   5.264 -0.7496  0.5115  1.5034
10764TIP3    H253708   5.346   4.745   5.257 -0.8023 -0.4544  0.0486
10765TIP3   OH253709   5.338   4.258  11.863 -0.1109 -0.1909 -0.4856
10765TIP3    H153710   5.367   4.339  11.904 -1.2603 -0.0204  0.0434
10765TIP3    H253711   5.271   4.224  11.923  0.3364 -1.5330 -0.6935
10766TIP3   OH253712   2.995   5.801  14.308  0.0701  0.1732  0.0885
10766TIP3    H153713   2.930   5.863  14.339 -3.0775 -2.4967 -0.5541
10766TIP3    H253714   3.005   5.822  14.215 -0.8583 -0.1480 -0.0930
10767TIP3   OH253715   0.831   4.812  11.914  0.3444  0.2946  0.0621
10767TIP3    H153716   0.850   4.785  11.824  1.6345  0.4765  0.2557
10767TIP3    H253717   0.858   4.904  11.918 -0.9808  0.6949  0.2863
10768TIP3   OH253718   3.764   2.902   2.889 -0.2554  0.0303  0.2013
10768TIP3    H153719   3.794   2.859   2.809  1.4051  1.1972  0.1458
10768TIP3    H253720   3.825   2.974   2.902 -0.4431 -0.1470  2.5594
10769TIP3   OH253721   5.350   6.311  12.681  0.0174 -0.3092 -0.3675
10769TIP3    H153722   5.378   6.220  12.672 -0.4225 -0.5795  0.7919
10769TIP3    H253723   5.422   6.362  12.644 -0.1251 -1.1430 -1.8540
10770TIP3   OH253724   3.845   0.154  15.751  0.3923  0.0043  0.0267
10770TIP3    H153725   3.866   0.062  15.734  0.7969  0.0140  0.4494
10770TIP3    H253726   3.900   0.203  15.690  0.3073 -0.0284 -0.0762
10771TIP3   OH253727   2.368   4.908   3.702  0.0736  0.3601  0.1855
10771TIP3    H153728   2.451   4.874   3.671 -0.0360 -0.7784  1.0797
10771TIP3    H253729   2.320   4.831   3.733 -0.5169  1.2090  1.4866
10772TIP3   OH253730   6.214   4.962   4.377  0.1681 -0.2493 -1.0417
10772TIP3    H153731   6.302   4.957   4.414  0.2251 -0.6739 -1.2337
10772TIP3    H253732   6.226   4.994   4.288 -0.0587  1.9066 -0.3724
10773TIP3   OH253733   6.526   2.990   5.904 -0.3925 -0.2179  0.4831
10773TIP3    H153734   6.438   3.023   5.922 -1.0103 -0.1689 -2.1495
10773TIP3    H253735   6.526   2.902   5.942 -1.3906 -0.0320  0.9724
10774TIP3   OH253736   0.714   1.157   4.168  0.4692  0.7808 -0.0079
10774TIP3    H153737   0.695   1.206   4.248  0.3800  1.4668 -0.4371
10774TIP3    H253738   0.670   1.207   4.099  0.3259  0.0563 -0.4529
10775TIP3   OH253739   4.816   3.244   1.817  0.0659 -0.0118  0.3663
10775TIP3    H153740   4.840   3.261   1.726 -0.1175 -2.7598 -0.2761
10775TIP3    H253741   4.898   3.247   1.865 -0.0544  3.6784  0.6479
10776TIP3   OH253742   2.146   6.296   2.338  0.4547 -0.3684 -0.1857
10776TIP3    H153743   2.226   6.343   2.314  0.7567  0.6486  2.5418
10776TIP3    H253744   2.079   6.333   2.280  0.9858  2.4314  0.8284
10777TIP3   OH253745   1.108   3.535   6.215 -0.3239  0.2833  0.6148
10777TIP3    H153746   1.020   3.522   6.178 -0.2829  2.4705 -0.4105
10777TIP3    H253747   1.139   3.616   6.175  1.3295  0.6946  2.5708
10778TIP3   OH253748   0.916   1.597   2.381 -0.6811 -0.4279 -0.1781
10778TIP3    H153749   0.845   1.573   2.440  0.2352 -0.3128  1.0000
10778TIP3    H253750   0.944   1.683   2.410 -1.6150  0.6306 -2.1665
10779TIP3   OH253751   1.118   4.182  12.049 -0.2183 -0.6293  0.5393
10779TIP3    H153752   1.164   4.154  11.970  0.6305 -1.2976  1.2517
10779TIP3    H253753   1.050   4.242  12.018  1.6067  1.0042 -0.5090
10780TIP3   OH253754   0.002   4.611  13.878  0.0066 -0.1444 -0.0702
10780TIP3    H153755  -0.049   4.531  13.889 -0.6553  0.2392 -0.3345
10780TIP3    H253756  -0.062   4.681  13.877  0.4453  0.2675 -1.4059
10781TIP3   OH253757   1.956   0.350   3.290 -0.4623 -0.0977 -0.0595
10781TIP3    H153758   2.036   0.402   3.296 -1.1721  0.9446  0.8111
10781TIP3    H253759   1.979   0.265   3.326  1.2296 -1.0983 -3.1807
10782TIP3   OH253760   1.690   5.082  16.164 -0.5256  0.9998  0.5660
10782TIP3    H153761   1.662   5.152  16.104 -0.4135 -0.4857 -1.3007
10782TIP3    H253762   1.610   5.032  16.182 -0.0262 -0.3857 -0.8854
10783TIP3   OH253763   1.059   3.622  12.801  0.1833  0.2600 -0.1589
10783TIP3    H153764   1.131   3.559  12.807  0.3562  0.5536  1.0253
10783TIP3    H253765   1.102   3.706  12.788 -0.0905 -0.0198 -3.8930
10784TIP3   OH253766   1.627   4.565   3.327  0.1905 -0.6927 -0.4381
10784TIP3    H153767   1.685   4.489   3.323  2.5385  0.8517  1.2408
10784TIP3    H253768   1.630   4.602   3.239  0.0659 -1.8121 -0.9239
10785TIP3   OH253769   2.807   2.515  15.855  0.2533 -0.6391 -0.4923
10785TIP3    H153770   2.750   2.553  15.788  1.9173  0.2291 -1.4718
10785TIP3    H253771   2.759   2.438  15.886 -1.0159 -0.4780 -1.9422
10786TIP3   OH253772   2.652   4.624  16.305 -0.4271  0.2166  0.5837
10786TIP3    H153773   2.591   4.584  16.242 -0.5124  1.1001  0.0890
10786TIP3    H253774   2.642   4.718  16.292  3.5536  0.5309 -2.1148
10787TIP3   OH253775   3.165   5.656   4.791 -0.0996  0.1265 -0.0057
10787TIP3    H153776   3.189   5.691   4.877  3.0285  1.2332 -1.1597
10787TIP3    H253777   3.134   5.732   4.742  1.8140  0.3528 -0.9577
10788TIP3   OH253778   6.469   4.138   5.983 -0.9701  0.1420  0.1570
10788TIP3    H153779   6.470   4.115   6.076 -0.2228  1.1247  0.4131
10788TIP3    H253780   6.540   4.202   5.974 -2.4691  1.7875 -0.6391
10789TIP3   OH253781   1.043   5.557   2.905 -0.8575 -0.5739  0.2212
10789TIP3    H153782   1.071   5.527   2.991 -2.4532 -0.7649  0.7160
10789TIP3    H253783   0.948   5.544   2.905 -1.4301  2.6988 -0.2271
10790TIP3   OH253784   2.177   3.388   1.195  0.0003  0.1658 -0.0021
10790TIP3    H153785   2.227   3.465   1.169 -0.4170  0.2440 -0.5745
10790TIP3    H253786   2.214   3.364   1.281  0.2410  0.8946  0.1057
10791TIP3   OH253787   0.264   6.680  16.839 -0.0542  0.4116  0.4579
10791TIP3    H153788   0.169   6.686  16.831 -0.1934 -1.4085  0.2275
10791TIP3    H253789   0.282   6.586  16.839  1.8622  0.7202 -0.8590
10792TIP3   OH253790   0.112   0.067   4.489  0.5082 -0.1040 -0.2985
10792TIP3    H153791   0.048   0.137   4.504  0.7595 -0.1920  1.3760
10792TIP3    H253792   0.172   0.074   4.564  1.8970 -0.6399 -1.3298
10793TIP3   OH253793   4.000   2.868  15.992  0.3446  0.1189  0.0965
10793TIP3    H153794   3.986   2.871  16.087 -0.3376 -0.1391  0.0066
10793TIP3    H253795   3.921   2.907  15.955  1.2114  1.5339 -0.3328
10794TIP3   OH253796   0.976   2.399   2.459 -0.0185 -0.3932  0.1858
10794TIP3    H153797   0.993   2.333   2.526 -1.1603  0.0230  0.9109
10794TIP3    H253798   0.886   2.383   2.431 -0.0334  0.3402 -0.2255
10795TIP3   OH253799   5.285   3.525   1.980 -0.4801 -0.4209 -0.4704
10795TIP3    H153800   5.217   3.562   2.037  0.4014 -0.2974  0.5303
10795TIP3    H253801   5.272   3.569   1.896  0.1555  1.7935  0.5056
10796TIP3   OH253802   5.121   2.179   3.732  0.4939 -0.4127 -0.3263
10796TIP3    H153803   5.071   2.207   3.655  0.8170 -0.8376 -0.6967
10796TIP3    H253804   5.176   2.254   3.753 -0.2969  0.0714  0.0974
10797TIP3   OH253805   3.109   5.116  12.699 -0.2123 -0.8251  0.2481
10797TIP3    H153806   3.193   5.136  12.658  0.0570 -0.9476  0.7408
10797TIP3    H253807   3.115   5.024  12.722 -0.5997 -0.9117  0.0111
10798TIP3   OH253808   5.426   4.075   0.174 -0.3296 -0.3897 -0.1911
10798TIP3    H153809   5.500   4.118   0.132 -0.1861 -0.4166  0.0327
10798TIP3    H253810   5.460   4.046   0.258 -0.7146  0.0039  0.1078
10799TIP3   OH253811   1.183   3.253  16.102 -0.2024  0.5470 -0.0538
10799TIP3    H153812   1.089   3.269  16.097 -0.4120 -0.5001  0.2574
10799TIP3    H253813   1.196   3.173  16.052  0.1741 -0.5647  1.7144
10800TIP3   OH253814   2.315   6.661  11.706  0.2316  0.4020 -0.1147
10800TIP3    H153815   2.346   6.670  11.616 -0.6258  0.3041 -0.4304
10800TIP3    H253816   2.224   6.689  11.703  0.1004  0.0939  0.6642
10801TIP3   OH253817   2.400   2.057   2.982 -0.0105 -0.2787  0.1059
10801TIP3    H153818   2.467   2.013   2.930 -1.1885  0.2117 -1.9270
10801TIP3    H253819   2.441   2.138   3.011  0.0390  0.4977 -1.9590
10802TIP3   OH253820   1.718   5.643  15.016  0.3293 -0.6586 -0.2877
10802TIP3    H153821   1.769   5.614  14.941  1.4957 -1.6031  0.8131
10802TIP3    H253822   1.708   5.564  15.070 -0.7685 -0.0836  0.3821
10803TIP3   OH253823   2.913   2.222  16.997 -0.4219 -0.2686  0.1574
10803TIP3    H153824   2.828   2.261  16.976  0.1141  1.4703  1.0552
10803TIP3    H253825   2.974   2.263  16.936  0.2067  0.6201  1.3325
10804TIP3   OH253826   3.129   1.652   3.851 -0.1486 -0.6090  0.0276
10804TIP3    H153827   3.071   1.727   3.836 -1.3702 -1.4323  0.4580
10804TIP3    H253828   3.082   1.577   3.815  1.2013 -1.1478 -0.6987
10805TIP3   OH253829   4.604   3.977  15.521  0.1115 -0.2882 -0.3478
10805TIP3    H153830   4.538   3.977  15.590 -0.0076  0.6356 -0.4506
10805TIP3    H253831   4.654   4.057  15.535  2.8988 -2.1348  1.2885
10806TIP3   OH253832   0.957   5.088   1.496  0.2811  0.2896  0.9985
10806TIP3    H153833   0.885   5.025   1.495  1.0794 -0.6469  1.4545
10806TIP3    H253834   0.979   5.099   1.589  1.1643  0.0460  0.8274
10807TIP3   OH253835   3.276   6.562   4.927 -0.3022  0.2744 -0.1888
10807TIP3    H153836   3.348   6.608   4.883 -1.1890 -0.5134 -2.6479
10807TIP3    H253837   3.201   6.622   4.918 -0.4114  0.2674  0.6435
10808TIP3   OH253838   3.610   0.764  13.726  0.5968  0.4906 -0.4846
10808TIP3    H153839   3.559   0.689  13.757 -0.5097  1.3362 -0.2148
10808TIP3    H253840   3.545   0.824  13.691  1.4923  1.2624 -0.8364
10809TIP3   OH253841   0.230   3.475   2.235  0.3726 -0.3866 -0.1739
10809TIP3    H153842   0.192   3.543   2.180  0.3149  0.0865  0.4431
10809TIP3    H253843   0.275   3.417   2.173  1.2285  0.7201 -0.6353
10810TIP3   OH253844   0.653   2.527  15.348 -0.1761 -0.3112 -0.1329
10810TIP3    H153845   0.643   2.557  15.438 -1.9450 -0.3984 -0.2676
10810TIP3    H253846   0.734   2.569  15.318  0.2550 -0.0070  1.3704
10811TIP3   OH253847   2.258   2.516   5.082  0.1664 -0.3152  0.0089
10811TIP3    H153848   2.297   2.484   5.000  0.2702 -0.1615 -0.0032
10811TIP3    H253849   2.208   2.593   5.055  1.5267  0.7193  0.3246
10812TIP3   OH253850   0.659   1.901   3.023  0.1486 -0.3990 -0.2459
10812TIP3    H153851   0.715   1.958   3.076 -0.6841  0.1815  0.0449
10812TIP3    H253852   0.591   1.872   3.084 -1.3780  1.0464 -1.1646
10813TIP3   OH253853   1.456   0.556  16.063 -0.1741  0.5825  0.0041
10813TIP3    H153854   1.389   0.577  15.999 -0.8010 -0.2818  0.3527
10813TIP3    H253855   1.414   0.575  16.148  0.1966  0.4984  0.2064
10814TIP3   OH253856   0.149   6.753  13.890 -0.1340  0.1647 -0.4296
10814TIP3    H153857   0.204   6.808  13.833 -1.4503 -0.1243 -2.0544
10814TIP3    H253858   0.124   6.679  13.835 -1.1531 -0.3318  0.6608
10815TIP3   OH253859   4.399   4.445   1.186 -0.1044  0.1887  0.4414
10815TIP3    H153860   4.464   4.384   1.219 -0.5959 -1.1148 -0.9150
10815TIP3    H253861   4.444   4.493   1.116 -1.0280 -2.0501 -1.8452
10816TIP3   OH253862   0.516   1.193  14.721 -0.1178 -0.2671  0.1629
10816TIP3    H153863   0.522   1.283  14.690 -0.6481 -0.6456 -1.1152
10816TIP3    H253864   0.453   1.196  14.793  0.4293  0.4897  0.6196
10817TIP3   OH253865   5.733   1.789  12.733 -0.0728  0.2852  0.5926
10817TIP3    H153866   5.699   1.869  12.774 -0.5572 -0.1019  0.9548
10817TIP3    H253867   5.766   1.737  12.805  1.7346  0.8404  0.2040
10818TIP3   OH253868   2.656   0.216  16.549  0.7099  0.3920  0.1723
10818TIP3    H153869   2.647   0.185  16.459  2.7883  0.0230  0.0535
10818TIP3    H253870   2.749   0.209  16.568  0.4759  1.5557  1.9779
10819TIP3   OH253871   3.322   0.321  14.153 -0.1643 -0.6047  0.4588
10819TIP3    H153872   3.234   0.312  14.190 -0.6470  0.0450 -0.4710
10819TIP3    H253873   3.322   0.263  14.077 -1.0352  1.9185 -1.6197
10820TIP3   OH253874   1.462   6.740   5.790 -0.5284  0.0819  0.1389
10820TIP3    H153875   1.550   6.703   5.798 -0.2806 -0.0238 -2.2760
10820TIP3    H253876   1.461   6.815   5.849  1.5003  0.6112 -0.4379
10821TIP3   OH253877   5.327   1.432   2.478 -0.0005  0.3520  0.0731
10821TIP3    H153878   5.260   1.364   2.470  0.6023 -0.2290 -0.1541
10821TIP3    H253879   5.323   1.459   2.569 -0.5798  0.3613  0.0472
10822TIP3   OH253880   6.070   2.371  12.928  0.2289 -0.2112 -0.1890
10822TIP3    H153881   6.152   2.388  12.974  1.5281 -2.5029 -1.4270
10822TIP3    H253882   6.039   2.288  12.964 -1.3553  0.4073 -0.0494
10823TIP3   OH253883   5.459   2.828  13.348 -0.0654  0.3240  0.2395
10823TIP3    H153884   5.376   2.875  13.355  0.0832  0.7078 -0.4779
10823TIP3    H253885   5.516   2.870  13.413 -0.0880  0.8020 -0.0506
10824TIP3   OH253886   3.714   5.210   1.310 -0.1703  0.1341 -0.2796
10824TIP3    H153887   3.760   5.287   1.344 -0.4618  0.2941 -0.2382
10824TIP3    H253888   3.782   5.144   1.300  0.0999  0.4214 -0.3881
10825TIP3   OH253889   6.528   5.648   4.234 -0.8075  0.3781 -0.5148
10825TIP3    H153890   6.614   5.625   4.200  0.6526  2.7528  1.2304
10825TIP3    H253891   6.524   5.605   4.320 -2.1618 -1.1641 -1.3067
10826TIP3   OH253892   3.348   5.183  12.613 -0.1852  0.5538  0.1768
10826TIP3    H153893   3.429   5.227  12.640 -0.1518  0.4970  0.1691
10826TIP3    H253894   3.371   5.137  12.532 -0.6285  1.7818 -0.6656
10827TIP3   OH253895   0.341   4.996  11.635  0.0522 -0.2968 -0.1585
10827TIP3    H153896   0.260   4.946  11.629 -0.9876  1.2439  0.4711
10827TIP3    H253897   0.361   5.022  11.546 -1.3367  1.0824 -0.1084
10828TIP3   OH253898   2.653   1.634   5.600  0.3409  0.1257  0.7319
10828TIP3    H153899   2.586   1.702   5.588  3.4634  3.6255  1.0411
10828TIP3    H253900   2.695   1.657   5.683  5.0608  1.3903 -1.6841
10829TIP3   OH253901   0.077   6.094   1.451  0.4925 -0.1085  0.3160
10829TIP3    H153902   0.008   6.101   1.517  0.6117 -0.3441  0.4643
10829TIP3    H253903   0.047   6.151   1.380  0.0882 -0.3020  0.3292
10830TIP3   OH253904   3.030   5.703   3.703  0.2326 -0.4494 -0.0421
10830TIP3    H153905   3.047   5.760   3.627  1.5778 -1.9167 -0.9100
10830TIP3    H253906   2.978   5.757   3.762 -0.0055  1.0921 -1.5684
10831TIP3   OH253907   6.455   1.243  15.363 -0.3530  0.6061  0.5564
10831TIP3    H153908   6.379   1.210  15.411 -2.3219  1.4074 -1.8058
10831TIP3    H253909   6.472   1.329  15.402  0.0876 -0.0346  1.8252
10832TIP3   OH253910   1.559   6.204  15.410  0.3149  0.2823 -0.1328
10832TIP3    H153911   1.588   6.252  15.333 -0.0457  1.6041  0.5209
10832TIP3    H253912   1.634   6.151  15.435  0.7668  0.5909 -0.8177
10833TIP3   OH253913   5.658   4.268   4.186  0.5708  0.0050  0.2304
10833TIP3    H153914   5.570   4.275   4.149  0.9835 -0.8696 -1.0009
10833TIP3    H253915   5.692   4.358   4.184  0.3641  0.0809 -1.0572
10834TIP3   OH253916   3.307   4.925  16.972 -0.0370 -0.0067 -0.4272
10834TIP3    H153917   3.356   4.865  16.917 -0.5455 -1.1457  0.3206
10834TIP3    H253918   3.323   5.012  16.934  0.7179 -0.6052 -1.5179
10835TIP3   OH253919   5.162   3.407   3.341  0.1097  0.3207 -0.7895
10835TIP3    H153920   5.240   3.447   3.380 -1.0077  2.3598 -0.4618
10835TIP3    H253921   5.108   3.381   3.416 -0.8006  1.6724 -0.9329
10836TIP3   OH253922   0.381   5.576   4.735  0.1787  0.2017  0.1046
10836TIP3    H153923   0.397   5.640   4.804 -2.4524  1.5807 -0.4169
10836TIP3    H253924   0.292   5.543   4.753  0.2527 -0.9644 -1.4248
10837TIP3   OH253925   1.853   3.801   4.299  0.1843 -0.0691 -0.2948
10837TIP3    H153926   1.944   3.796   4.269  0.1017  0.6173 -0.6936
10837TIP3    H253927   1.801   3.781   4.222 -0.0063 -0.7286  0.0004
10838TIP3   OH253928   2.271   4.911  12.625  0.6673 -0.1378  0.6944
10838TIP3    H153929   2.280   4.817  12.638  0.2057 -0.3443 -0.4451
10838TIP3    H253930   2.252   4.922  12.532 -2.3615  0.8586  1.3341
10839TIP3   OH253931   0.774   2.544  14.485 -0.0101  0.4143  0.1953
10839TIP3    H153932   0.847   2.484  14.464 -0.8333 -0.0916 -1.3537
10839TIP3    H253933   0.814   2.611  14.539  1.6876  0.2733 -0.7960
10840TIP3   OH253934   2.557   1.034   1.233 -0.1328 -0.5843 -0.0298
10840TIP3    H153935   2.562   1.127   1.255  1.2295 -0.7885  0.6352
10840TIP3    H253936   2.624   1.022   1.165  0.0865 -1.1756  0.2813
10841TIP3   OH253937   1.328   2.517   4.384  0.4825  0.5654 -0.5804
10841TIP3    H153938   1.328   2.423   4.401 -0.8739  0.2766 -1.9715
10841TIP3    H253939   1.410   2.534   4.338  1.5053  0.3836  1.1028
10842TIP3   OH253940   0.413   0.139  13.530 -0.0745 -0.8167 -0.3454
10842TIP3    H153941   0.477   0.192  13.484  1.7993 -1.7942  0.9678
10842TIP3    H253942   0.339   0.131  13.470 -0.0232  2.3637 -0.9682
10843TIP3   OH253943   4.738   6.310   3.003  0.0195 -0.4134 -0.0734
10843TIP3    H153944   4.644   6.329   3.004  0.1494  0.2570 -0.0218
10843TIP3    H253945   4.774   6.364   3.073  1.0989  3.0558 -3.0143
10844TIP3   OH253946   4.833   6.258   5.112 -0.1949  0.1076 -0.0993
10844TIP3    H153947   4.912   6.236   5.162  1.0057  0.9502 -1.5403
10844TIP3    H253948   4.866   6.290   5.028 -2.1178 -0.4156 -1.1094
10845TIP3   OH253949   1.979   0.190  11.542  0.2561 -0.6555 -0.3731
10845TIP3    H153950   2.020   0.202  11.628  0.7795  0.3780 -0.7447
10845TIP3    H253951   1.887   0.212  11.556  0.2207 -1.0409  0.0382
10846TIP3   OH253952   4.657   5.528  11.849  0.1774 -0.0065  0.6027
10846TIP3    H153953   4.626   5.615  11.876 -1.8070 -0.6060  0.4371
10846TIP3    H253954   4.612   5.467  11.908 -0.5646 -1.0555 -0.9669
10847TIP3   OH253955   4.738   1.623  16.580  0.2487  0.1685 -0.1464
10847TIP3    H153956   4.737   1.539  16.625  0.1081 -0.3891 -1.1653
10847TIP3    H253957   4.788   1.607  16.500 -1.1949  0.5877 -1.1870
10848TIP3   OH253958   6.418   6.040  10.626  0.2024 -0.0551  0.9031
10848TIP3    H153959   6.462   5.987  10.692  0.1762 -0.6188  0.4647
10848TIP3    H253960   6.454   6.011  10.543  0.3049  0.7220  0.6606
10849TIP3   OH253961   6.013   4.185   5.531 -0.3498  0.3143 -1.0586
10849TIP3    H153962   6.097   4.142   5.520 -0.0840  0.6633 -0.4202
10849TIP3    H253963   6.029   4.256   5.593 -1.0911  0.4444 -0.9970
10850TIP3   OH253964   2.125   3.447  14.939 -0.0139 -0.7264  0.0820
10850TIP3    H153965   2.206   3.397  14.932 -1.0933 -2.7060  1.0694
10850TIP3    H253966   2.078   3.428  14.859 -0.2794 -1.0315  0.3086
10851TIP3   OH253967   3.058   2.509  12.977  0.7866  0.2085 -0.1511
10851TIP3    H153968   3.116   2.541  12.908 -2.1565  1.7910 -2.0745
10851TIP3    H253969   3.055   2.414  12.964  4.8101 -0.4057  1.7324
10852TIP3   OH253970   3.681   0.450  14.285 -0.7310 -0.0905 -0.6706
10852TIP3    H153971   3.602   0.504  14.296 -0.2269  0.5037  0.2485
10852TIP3    H253972   3.649   0.367  14.252 -1.5690  0.6705 -1.8580
10853TIP3   OH253973   4.920   5.363  12.755 -0.0788  0.1203 -0.3252
10853TIP3    H153974   4.960   5.446  12.778 -1.3816  0.6208  0.2231
10853TIP3    H253975   4.971   5.297  12.802  0.2095  0.7121  0.1983
10854TIP3   OH253976   1.237   1.086  12.331 -0.1175  0.1287  0.2616
10854TIP3    H153977   1.145   1.100  12.352 -0.5009  0.4238 -1.5110
10854TIP3    H253978   1.243   0.992  12.311 -0.4562  0.4377 -1.4397
10855TIP3   OH253979   0.141   2.505  16.668  0.1026 -0.0567 -0.2566
10855TIP3    H153980   0.158   2.411  16.674  1.3802  0.1978  0.5458
10855TIP3    H253981   0.114   2.530  16.756 -1.4352  0.1519 -0.7460
10856TIP3   OH253982   2.322   2.034   6.178 -0.7722  0.1692 -1.0593
10856TIP3    H153983   2.357   1.948   6.157  0.7286  0.1239  1.2898
10856TIP3    H253984   2.364   2.058   6.261 -3.8754  1.5738  0.2716
10857TIP3   OH253985   1.939   3.326   5.494  0.3986  0.6511  0.7381
10857TIP3    H153986   1.885   3.321   5.415 -0.3138 -1.2176  1.2756
10857TIP3    H253987   2.013   3.268   5.476 -0.0279 -0.1849  1.5893
10858TIP3   OH253988   5.288   3.229   0.829  0.5804 -0.8558  0.7278
10858TIP3    H153989   5.211   3.221   0.773 -0.3210  2.4747  1.2582
10858TIP3    H253990   5.341   3.152   0.808 -0.6002 -0.8466 -3.2428
10859TIP3   OH253991   5.267   5.596   4.054  0.1433 -0.2236 -0.5177
10859TIP3    H153992   5.324   5.533   4.010 -0.3675 -0.5273 -0.7577
10859TIP3    H253993   5.178   5.570   4.029 -0.0783  0.5971 -0.6230
10860TIP3   OH253994   1.784   3.403  13.673 -0.7427 -0.1958 -0.4741
10860TIP3    H153995   1.713   3.432  13.615  1.6065  0.4159 -3.2884
10860TIP3    H253996   1.832   3.483  13.694 -1.3859 -0.4423  2.3036
10861TIP3   OH253997   3.124   0.127   5.654  0.2520 -0.2011  0.1463
10861TIP3    H153998   3.145   0.164   5.568 -0.6571  2.0939  0.8094
10861TIP3    H253999   3.028   0.124   5.656  0.2450  0.1006  1.1726
10862TIP3   OH254000   1.250   4.113   0.481 -0.0911  0.4227  0.0469
10862TIP3    H154001   1.326   4.160   0.515  0.0865  0.6590 -0.6647
10862TIP3    H254002   1.175   4.165   0.510 -0.1489 -0.8776  2.5033
10863TIP3   OH254003   2.910   3.650  13.887 -0.1827  0.4685 -0.3737
10863TIP3    H154004   3.004   3.652  13.906 -0.1608  2.5180 -0.4841
10863TIP3    H254005   2.897   3.719  13.821 -1.4910 -1.0624 -1.7975
10864TIP3   OH254006   5.207   2.871   1.434 -0.2456  0.2537  0.4011
10864TIP3    H154007   5.254   2.800   1.477 -0.8269 -1.3160 -1.4444
10864TIP3    H254008   5.260   2.949   1.452  1.1281 -0.8574  1.3528
10865TIP3   OH254009   1.486   2.154  14.148 -0.0629 -0.0038  0.0483
10865TIP3    H154010   1.415   2.191  14.096 -0.6078 -1.6414 -0.4340
10865TIP3    H254011   1.445   2.124  14.228  0.4101  0.5615  0.5195
10866TIP3   OH254012   5.932   5.091  11.344  0.3413  0.5572 -0.4754
10866TIP3    H154013   5.878   5.146  11.400 -1.1590  0.5555 -1.8674
10866TIP3    H254014   5.882   5.081  11.263  2.3099  0.3455 -1.7524
10867TIP3   OH254015   1.249   5.478   3.881 -0.3617  0.3202  0.2270
10867TIP3    H154016   1.331   5.511   3.918  0.0037  0.5918 -0.7978
10867TIP3    H254017   1.210   5.554   3.838 -1.0657  0.1495  0.5493
10868TIP3   OH254018   4.689   6.771  17.086 -0.5908 -0.0588  0.0438
10868TIP3    H154019   4.747   6.697  17.106 -0.0907  0.3788  0.2670
10868TIP3    H254020   4.654   6.752  16.999 -0.5584 -0.6116  0.1480
10869TIP3   OH254021   1.037   3.580  17.097 -0.2554 -0.1158  0.0613
10869TIP3    H154022   1.055   3.557  17.188  1.6397 -1.6873 -0.6317
10869TIP3    H254023   1.061   3.502  17.047 -1.1916  0.7220 -1.8092
10870TIP3   OH254024   3.172   3.889  15.081 -0.0994 -0.0180  0.1246
10870TIP3    H154025   3.097   3.857  15.030  0.2491 -1.9604  0.7464
10870TIP3    H254026   3.234   3.816  15.081  1.1051  0.9623  0.9976
10871TIP3   OH254027   1.846   3.191   4.680 -0.1847 -0.0850 -0.6916
10871TIP3    H154028   1.866   3.256   4.746  2.6775 -1.1974 -0.3075
10871TIP3    H254029   1.856   3.237   4.596 -0.4369  0.4890 -0.4078
10872TIP3   OH254030   1.794   1.833   6.729 -0.5135 -0.2091  0.9782
10872TIP3    H154031   1.808   1.808   6.820 -3.2150 -3.2853  0.7474
10872TIP3    H254032   1.724   1.898   6.733  1.6342  2.2465  1.1560
10873TIP3   OH254033   3.545   2.588  12.974 -0.1386 -0.0856 -0.3861
10873TIP3    H154034   3.535   2.493  12.977  0.7906 -0.2072 -0.8452
10873TIP3    H254035   3.536   2.611  12.882  0.0021  0.2218 -0.3253
10874TIP3   OH254036   4.331   2.463  15.273 -0.1964  0.0913  0.2814
10874TIP3    H154037   4.426   2.466  15.272 -0.2008  2.2370 -1.0178
10874TIP3    H254038   4.307   2.477  15.364  0.7360  0.4372  0.4864
10875TIP3   OH254039   5.724   6.067   2.758 -0.2887 -0.2097  0.2323
10875TIP3    H154040   5.707   5.976   2.782  1.4802 -1.0206 -1.2922
10875TIP3    H254041   5.725   6.067   2.662  1.4933  1.0351  0.1979
10876TIP3   OH254042   0.056   0.088  11.725 -0.2278  0.1639 -0.4736
10876TIP3    H154043   0.050   0.089  11.821  1.6290  2.6672 -0.2892
10876TIP3    H254044   0.031   0.176  11.698  1.2956  0.1480 -2.1031
10877TIP3   OH254045   0.234   3.857   1.490 -0.0684 -0.5432 -0.0145
10877TIP3    H154046   0.197   3.850   1.402  0.5197  0.2097 -0.3310
10877TIP3    H254047   0.185   3.793   1.542 -2.4449  1.0033 -0.1968
10878TIP3   OH254048   4.837   0.040  12.869 -0.2912  0.0014 -0.0572
10878TIP3    H154049   4.767   0.089  12.825 -0.5767  0.0801  0.4862
10878TIP3    H254050   4.906   0.034  12.803 -0.4384  0.7364 -0.2914
10879TIP3   OH254051   1.545   0.778  15.236 -0.6970 -0.0904 -0.5514
10879TIP3    H154052   1.638   0.799  15.226 -0.8877  0.8728 -0.3921
10879TIP3    H254053   1.523   0.729  15.157 -0.8551  2.6520 -2.3411
10880TIP3   OH254054   2.652   2.304   3.916 -0.3674 -0.4759 -0.0025
10880TIP3    H154055   2.589   2.347   3.974  0.6533  0.3001  0.5680
10880TIP3    H254056   2.622   2.213   3.911 -2.9537  0.3418 -1.7141
10881TIP3   OH254057   3.891   6.078   3.098 -0.6082  0.0098 -0.3329
10881TIP3    H154058   3.890   6.081   3.003  0.3655  0.8156 -0.3399
10881TIP3    H254059   3.983   6.095   3.122 -1.0196  0.8935  0.7634
10882TIP3   OH254060   4.303   3.139   1.546  0.2114  0.3643  0.0481
10882TIP3    H154061   4.379   3.158   1.491  0.3497 -0.8437 -0.2143
10882TIP3    H254062   4.335   3.149   1.636  1.1783 -1.7373 -0.0094
10883TIP3   OH254063   3.539   5.059   1.991  0.4189 -0.6614  0.1874
10883TIP3    H154064   3.608   5.110   1.948 -0.0523  1.3837  1.6977
10883TIP3    H254065   3.509   4.998   1.924  1.7344  0.3538 -1.3991
10884TIP3   OH254066   5.411   1.416  17.254  0.1538  0.0253 -0.0090
10884TIP3    H154067   5.394   1.469  17.331 -0.1870 -1.2483  0.8338
10884TIP3    H254068   5.506   1.421  17.242  0.4101 -0.9293  1.4051
10885TIP3   OH254069   3.450   0.873  12.343  0.0535  0.8690  0.0693
10885TIP3    H154070   3.535   0.860  12.385  0.4539  0.6361 -0.7920
10885TIP3    H254071   3.453   0.818  12.265 -0.5317  1.5766 -0.4668
10886TIP3   OH254072   1.278   1.179   2.201  0.2309  0.2607 -0.2986
10886TIP3    H154073   1.206   1.125   2.169  0.5186  0.8124 -2.0313
10886TIP3    H254074   1.238   1.264   2.219  0.2994  0.3434 -0.5265
10887TIP3   OH254075   2.872   5.262  14.909 -0.0493  0.0915 -0.9365
10887TIP3    H154076   2.938   5.281  14.975 -0.9758  1.3877 -0.3560
10887TIP3    H254077   2.792   5.244  14.959 -0.1190 -1.7261 -1.6125
10888TIP3   OH254078   5.023   6.165  14.639 -0.1027  0.0611  0.4367
10888TIP3    H154079   5.057   6.090  14.590  0.9504  0.4640  0.5169
10888TIP3    H254080   5.100   6.200  14.684 -0.7001  0.8289  0.8722
10889TIP3   OH254081   4.308   3.443  12.565  0.0133  0.2515  0.3957
10889TIP3    H154082   4.400   3.447  12.592 -0.5626  1.7945  2.3815
10889TIP3    H254083   4.310   3.407  12.477  2.7119  2.2311 -0.4716
10890TIP3   OH254084   0.400   1.123   5.255 -0.2199 -0.7141 -0.4213
10890TIP3    H154085   0.362   1.039   5.280 -1.3222 -0.6099 -1.6390
10890TIP3    H254086   0.441   1.106   5.170 -1.3212  0.1649 -1.1671
10891TIP3   OH254087   4.910   5.155  16.749  0.2417  0.7646  0.1034
10891TIP3    H154088   4.992   5.105  16.747 -0.9124 -1.3136  1.0757
10891TIP3    H254089   4.872   5.135  16.835 -1.1291  1.9433 -0.1940
10892TIP3   OH254090   3.860   3.901  12.328 -0.6361 -0.3845 -0.0096
10892TIP3    H154091   3.766   3.904  12.309 -0.4716  0.3804 -0.7776
10892TIP3    H254092   3.868   3.939  12.415 -0.9948 -0.0133 -0.1331
10893TIP3   OH254093   2.166   3.099   1.163  0.0604 -0.0350 -0.2901
10893TIP3    H154094   2.176   3.190   1.190  0.8872 -0.3124  0.4246
10893TIP3    H254095   2.082   3.095   1.117  0.3361  1.2108 -0.9201
10894TIP3   OH254096   1.382   6.730   0.717  1.1541 -0.7228  0.2788
10894TIP3    H154097   1.428   6.756   0.637 -1.5358 -2.3825 -1.9843
10894TIP3    H254098   1.422   6.648   0.743  0.7956 -1.1686 -0.5422
10895TIP3   OH254099   4.192   3.751   5.340  0.0987 -0.1276  0.8448
10895TIP3    H154100   4.186   3.656   5.326  2.1796 -0.6626  2.8527
10895TIP3    H254101   4.283   3.772   5.321  0.0604  1.1410  1.9163
10896TIP3   OH254102   5.011   4.195  16.434 -0.1394 -0.8274  0.1730
10896TIP3    H154103   4.954   4.164  16.506 -0.9505  2.3863  1.0644
10896TIP3    H254104   4.956   4.256  16.386  1.8215  0.5196 -0.4357
10897TIP3   OH254105   1.408   0.806  16.685 -0.1704  0.4034 -0.6168
10897TIP3    H154106   1.334   0.866  16.684 -0.9534 -0.5329 -0.7882
10897TIP3    H254107   1.485   0.862  16.679 -0.7716  1.5259  1.3385
10898TIP3   OH254108   3.727   5.471  17.328  0.1305 -0.2531 -0.6039
10898TIP3    H154109   3.762   5.487  17.240 -0.6002  0.7842 -0.7242
10898TIP3    H254110   3.805   5.460  17.383  0.5973 -1.0446 -1.3831
10899TIP3   OH254111   5.523   0.376   2.656  0.1031 -0.0508  1.1547
10899TIP3    H154112   5.449   0.323   2.687 -0.2941  0.9040  1.8474
10899TIP3    H254113   5.545   0.337   2.571 -2.3081  0.6853  0.0974
10900TIP3   OH254114   0.002   2.013  14.155 -0.1653  0.1026 -0.0596
10900TIP3    H154115  -0.017   1.920  14.166  2.5234 -0.4686  0.5265
10900TIP3    H254116  -0.033   2.054  14.234 -1.2813 -0.3951 -0.2753
10901TIP3   OH254117   4.850   6.521  16.101  0.1151  0.1043  0.2935
10901TIP3    H154118   4.838   6.468  16.179  1.8708 -1.1269 -0.2201
10901TIP3    H254119   4.934   6.565  16.114  0.6446 -0.4524 -1.0522
10902TIP3   OH254120   0.244   3.571   6.168 -0.2648  0.2294 -0.1715
10902TIP3    H154121   0.259   3.661   6.199  0.6802  0.1241 -0.2973
10902TIP3    H254122   0.314   3.555   6.105  1.4456 -1.6109  2.0086
10903TIP3   OH254123   4.271   5.660  15.942  0.1100 -0.1654 -0.1545
10903TIP3    H154124   4.311   5.617  16.018 -0.4807  0.6153  0.6197
10903TIP3    H254125   4.214   5.593  15.904 -0.5661 -0.1860  0.8546
10904TIP3   OH254126   0.124   0.234   1.385 -0.4669 -0.5876 -0.3953
10904TIP3    H154127   0.175   0.281   1.318 -0.1903  0.1627  0.3355
10904TIP3    H254128   0.175   0.245   1.465 -2.3997  1.2889  0.6617
10905TIP3   OH254129   4.997   1.376  11.610 -0.2126 -0.2749  0.0845
10905TIP3    H154130   5.052   1.308  11.649 -0.0650 -0.0665  0.2358
10905TIP3    H254131   4.933   1.327  11.557 -0.2653 -0.5451  0.3942
10906TIP3   OH254132   4.072   5.454  10.663  0.1150  0.7141  0.7071
10906TIP3    H154133   4.080   5.383  10.599  0.3133  0.9810  0.4348
10906TIP3    H254134   4.159   5.463  10.699  0.0990  0.8515  0.7089
10907TIP3   OH254135   4.430   5.103   5.625  0.3032 -0.7671 -0.0437
10907TIP3    H154136   4.358   5.112   5.687  0.7846 -3.3131  0.9887
10907TIP3    H254137   4.391   5.060   5.549  0.5078 -1.3040  0.1464
10908TIP3   OH254138   0.276   1.382  14.057 -0.1514 -0.4155  0.7561
10908TIP3    H154139   0.231   1.343  13.982 -0.0029 -1.4638  1.1852
10908TIP3    H254140   0.323   1.457  14.021 -0.5545 -0.5547 -0.0880
10909TIP3   OH254141   3.638   1.611   3.800 -0.8831  0.6140  0.1429
10909TIP3    H154142   3.659   1.704   3.805 -1.4476  0.7604 -0.1486
10909TIP3    H254143   3.705   1.569   3.854 -1.4516  1.3247  1.4586
10910TIP3   OH254144   4.748   6.616   3.264  0.2437  0.5445 -0.1096
10910TIP3    H154145   4.792   6.576   3.189 -0.1698 -1.7537  0.7910
10910TIP3    H254146   4.819   6.661   3.311  0.9437 -0.0119 -0.6041
10911TIP3   OH254147   3.898   2.009   1.966 -0.7924 -0.1844 -0.3052
10911TIP3    H154148   3.957   1.979   1.898  0.7066  1.8231  0.0251
10911TIP3    H254149   3.817   1.959   1.952 -0.8307  0.6872 -4.0042
10912TIP3   OH254150   1.321   3.018   1.243 -0.2135  0.3723 -0.0699
10912TIP3    H154151   1.239   3.058   1.214 -0.4872  0.0414  0.2364
10912TIP3    H254152   1.331   3.046   1.333 -0.3161 -0.0976  0.0911
10913TIP3   OH254153   1.697   4.619  10.824 -0.2072 -0.5652 -0.0893
10913TIP3    H154154   1.645   4.610  10.744 -1.1500  0.3360  0.4022
10913TIP3    H254155   1.756   4.692  10.804 -0.6370 -0.1541  0.1325
10914TIP3   OH254156   3.076   1.912  15.579  0.0380  0.4726  0.2678
10914TIP3    H154157   2.984   1.912  15.554 -0.0376 -3.2282  0.0600
10914TIP3    H254158   3.122   1.940  15.501 -0.8327  2.2505  0.3356
10915TIP3   OH254159   3.873   0.435   1.227 -0.2059 -0.0048  0.0700
10915TIP3    H154160   3.783   0.419   1.200  0.0853 -1.5211 -0.0804
10915TIP3    H254161   3.895   0.521   1.189 -0.1001 -1.5622 -3.8230
10916TIP3   OH254162   1.483   3.413   2.759  0.5408  0.2142  0.4383
10916TIP3    H154163   1.553   3.477   2.772  0.4266  0.0470  2.0950
10916TIP3    H254164   1.403   3.462   2.777  0.4225 -0.2692  1.2623
10917TIP3   OH254165   2.354   2.801  15.654 -0.1988  0.2648 -0.1767
10917TIP3    H154166   2.382   2.892  15.662  1.8442 -0.2074 -1.3927
10917TIP3    H254167   2.341   2.788  15.560 -1.1532 -0.5406  0.0486
10918TIP3   OH254168   2.043   5.400  12.967 -0.1337  0.2157 -0.1689
10918TIP3    H154169   1.956   5.370  12.941 -1.0821  2.9597 -0.4585
10918TIP3    H254170   2.100   5.367  12.897 -0.8131 -1.9471  0.2174
10919TIP3   OH254171   3.336   5.737  15.224 -0.3283 -0.0557  0.1237
10919TIP3    H154172   3.388   5.759  15.147  0.9802  0.2763  1.0612
10919TIP3    H254173   3.387   5.669  15.268 -0.7968  0.1257  0.9557
10920TIP3   OH254174   0.455   4.122  13.569  0.0498  0.4146  0.3314
10920TIP3    H154175   0.454   4.099  13.476 -0.3076  1.6942 -0.0036
10920TIP3    H254176   0.539   4.090  13.601 -0.0229 -0.4580 -0.3145
10921TIP3   OH254177   1.618   2.000   4.673  0.1934 -0.1105 -0.4823
10921TIP3    H154178   1.553   1.929   4.670  0.3281 -0.2638  0.2454
10921TIP3    H254179   1.590   2.055   4.746  0.4082  0.2845 -0.6976
10922TIP3   OH254180   2.938   0.184   2.672  0.3514  0.1758  0.5160
10922TIP3    H154181   2.977   0.146   2.751  0.4845 -1.4538 -0.2797
10922TIP3    H254182   2.925   0.109   2.614  0.5563  1.3681 -1.1407
10923TIP3   OH254183   3.817   4.482  15.510 -0.0342  0.9228 -0.0477
10923TIP3    H154184   3.880   4.414  15.487 -0.3959  0.5396  0.0772
10923TIP3    H254185   3.732   4.440  15.501 -0.2824  1.4725 -0.3361
10924TIP3   OH254186   3.025   0.156   4.055  0.0853 -0.2115  0.1487
10924TIP3    H154187   3.001   0.172   3.964  1.3905 -2.9099 -0.7507
10924TIP3    H254188   2.980   0.075   4.079 -0.6516  0.6975  2.1349
10925TIP3   OH254189   5.124   3.501  15.574 -0.4044  0.3565  0.1215
10925TIP3    H154190   5.086   3.495  15.486 -1.7313  0.3630  0.6690
10925TIP3    H254191   5.171   3.419  15.585 -0.8683  0.0243 -0.3172
10926TIP3   OH254192   5.032   2.771  13.152  0.4053 -0.3575 -0.1809
10926TIP3    H154193   5.124   2.765  13.178  0.5074 -1.8531 -0.7953
10926TIP3    H254194   4.984   2.724  13.220 -0.0406  1.1445  0.6002
10927TIP3   OH254195   2.840   6.384   3.586  0.0808  0.4679 -0.3316
10927TIP3    H154196   2.849   6.468   3.541 -0.3299 -0.1253 -1.5532
10927TIP3    H254197   2.750   6.383   3.619  0.2800  0.7605  0.2424
10928TIP3   OH254198   2.291   3.356   1.429 -0.1592 -0.0768 -0.0450
10928TIP3    H154199   2.281   3.376   1.522  0.0447  0.9029 -0.2236
10928TIP3    H254200   2.384   3.367   1.411 -0.2636  0.1752 -0.4575
10929TIP3   OH254201   1.961   6.234   0.968 -0.4250  0.2207 -0.7179
10929TIP3    H154202   1.895   6.280   0.915 -0.2401  0.6098 -0.6144
10929TIP3    H254203   2.003   6.303   1.019  0.5928  0.0818 -1.3464
10930TIP3   OH254204   5.766   5.916  11.072  0.0498  0.5827 -0.4029
10930TIP3    H154205   5.830   5.899  11.003  1.6443 -1.7817  1.5130
10930TIP3    H254206   5.683   5.886  11.035  0.4709  1.2000 -1.9627
10931TIP3   OH254207   0.748   2.454   5.589  0.2112  0.1097  0.2360
10931TIP3    H154208   0.701   2.467   5.671 -0.2908  0.9912 -0.1754
10931TIP3    H254209   0.763   2.542   5.555  1.5303 -0.1830 -0.0107
10932TIP3   OH254210   4.189   5.933  14.847  0.1412  0.1680 -0.0240
10932TIP3    H154211   4.239   5.879  14.786 -0.9987 -0.4330 -0.4463
10932TIP3    H254212   4.121   5.973  14.794 -1.1988 -0.7838  0.9185
10933TIP3   OH254213   2.558   3.844   0.307 -0.1367 -0.6859 -0.4497
10933TIP3    H154214   2.516   3.922   0.270 -0.6685 -0.1020  1.2570
10933TIP3    H254215   2.501   3.819   0.380  0.7041 -1.9237 -0.1925
10934TIP3   OH254216   2.930   0.914  14.584 -0.1386 -0.1719  0.2848
10934TIP3    H154217   2.955   0.972  14.512 -0.7261 -0.9141 -0.5376
10934TIP3    H254218   2.937   0.969  14.662 -1.5982  1.3435 -0.5633
10935TIP3   OH254219   5.849   0.094   5.611 -0.3573 -0.6251 -0.3152
10935TIP3    H154220   5.851   0.103   5.516 -1.1756 -0.6408 -0.3455
10935TIP3    H254221   5.778   0.032   5.628  0.4240 -1.3810  0.2638
10936TIP3   OH254222   0.725   3.490  14.968  0.7667 -0.4754 -0.5065
10936TIP3    H154223   0.670   3.514  14.893  1.2411  1.7119 -0.2338
10936TIP3    H254224   0.663   3.460  15.034 -0.2799  2.3649 -0.0394
10937TIP3   OH254225   1.737   2.039  14.107 -0.0886  0.5488  0.5605
10937TIP3    H154226   1.761   2.053  14.016 -1.2373 -1.3616 -0.0990
10937TIP3    H254227   1.647   2.072  14.114 -1.2602 -2.2026  0.0479
10938TIP3   OH254228   3.206   0.625  12.826 -0.4116  0.2159 -0.2454
10938TIP3    H154229   3.231   0.555  12.765  0.0006  0.0105  0.1502
10938TIP3    H254230   3.285   0.641  12.877 -1.1274 -0.6233  1.2036
10939TIP3   OH254231   4.325   1.994   3.576 -0.2295  1.0592  0.0074
10939TIP3    H154232   4.420   1.991   3.570 -0.1777 -0.1965  1.1750
10939TIP3    H254233   4.305   2.085   3.598  0.8437  0.9337  1.6594
10940TIP3   OH254234   5.425   4.191  16.744  0.5749  0.6334 -0.1681
10940TIP3    H154235   5.398   4.221  16.657 -0.0831 -0.3260 -0.3095
10940TIP3    H254236   5.344   4.182  16.793  0.4407 -2.6456 -0.7122
10941TIP3   OH254237   0.760   4.478   4.302  0.2037 -0.2398 -0.7248
10941TIP3    H154238   0.766   4.568   4.335 -0.4781 -0.2612 -0.5251
10941TIP3    H254239   0.716   4.430   4.373 -0.8000 -0.4050 -1.4400
10942TIP3   OH254240   3.341   4.183   0.544 -0.3318 -0.1544  0.4434
10942TIP3    H154241   3.322   4.245   0.474 -1.6977 -0.9724  0.0528
10942TIP3    H254242   3.265   4.188   0.602  0.5465  0.1308  1.6186
10943TIP3   OH254243   6.342   2.725   4.620  0.2682 -0.4522  0.9117
10943TIP3    H154244   6.435   2.743   4.603 -0.3265  2.9586  0.5542
10943TIP3    H254245   6.340   2.699   4.712  1.6199 -1.1551  0.7751
10944TIP3   OH254246   3.343   1.045   6.256 -0.9947 -0.3258  0.3910
10944TIP3    H154247   3.434   1.074   6.268 -1.0021  0.2228 -0.7832
10944TIP3    H254248   3.327   1.054   6.162 -1.7800 -1.8776  0.3519
10945TIP3   OH254249   1.670   6.718  17.291  0.1939 -0.2351  0.0645
10945TIP3    H154250   1.582   6.718  17.328  0.2044 -1.3734  0.1277
10945TIP3    H254251   1.665   6.657  17.218  1.1882 -1.1673  0.7454
10946TIP3   OH254252   5.509   2.015   2.568  0.2942  1.0215 -0.0008
10946TIP3    H154253   5.442   2.079   2.593 -0.1139  0.5663  0.0979
10946TIP3    H254254   5.592   2.056   2.592  0.2189  2.4835 -2.0308
10947TIP3   OH254255   0.536   4.213   1.109  0.2322  0.4396  0.3589
10947TIP3    H154256   0.615   4.231   1.160  0.4956  1.5173 -0.3984
10947TIP3    H254257   0.543   4.271   1.033 -1.0514  0.1895  0.0330
10948TIP3   OH254258   4.763   4.548   2.802 -0.2101 -0.4273  0.1138
10948TIP3    H154259   4.817   4.578   2.729  0.7266  1.2595  1.4039
10948TIP3    H254260   4.827   4.520   2.868 -1.0399 -2.4530  0.1169
10949TIP3   OH254261   1.072   3.947   0.310  0.2615  0.5322  0.3079
10949TIP3    H154262   1.167   3.954   0.307  0.3303 -0.4423 -0.7657
10949TIP3    H254263   1.052   3.936   0.403  1.6939 -4.1931  0.3463
10950TIP3   OH254264   4.741   6.087   0.646  0.0977  0.0886 -0.8711
10950TIP3    H154265   4.652   6.062   0.620  0.0378  0.0042 -0.5824
10950TIP3    H254266   4.765   6.025   0.715  0.8476 -0.6763 -1.7878
10951TIP3   OH254267   0.256   4.884   5.884  0.5519 -0.5079  0.1996
10951TIP3    H154268   0.296   4.952   5.938 -2.1733  1.8365 -0.4810
10951TIP3    H254269   0.267   4.915   5.794  0.7508 -1.8542 -0.2613
10952TIP3   OH254270   5.663   5.556  12.158 -0.3945  0.8389  0.2447
10952TIP3    H154271   5.615   5.630  12.122 -0.3700  1.5567  1.6046
10952TIP3    H254272   5.749   5.560  12.117 -0.6208  1.1494 -0.2070
10953TIP3   OH254273   3.354   0.400  12.730 -0.0869 -0.2425 -0.2405
10953TIP3    H154274   3.414   0.334  12.694 -0.2950  0.4995 -2.0520
10953TIP3    H254275   3.285   0.409  12.664 -0.9052  0.6554  0.6957
10954TIP3   OH254276   0.863   6.266  13.249 -0.0950 -0.5332 -0.3598
10954TIP3    H154277   0.909   6.183  13.234 -0.6320 -0.9102  0.0546
10954TIP3    H254278   0.789   6.243  13.304 -0.0419  0.2890  0.0760
10955TIP3   OH254279   1.451   4.053  16.599  0.1371  0.2477 -0.2494
10955TIP3    H154280   1.378   4.056  16.660  0.4177 -0.8760  0.1578
10955TIP3    H254281   1.529   4.060  16.654  0.3672  0.1550 -0.5614
10956TIP3   OH254282   6.396   2.587   5.643 -0.3806 -0.1928  0.1182
10956TIP3    H154283   6.368   2.514   5.588 -0.6906 -0.1153  0.1706
10956TIP3    H254284   6.481   2.613   5.607 -0.5543 -0.1827 -0.2915
10957TIP3   OH254285   5.399   1.242   1.642 -0.5140 -0.2239  0.0610
10957TIP3    H154286   5.472   1.191   1.608  1.6788  0.4560  3.3248
10957TIP3    H254287   5.353   1.273   1.563  3.9828  1.1506 -2.3451
10958TIP3   OH254288   3.797   0.260   0.117 -0.2288 -0.5851 -0.1490
10958TIP3    H154289   3.792   0.354   0.105  1.6133 -0.2299  1.3637
10958TIP3    H254290   3.730   0.224   0.059 -1.9714  1.7075  0.3159
10959TIP3   OH254291   5.525   1.045  15.053  0.2605 -0.4883 -0.1929
10959TIP3    H154292   5.451   1.007  15.006  0.1578 -0.3396 -0.1523
10959TIP3    H254293   5.584   0.972  15.069  2.0607 -0.0840 -3.7476
10960TIP3   OH254294   2.985   5.837   2.046  0.1033  0.0874 -0.1463
10960TIP3    H154295   3.024   5.852   2.132 -0.2278  1.0070 -0.1471
10960TIP3    H254296   3.031   5.898   1.988 -1.0838  0.9467 -0.2100
10961TIP3   OH254297   4.308   1.664  12.983  0.2853  0.3126  0.1485
10961TIP3    H154298   4.353   1.583  13.006  0.0518  0.3321  0.6817
10961TIP3    H254299   4.314   1.668  12.888  0.5490 -0.1855  0.1407
10962TIP3   OH254300   0.785   4.893   1.215 -0.0752 -0.7157 -0.8032
10962TIP3    H154301   0.781   4.877   1.309  0.5301 -2.1176 -0.9850
10962TIP3    H254302   0.829   4.977   1.206  2.5731 -1.8815  0.1256
10963TIP3   OH254303   0.802   5.001   2.263 -0.0909 -0.2718 -0.5105
10963TIP3    H154304   0.874   4.994   2.201  0.2540  1.4762 -0.3717
10963TIP3    H254305   0.755   5.080   2.236 -1.6058 -1.0384 -0.2278
10964TIP3   OH254306   0.141   0.674  13.461  0.0723  0.8798 -0.8853
10964TIP3    H154307   0.143   0.585  13.494 -2.8517  0.7365 -0.8472
10964TIP3    H254308   0.145   0.665  13.366  0.4772  0.7776 -0.8608
10965TIP3   OH254309   1.960   6.496  14.780 -0.0197  1.2718  0.7086
10965TIP3    H154310   2.039   6.546  14.798  1.0076 -0.2422  0.5570
10965TIP3    H254311   1.989   6.405  14.776 -1.7924  0.6609  0.7782
10966TIP3   OH254312   0.539   6.542   2.617 -0.1565 -0.7734  0.0413
10966TIP3    H154313   0.599   6.617   2.616 -0.5067 -0.4566  1.4323
10966TIP3    H254314   0.586   6.474   2.665 -1.1791 -0.2504  1.8802
10967TIP3   OH254315   2.621   2.160  15.156  0.0510 -0.1173  0.1252
10967TIP3    H154316   2.706   2.188  15.123 -0.3249  0.4664 -0.3630
10967TIP3    H254317   2.580   2.240  15.187  0.8467 -0.7673  3.1589
10968TIP3   OH254318   1.028   4.896   3.769  0.0961 -0.5268  0.0245
10968TIP3    H154319   1.016   4.916   3.862  2.4281 -1.8345  0.6853
10968TIP3    H254320   0.977   4.817   3.755 -0.5806 -0.1093  0.0601
10969TIP3   OH254321   4.187   0.624  15.744  0.6364 -0.0453 -0.2681
10969TIP3    H154322   4.194   0.540  15.789 -0.2584 -1.5715 -2.7577
10969TIP3    H254323   4.115   0.669  15.787  1.5658 -0.2138  1.5437
10970TIP3   OH254324   4.570   1.493   5.309 -0.0276  0.3092 -0.7562
10970TIP3    H154325   4.591   1.575   5.353  0.1781 -1.0721  1.9700
10970TIP3    H254326   4.639   1.481   5.244 -1.7743  3.7290 -3.5155
10971TIP3   OH254327   1.331   1.924  10.716 -0.2082  0.0181 -0.5523
10971TIP3    H154328   1.393   1.997  10.721  0.4746 -0.6520  2.7658
10971TIP3    H254329   1.257   1.952  10.769  0.2907 -1.7957  1.2491
10972TIP3   OH254330   4.689   1.107   6.196 -0.5582 -0.1654  0.1373
10972TIP3    H154331   4.737   1.056   6.130 -0.0224  1.0964 -0.4897
10972TIP3    H254332   4.756   1.161   6.237 -1.3684  1.4283 -0.5574
10973TIP3   OH254333   3.270   5.887   2.645  0.0031  0.6747  0.6576
10973TIP3    H154334   3.282   5.982   2.647 -0.3660  0.7213  1.3097
10973TIP3    H254335   3.260   5.863   2.737  1.0842 -0.1367  0.5747
10974TIP3   OH254336   0.735   2.971   5.858  0.0395  0.0268  0.8013
10974TIP3    H154337   0.755   2.936   5.945 -0.2573  1.3076  1.4139
10974TIP3    H254338   0.640   2.982   5.858  0.0180 -0.1303  0.2429
10975TIP3   OH254339   4.595   2.122  16.913  0.2982 -0.0004 -0.3372
10975TIP3    H154340   4.617   2.069  16.989 -0.4535  0.2009  0.0333
10975TIP3    H254341   4.624   2.071  16.838 -0.6169 -1.0548 -0.0028
10976TIP3   OH254342   6.039   5.337   0.580  0.0018  0.7292 -0.0456
10976TIP3    H154343   6.031   5.375   0.493 -0.6594  2.5125  0.7481
10976TIP3    H254344   5.966   5.276   0.587  0.5546 -0.0627 -1.0290
10977TIP3   OH254345   2.050   5.283   3.221 -0.0037 -0.2246  0.7221
10977TIP3    H154346   2.100   5.309   3.144 -1.1950  1.4647  0.4635
10977TIP3    H254347   1.993   5.213   3.191  0.0638 -0.0833  0.2661
10978TIP3   OH254348   4.375   2.934   0.650 -0.5789  0.5600 -0.1835
10978TIP3    H154349   4.328   2.886   0.718  0.1348 -0.6426 -0.5105
10978TIP3    H254350   4.341   2.898   0.568  0.3827  0.2055 -0.4299
10979TIP3   OH254351   2.834   5.170  16.825 -0.0157 -0.0925  0.0305
10979TIP3    H154352   2.827   5.226  16.748 -0.2724 -0.0307  0.0977
10979TIP3    H254353   2.882   5.223  16.889  2.6346 -1.0838 -0.9699
10980TIP3   OH254354   5.914   2.736   2.226 -0.1393  0.0383  0.0500
10980TIP3    H154355   5.958   2.659   2.263  0.5277  0.4431  0.1210
10980TIP3    H254356   5.841   2.701   2.177 -0.0229 -0.6252  0.3435
10981TIP3   OH254357   1.884   3.340   2.447  0.4523  0.1656 -0.2619
10981TIP3    H154358   1.789   3.339   2.459  0.3759  0.9155 -0.7436
10981TIP3    H254359   1.901   3.277   2.378  0.4912 -1.2286  0.9730
10982TIP3   OH254360   5.436   4.186   2.576  0.1025 -0.8244 -0.3672
10982TIP3    H154361   5.498   4.123   2.614  0.1579  0.0805  1.1153
10982TIP3    H254362   5.354   4.169   2.622  0.5450  1.2884  1.3451
10983TIP3   OH254363   1.124   3.041  17.008 -0.1076 -0.0992 -0.2367
10983TIP3    H154364   1.122   2.997  16.923 -0.4360  0.1699 -0.3742
10983TIP3    H254365   1.208   3.017  17.046  0.0371 -0.2318 -0.6341
10984TIP3   OH254366   3.234   6.733  17.014 -0.1704 -0.3618  0.2432
10984TIP3    H154367   3.321   6.756  17.046  0.9863 -0.4223 -2.5869
10984TIP3    H254368   3.234   6.637  17.014 -0.6563 -0.3749  1.1788
10985TIP3   OH254369   5.900   3.540  13.143 -0.5543 -0.2675  0.0253
10985TIP3    H154370   5.901   3.635  13.132 -0.2452 -0.3491 -0.7344
10985TIP3    H254371   5.812   3.520  13.175 -0.8172  0.2194 -0.3856
10986TIP3   OH254372   1.408   3.527   4.859 -0.9445  1.2556  0.2420
10986TIP3    H154373   1.331   3.510   4.913 -1.2961 -0.7291 -0.7754
10986TIP3    H254374   1.373   3.551   4.774 -0.4611  0.5922 -0.1592
10987TIP3   OH254375   3.169   0.135  17.273 -0.3234  0.2506  0.0969
10987TIP3    H154376   3.233   0.193  17.233 -1.2540  1.4778  0.3268
10987TIP3    H254377   3.161   0.062  17.212  1.7032 -0.2521  0.3534
10988TIP3   OH254378   2.151   2.665   3.012 -0.0220 -0.2261  0.4976
10988TIP3    H154379   2.145   2.751   2.970 -1.6303 -0.3672  0.3760
10988TIP3    H254380   2.064   2.627   3.002  0.8747 -2.2360 -0.1715
10989TIP3   OH254381   0.246   2.071  14.061  0.2897 -0.6462  0.0379
10989TIP3    H154382   0.253   1.985  14.019 -0.8323 -0.7965  0.1256
10989TIP3    H254383   0.159   2.071  14.102  0.3982  0.4152  0.3042
10990TIP3   OH254384   0.139   5.715  16.758  0.0992 -0.0571  0.1115
10990TIP3    H154385   0.177   5.681  16.839 -0.6130 -1.0580  0.0482
10990TIP3    H254386   0.091   5.794  16.784 -1.3047 -1.1337  0.9499
10991TIP3   OH254387   4.299   1.503   3.081 -0.1692  0.0056  0.0543
10991TIP3    H154388   4.345   1.422   3.104 -1.3720 -0.9466 -0.7079
10991TIP3    H254389   4.366   1.570   3.080  0.9715 -1.0968  0.1701
10992TIP3   OH254390   5.265   1.074  14.944  0.3634 -0.4098  0.2765
10992TIP3    H154391   5.230   0.990  14.915 -1.9571  1.3007 -2.4451
10992TIP3    H254392   5.208   1.101  15.016  1.0984 -1.0758  1.1385
10993TIP3   OH254393   3.717   4.427  16.133  0.2042 -0.2033  0.2049
10993TIP3    H154394   3.809   4.453  16.134 -0.2396  1.5167  1.5927
10993TIP3    H254395   3.693   4.429  16.040  1.3160  0.2669 -0.0929
10994TIP3   OH254396   5.937   6.079  17.309  0.0282 -0.2026  0.5382
10994TIP3    H154397   5.915   6.146  17.373  0.7611  0.3562  0.2282
10994TIP3    H254398   5.855   6.063  17.262  0.0915  1.3799 -0.1917
10995TIP3   OH254399   4.187   2.867  14.698 -0.3434  0.3761  0.2814
10995TIP3    H154400   4.270   2.907  14.723 -0.7956  1.4462  0.1258
10995TIP3    H254401   4.148   2.927  14.635 -0.1670 -1.2799 -1.5043
10996TIP3   OH254402   2.153   1.077   3.714  0.3185 -0.1676 -0.7213
10996TIP3    H154403   2.076   1.023   3.731 -0.6769  1.3456 -0.1315
10996TIP3    H254404   2.169   1.067   3.620 -0.1907 -1.0193 -0.7253
10997TIP3   OH254405   5.618   1.469   5.054 -0.7145 -0.1071 -0.0304
10997TIP3    H154406   5.705   1.435   5.076 -0.0502  1.8499  0.5950
10997TIP3    H254407   5.577   1.484   5.139 -1.1372  0.2540 -0.2949
10998TIP3   OH254408   4.986   4.547  12.605 -0.5830  0.3709 -0.2283
10998TIP3    H154409   4.976   4.574  12.696 -0.9538 -0.3130 -0.0605
10998TIP3    H254410   4.902   4.505  12.583 -0.3886  0.2685 -0.7907
10999TIP3   OH254411   2.468   5.103   5.368  0.0964 -0.2986  0.4039
10999TIP3    H154412   2.535   5.073   5.307 -0.3724  1.6001 -1.1039
10999TIP3    H254413   2.388   5.056   5.342  0.2873 -0.8019  0.7069
11000TIP3   OH254414   0.473   3.203   0.737  0.0633  0.3973  0.2110
11000TIP3    H154415   0.498   3.287   0.775  2.0180  0.3926 -0.9069
11000TIP3    H254416   0.553   3.151   0.740 -0.8026 -1.0087 -0.1889
11001TIP3   OH254417   0.372   6.237   0.272  0.0897 -0.2922 -0.2236
11001TIP3    H154418   0.297   6.224   0.329 -0.0905  0.3701 -0.3045
11001TIP3    H254419   0.361   6.172   0.203  0.5229 -1.3773  0.6946
11002TIP3   OH254420   0.873   4.253   1.553  0.5011  0.4400 -0.0696
11002TIP3    H154421   0.854   4.342   1.581 -1.2263  0.1208 -0.1079
11002TIP3    H254422   0.856   4.199   1.630  0.5972  0.0461 -0.3193
11003TIP3   OH254423   3.450   4.383  11.905  0.0585  0.2868 -0.7024
11003TIP3    H154424   3.453   4.289  11.923  0.5027  0.6916  1.6160
11003TIP3    H254425   3.381   4.416  11.961  1.0044  1.5679 -0.2455
11004TIP3   OH254426   4.139   1.736   3.309 -0.4952  0.0126 -0.4491
11004TIP3    H154427   4.061   1.693   3.343 -0.0499 -0.1337  0.4383
11004TIP3    H254428   4.198   1.742   3.385  0.3303  0.1629 -1.0836
11005TIP3   OH254429   2.265   3.621   0.888  0.3538  0.2515 -0.1949
11005TIP3    H154430   2.244   3.637   0.981 -0.2572  0.6817 -0.3978
11005TIP3    H254431   2.216   3.689   0.841  0.4932 -0.0979 -0.8513
11006TIP3   OH254432   5.692   1.949   4.529 -0.1359 -0.2538  0.2276
11006TIP3    H154433   5.743   1.885   4.578  0.3234  0.9728  1.4066
11006TIP3    H254434   5.688   1.913   4.440  3.1075 -0.2731 -0.0367
11007TIP3   OH254435   4.035   2.698  16.409 -0.4839  0.0515 -0.1944
11007TIP3    H154436   4.120   2.730  16.438 -1.4425  0.6828  2.2268
11007TIP3    H254437   4.046   2.603  16.401 -0.2257 -0.3301  3.1601
11008TIP3   OH254438   6.210   2.186  14.528  0.0358  0.1571 -0.0747
11008TIP3    H154439   6.251   2.102  14.508 -0.7117 -0.0215 -0.8975
11008TIP3    H254440   6.224   2.198  14.622  0.3023 -0.8015  0.0128
11009TIP3   OH254441   3.595   5.277  14.172 -0.0283 -0.0020  0.6583
11009TIP3    H154442   3.506   5.263  14.204  0.8927 -1.1959  2.9292
11009TIP3    H254443   3.609   5.206  14.109 -0.4950 -0.1068  0.6641
11010TIP3   OH254444   5.279   3.146   3.903  0.4729  0.1464  0.2908
11010TIP3    H154445   5.298   3.059   3.937  1.3523  0.6125  1.0641
11010TIP3    H254446   5.253   3.196   3.981 -5.2206 -0.6276 -0.6891
11011TIP3   OH254447   6.109   1.757  15.048 -0.2274 -0.3806 -0.2594
11011TIP3    H154448   6.046   1.706  14.998 -0.5570 -1.3806  1.1134
11011TIP3    H254449   6.057   1.799  15.117  0.2856  0.5513 -0.4175
11012TIP3   OH254450   1.309   0.385   0.017  0.5274  0.4290  0.2301
11012TIP3    H154451   1.262   0.362  -0.063  0.2950  0.2884  0.4073
11012TIP3    H254452   1.242   0.422   0.075  0.6348  0.2303  0.4828
11013TIP3   OH254453   0.436   2.822  13.629 -0.2525 -0.1429 -0.1150
11013TIP3    H154454   0.393   2.743  13.664 -1.5350  0.2031 -0.8263
11013TIP3    H254455   0.509   2.789  13.578 -1.9297 -1.0852 -2.0747
11014TIP3   OH254456   4.174   3.643  17.264  0.1167 -0.7629  0.4012
11014TIP3    H154457   4.255   3.643  17.315  0.5039 -1.7786 -0.1779
11014TIP3    H254458   4.182   3.567  17.207 -0.1244  0.5772 -1.4832
11015TIP3   OH254459   1.329   3.331  14.796 -0.3171 -0.5030  0.0668
11015TIP3    H154460   1.388   3.303  14.866  0.5547 -3.1776 -1.6002
11015TIP3    H254461   1.377   3.313  14.715 -1.1295  2.8474 -1.3129
11016TIP3   OH254462   1.956   0.263   6.226 -0.3022  0.2672 -0.2754
11016TIP3    H154463   1.951   0.233   6.135 -2.2277  0.0649 -0.1307
11016TIP3    H254464   1.932   0.187   6.278 -0.7062  0.7957  0.3260
11017TIP3   OH254465   2.668   1.548   1.847 -0.1950 -0.1142  0.3832
11017TIP3    H154466   2.608   1.531   1.775  0.1039 -0.8205  0.3010
11017TIP3    H254467   2.611   1.572   1.920 -0.5336 -0.0316  0.0934
11018TIP3   OH254468   1.660   0.721   5.160 -0.4611 -0.3341  0.0510
11018TIP3    H154469   1.617   0.710   5.245  1.4392 -3.0611  0.7974
11018TIP3    H254470   1.742   0.765   5.180  0.9155 -2.7145  0.0773
11019TIP3   OH254471   4.106   3.363   1.829  0.7066 -0.3080  0.1491
11019TIP3    H154472   4.104   3.352   1.734  1.0103 -1.2346  0.2424
11019TIP3    H254473   4.016   3.382   1.853  0.7098  0.3975 -0.3724
11020TIP3   OH254474   5.550   1.585  15.102 -0.1443  1.0561  0.2312
11020TIP3    H154475   5.616   1.549  15.042 -1.6473  0.5286 -1.1783
11020TIP3    H254476   5.516   1.509  15.149  0.6379  1.4034  1.4142
11021TIP3   OH254477   0.738   0.211  13.642 -0.0229  0.1625  0.2467
11021TIP3    H154478   0.760   0.153  13.715  2.2514  0.6539  0.0196
11021TIP3    H254479   0.782   0.174  13.567 -0.7618  0.7226 -0.4834
11022TIP3   OH254480   2.192   4.156   1.681  0.5026 -0.1205  0.1426
11022TIP3    H154481   2.257   4.146   1.751  0.9960 -1.3866 -0.4704
11022TIP3    H254482   2.174   4.067   1.651 -1.8470  0.1577  0.5530
11023TIP3   OH254483   2.557   6.248  16.510  0.4252 -0.1845  0.1747
11023TIP3    H154484   2.531   6.278  16.597 -0.4490 -1.6185  0.4383
11023TIP3    H254485   2.643   6.210  16.522  1.2947  1.5761 -0.0562
11024TIP3   OH254486   6.085   2.105  15.595 -0.8181 -0.0912 -0.2563
11024TIP3    H154487   6.053   2.195  15.600 -1.1842 -0.1665 -0.9870
11024TIP3    H254488   6.070   2.069  15.682 -1.7694  0.2051 -0.2860
11025TIP3   OH254489   4.672   5.045  10.842 -0.1187  0.1191 -0.0325
11025TIP3    H154490   4.674   5.125  10.893 -0.1325  0.5832 -0.7436
11025TIP3    H254491   4.687   5.073  10.751 -1.4936 -0.5116 -0.4837
11026TIP3   OH254492   5.272   5.284   4.291  0.4967 -0.4709  0.0874
11026TIP3    H154493   5.325   5.302   4.369  0.7990 -1.7004  0.1872
11026TIP3    H254494   5.273   5.189   4.283  0.1828 -0.3836 -1.2280
11027TIP3   OH254495   0.454   1.832  11.582  0.5349  0.2428  0.1331
11027TIP3    H154496   0.362   1.844  11.605  0.6374  0.7317  0.2916
11027TIP3    H254497   0.500   1.899  11.632  1.2961 -1.7254  2.2807
11028TIP3   OH254498   5.639   2.994  15.867  0.2566  0.7175  0.1834
11028TIP3    H154499   5.686   3.002  15.784  0.5678 -1.5395  0.0880
11028TIP3    H254500   5.708   2.985  15.933  0.0361 -0.7058  0.2627
11029TIP3   OH254501   2.617   1.543  15.451 -0.2033 -0.5749 -0.0768
11029TIP3    H154502   2.637   1.611  15.515  0.0930 -0.0787 -0.6848
11029TIP3    H254503   2.679   1.473  15.470  0.2362 -0.2133 -0.1490
11030TIP3   OH254504   4.161   5.084   0.809 -0.0544 -0.0415 -0.3352
11030TIP3    H154505   4.243   5.039   0.830 -0.2734 -0.1640  0.2646
11030TIP3    H254506   4.140   5.135   0.887  1.6126  3.3633 -1.8711
11031TIP3   OH254507   6.664   3.453   3.221  0.1638  0.3143  0.2390
11031TIP3    H154508   6.743   3.413   3.186 -0.2306 -0.1869 -0.0855
11031TIP3    H254509   6.694   3.501   3.298  0.8331  0.3986 -0.0683
11032TIP3   OH254510   4.772   3.312  13.842  0.0934  1.0390 -0.2710
11032TIP3    H154511   4.730   3.398  13.853 -0.9166  0.5891 -0.4370
11032TIP3    H254512   4.780   3.302  13.747 -0.4143  0.6760 -0.2826
11033TIP3   OH254513   3.739   3.751   5.903  0.1734 -0.0047 -0.5923
11033TIP3    H154514   3.728   3.705   5.820  0.8418 -0.4039 -0.4605
11033TIP3    H254515   3.679   3.706   5.963 -1.5539  1.3186 -1.2407
11034TIP3   OH254516   3.432   1.098   1.376  0.3426  0.4782 -0.6031
11034TIP3    H154517   3.523   1.086   1.348  0.3551 -2.7541  0.3757
11034TIP3    H254518   3.433   1.079   1.470 -1.6458 -2.3444 -1.0234
11035TIP3   OH254519   1.225   1.487  16.719 -0.1992  0.4446  0.4186
11035TIP3    H154520   1.314   1.500  16.752  1.3599 -2.1623 -2.2690
11035TIP3    H254521   1.186   1.422  16.779  1.0978 -1.1146 -0.3438
11036TIP3   OH254522   6.284   6.466  15.410 -0.1245 -0.1460  0.1454
11036TIP3    H154523   6.362   6.458  15.355  1.7880 -0.9213  2.7685
11036TIP3    H254524   6.235   6.386  15.393 -0.7830  0.6277 -2.0004
11037TIP3   OH254525   0.522   3.140   2.214 -0.4046 -0.1646 -1.1904
11037TIP3    H154526   0.503   3.058   2.258 -0.6716 -1.4650 -3.5584
11037TIP3    H254527   0.436   3.176   2.193 -0.3037  1.0574  0.3105
11038TIP3   OH254528   2.992   6.677   4.174  0.5287  0.4334 -0.2458
11038TIP3    H154529   2.955   6.639   4.094 -0.6280 -0.9826  0.9073
11038TIP3    H254530   3.070   6.623   4.191  0.9220  0.8979 -0.5240
11039TIP3   OH254531   0.505   3.054   5.955 -0.3607  0.0879  0.3753
11039TIP3    H154532   0.515   3.072   6.049  1.4188 -1.8273  0.6453
11039TIP3    H254533   0.533   3.134   5.912 -1.1367  0.9741  1.4585
11040TIP3   OH254534   5.730   1.633  16.515 -0.6995  0.7316  0.3481
11040TIP3    H154535   5.686   1.663  16.595  0.4448  0.5908  1.0461
11040TIP3    H254536   5.778   1.555  16.541  0.6165  1.3224 -0.1843
11041TIP3   OH254537   3.485   0.802   0.369 -0.0567  0.1150 -0.1347
11041TIP3    H154538   3.549   0.742   0.408  0.7529  0.3281 -1.0979
11041TIP3    H254539   3.466   0.764   0.283 -1.2660  0.0384  0.1483
11042TIP3   OH254540   4.851   6.343  16.300  0.0520 -0.3704  0.7768
11042TIP3    H154541   4.813   6.330  16.386  1.2195 -1.3409  1.1679
11042TIP3    H254542   4.911   6.269  16.288 -0.5543 -0.6051 -1.1313
11043TIP3   OH254543   0.963   5.594   1.211  0.1812 -0.4930 -0.6845
11043TIP3    H154544   0.984   5.679   1.249 -0.0378 -0.3909 -0.7866
11043TIP3    H254545   0.965   5.609   1.116  0.8676 -0.7789 -0.7195
11044TIP3   OH254546   5.442   5.410   3.986  0.1993 -0.0392 -0.1691
11044TIP3    H154547   5.511   5.394   3.922  1.0187  0.6630  0.5023
11044TIP3    H254548   5.405   5.324   4.004  0.5429 -0.3568 -0.9275
11045TIP3   OH254549   2.096   0.564   4.052  0.0627 -0.8213 -0.4173
11045TIP3    H154550   2.055   0.522   3.977  2.6989 -0.5043 -2.1455
11045TIP3    H254551   2.096   0.497   4.120 -1.6504 -1.3759 -0.9097
11046TIP3   OH254552   0.124   5.457  15.923  0.2576 -0.4950  0.0350
11046TIP3    H154553   0.061   5.437  15.992  0.2424  1.1865  0.5525
11046TIP3    H254554   0.158   5.372  15.896 -1.2898 -1.3353  0.6397
11047TIP3   OH254555   4.067   3.784  13.187  0.7336  0.3998 -0.5462
11047TIP3    H154556   4.096   3.697  13.158 -0.4748 -0.2529  0.1191
11047TIP3    H254557   3.990   3.802  13.134 -2.0220 -1.1734  2.5806
11048TIP3   OH254558   0.940   1.789   1.357 -0.5386  0.0712  0.2858
11048TIP3    H154559   0.933   1.790   1.262 -0.1212 -1.8356  0.1959
11048TIP3    H254560   0.969   1.877   1.380  1.0257  0.0867 -1.5036
11049TIP3   OH254561   1.048   5.451  16.479 -0.4314 -0.0468  0.4779
11049TIP3    H154562   1.143   5.449  16.489 -0.4407 -0.3154  0.5315
11049TIP3    H254563   1.033   5.438  16.386 -0.4418 -1.1382  0.6166
11050TIP3   OH254564   6.682   4.485   4.720  0.1144  0.1340 -0.3113
11050TIP3    H154565   6.751   4.532   4.767 -1.8263  1.0199  1.8564
11050TIP3    H254566   6.717   4.397   4.707  1.0898  0.0974  2.1364
11051TIP3   OH254567   0.705   2.405   2.056  0.1435 -0.0801 -0.5615
11051TIP3    H154568   0.745   2.488   2.084  1.3718 -0.0921 -2.1286
11051TIP3    H254569   0.752   2.338   2.107 -2.0695  0.1945  2.0558
11052TIP3   OH254570   0.111   1.526  12.967 -0.4229 -0.8247  0.3270
11052TIP3    H154571   0.089   1.476  12.888  1.9664 -2.8603  0.8128
11052TIP3    H254572   0.205   1.543  12.959 -0.6921  1.6351  1.3592
11053TIP3   OH254573   5.569   3.759  11.983 -0.1021  0.6001  0.0267
11053TIP3    H154574   5.657   3.727  12.001 -0.4834 -0.1019  0.7377
11053TIP3    H254575   5.522   3.683  11.950 -0.1307  1.2576 -1.5525
11054TIP3   OH254576   3.807   5.399   6.692 -0.1736  0.6382 -0.6070
11054TIP3    H154577   3.753   5.358   6.624  0.2272 -0.4530 -0.2883
11054TIP3    H254578   3.745   5.424   6.761 -0.5070  1.2130 -1.1075
11055TIP3   OH254579   5.703   4.574  10.406 -0.5255  0.1729  0.1841
11055TIP3    H154580   5.642   4.547  10.475  1.4521  2.9739  3.3974
11055TIP3    H254581   5.787   4.583  10.451  0.9852  1.9626 -2.6764
11056TIP3   OH254582   2.684   5.200   3.715  0.3242 -0.1876  0.4819
11056TIP3    H154583   2.734   5.176   3.637 -1.0165 -0.4669 -0.3057
11056TIP3    H254584   2.751   5.211   3.783  1.4798 -0.3168 -0.5968
11057TIP3   OH254585   2.822   4.903   4.010  0.2018  0.2866 -0.3548
11057TIP3    H154586   2.836   4.828   3.952 -1.1117  0.4655 -0.9283
11057TIP3    H254587   2.831   4.867   4.098 -1.6617 -0.8617 -0.5737
11058TIP3   OH254588   6.239   2.285  13.756  0.7494 -0.1560 -0.3077
11058TIP3    H154589   6.300   2.318  13.822 -0.0490 -2.0670  1.5194
11058TIP3    H254590   6.276   2.201  13.730 -0.5457 -0.8720  0.0767
11059TIP3   OH254591   2.581   3.440  12.418 -0.6354  0.2035  0.4734
11059TIP3    H154592   2.606   3.347  12.419  1.0927  0.6385  0.8303
11059TIP3    H254593   2.491   3.441  12.451 -0.9518 -1.3997 -0.2113
11060TIP3   OH254594   6.417   1.543   5.570  0.1195  0.7041 -0.2744
11060TIP3    H154595   6.511   1.546   5.556 -0.0234  0.6499 -1.3558
11060TIP3    H254596   6.405   1.560   5.663  1.2828 -0.8372  0.1814
11061TIP3   OH254597   6.197   5.110  14.910  0.0688  0.3062  0.0216
11061TIP3    H154598   6.253   5.105  14.988 -2.1307  2.1965  1.8886
11061TIP3    H254599   6.200   5.202  14.885 -0.4732  0.0081 -1.1841
11062TIP3   OH254600   3.650   4.898   4.453  0.1993  0.2664 -0.5654
11062TIP3    H154601   3.598   4.948   4.391 -1.2610 -1.3134 -0.6918
11062TIP3    H254602   3.679   4.821   4.404  1.1771  0.2272  0.0260
11063TIP3   OH254603   2.251   5.413   4.405  0.1479 -0.1809  0.6783
11063TIP3    H154604   2.334   5.370   4.387 -0.4738 -1.1347 -0.0069
11063TIP3    H254605   2.202   5.405   4.323 -1.8904 -2.6007  1.9840
11064TIP3   OH254606   4.169   4.670   0.579  0.6123  0.1747 -0.5786
11064TIP3    H154607   4.167   4.601   0.513 -2.2544 -0.9754  0.5483
11064TIP3    H254608   4.110   4.737   0.545 -1.4243 -0.7265  1.0054
11065TIP3   OH254609   4.683   5.136   5.738  0.1589  0.6447 -0.0428
11065TIP3    H154610   4.632   5.176   5.808 -0.5931  0.1728 -0.3079
11065TIP3    H254611   4.620   5.121   5.667 -0.0215 -2.4963  0.6311
11066TIP3   OH254612   4.419   1.876  11.871  0.9117  0.6307  0.4735
11066TIP3    H154613   4.409   1.864  11.966  0.2062  1.4808  0.5234
11066TIP3    H254614   4.345   1.828  11.833  0.9885  0.5902  0.3754
11067TIP3   OH254615   2.060   1.067  15.819  0.0022 -0.1080 -0.6153
11067TIP3    H154616   2.088   1.158  15.821 -3.2714  1.0559 -1.2860
11067TIP3    H254617   2.028   1.049  15.907  1.8302 -1.1161 -0.1064
11068TIP3   OH254618   6.180   5.527  12.680  0.2703 -0.3521 -0.2593
11068TIP3    H154619   6.244   5.532  12.609 -0.0752 -2.0192 -0.7366
11068TIP3    H254620   6.226   5.486  12.752  0.5164  1.0168  0.3849
11069TIP3   OH254621   4.529   0.839   5.103 -0.0768  0.2859  0.1374
11069TIP3    H154622   4.543   0.893   5.180 -0.0245 -1.9592  1.8009
11069TIP3    H254623   4.467   0.889   5.050  0.9658  2.5285  0.9052
11070TIP3   OH254624   0.988   4.549  14.403  0.5659 -0.0147 -0.2425
11070TIP3    H154625   0.901   4.522  14.433  0.7292 -0.3217 -0.0336
11070TIP3    H254626   1.034   4.574  14.483  0.6854  0.0992 -0.3475
11071TIP3   OH254627   6.466   4.671   1.535 -0.3170 -0.6220 -0.0391
11071TIP3    H154628   6.402   4.738   1.562  1.6069  0.4912  2.1638
11071TIP3    H254629   6.516   4.712   1.465 -0.5732 -0.6449 -0.2385
11072TIP3   OH254630   2.832   2.624   5.632 -0.1212 -0.0930 -0.7170
11072TIP3    H154631   2.807   2.589   5.547  0.5143 -0.4736 -0.7540
11072TIP3    H254632   2.766   2.590   5.693 -0.4571  0.0109 -1.0221
11073TIP3   OH254633   4.151   2.020   2.435  0.0233  0.4868  0.1861
11073TIP3    H154634   4.230   2.001   2.383 -1.2059  0.1567 -1.6616
11073TIP3    H254635   4.105   1.936   2.438 -0.3741  0.7286  1.0772
11074TIP3   OH254636   6.522   2.277  15.674 -0.1840  0.6528  0.0904
11074TIP3    H154637   6.599   2.286  15.618 -0.6697  2.3777 -0.3760
11074TIP3    H254638   6.462   2.223  15.623  0.5251 -0.3104  0.2581
11075TIP3   OH254639   1.750   2.940  14.667 -0.1479 -0.4944  0.2838
11075TIP3    H154640   1.738   3.003  14.596 -1.3911  0.5874  1.4054
11075TIP3    H254641   1.829   2.892  14.643  1.0829  1.7412 -0.4344
11076TIP3   OH254642   5.067   3.598   0.341 -0.2503  0.8170 -0.7477
11076TIP3    H154643   5.116   3.617   0.261 -1.4028  0.2380 -1.6381
11076TIP3    H254644   5.003   3.669   0.347 -2.3424 -0.8126 -2.2237
11077TIP3   OH254645   3.270   0.268   5.916 -0.7945 -0.3012  0.3529
11077TIP3    H154646   3.208   0.276   5.844  0.3430  0.2212 -0.5944
11077TIP3    H254647   3.250   0.341   5.974 -0.3340  0.5553 -0.5402
11078TIP3   OH254648   3.652   3.143   2.200  0.3793  0.0866  0.2516
11078TIP3    H154649   3.644   3.070   2.138 -0.0651 -0.7145  1.2364
11078TIP3    H254650   3.622   3.219   2.150 -1.9353 -0.8651  0.0753
11079TIP3   OH254651   4.665   6.627  16.651 -0.0729 -0.6515  0.3125
11079TIP3    H154652   4.733   6.693  16.637 -0.5284 -0.2851 -0.1872
11079TIP3    H254653   4.603   6.668  16.711 -0.8685 -0.2369 -0.7614
11080TIP3   OH254654   6.127   6.254   5.836 -0.6932 -0.4505 -0.0146
11080TIP3    H154655   6.172   6.220   5.758 -1.1554  0.0286 -0.5021
11080TIP3    H254656   6.066   6.185   5.860  1.4823 -1.9280  1.7524
11081TIP3   OH254657   5.877   3.829   1.762  0.9450  0.3871 -0.2650
11081TIP3    H154658   5.783   3.835   1.779  0.9951  3.3573 -0.5280
11081TIP3    H254659   5.910   3.775   1.833 -0.8208  0.1988  0.4823
11082TIP3   OH254660   3.169   0.504   5.291 -0.0372  0.1588 -0.3054
11082TIP3    H154661   3.197   0.510   5.200  1.5648  0.6399  0.1936
11082TIP3    H254662   3.105   0.575   5.301 -0.8081 -0.3760 -1.2240
11083TIP3   OH254663   5.865   1.347   5.165  0.3013  0.0473 -0.2331
11083TIP3    H154664   5.932   1.299   5.212 -0.2858 -0.7013 -0.1465
11083TIP3    H254665   5.817   1.395   5.233  0.8200  0.6889 -0.3091
11084TIP3   OH254666   1.089   2.998  17.279  0.0105 -0.4443  0.0033
11084TIP3    H154667   1.089   3.078  17.332 -1.1040  0.0973 -0.7764
11084TIP3    H254668   1.108   3.029  17.190 -1.1357 -0.9456 -0.4284
11085TIP3   OH254669   4.698   0.617   3.518 -0.0570 -0.3102  0.4035
11085TIP3    H154670   4.710   0.562   3.440  0.0749 -1.6416  1.3379
11085TIP3    H254671   4.603   0.630   3.523 -0.7131 -4.2407  2.5783
11086TIP3   OH254672   2.502   3.352   0.024 -0.4144 -0.9804 -0.8098
11086TIP3    H154673   2.497   3.431   0.078 -0.3571 -1.3399 -0.2722
11086TIP3    H254674   2.595   3.336   0.014 -0.3815 -0.0211 -2.3548
11087TIP3   OH254675   5.833   5.488   0.328  0.2417 -0.4471 -0.4675
11087TIP3    H154676   5.779   5.428   0.379  3.2220 -2.2535  0.8332
11087TIP3    H254677   5.843   5.445   0.243  0.4565 -0.6316 -0.3503
11088TIP3   OH254678   6.237   0.495   0.498 -0.5728  0.6168 -0.4574
11088TIP3    H154679   6.254   0.406   0.468  1.4749 -1.6064  5.6203
11088TIP3    H254680   6.141   0.500   0.504 -0.8576 -3.0602  2.6058
11089TIP3   OH254681   5.635   0.992   6.032  0.6579  0.1581  0.0384
11089TIP3    H154682   5.612   1.083   6.016  0.4305 -0.3639 -3.3692
11089TIP3    H254683   5.562   0.957   6.082 -0.7778  1.1478 -1.2759
11090TIP3   OH254684   1.904   4.231  12.112 -0.1400 -0.1876  0.2339
11090TIP3    H154685   1.911   4.326  12.110 -1.1706 -0.1154 -0.7511
11090TIP3    H254686   1.867   4.211  12.198  0.2849  0.2749  0.5272
11091TIP3   OH254687   6.462   4.792  10.781 -0.9574  0.0781  0.0404
11091TIP3    H154688   6.387   4.851  10.790 -1.4959 -0.4765 -0.6892
11091TIP3    H254689   6.499   4.813  10.696 -0.4510  0.1585  0.2810
11092TIP3   OH254690   0.170   4.113   0.010 -0.1234 -0.0918  0.0835
11092TIP3    H154691   0.114   4.053  -0.039 -0.1188 -0.7976  0.9297
11092TIP3    H254692   0.110   4.178   0.045 -0.3834 -0.6759  0.7354
11093TIP3   OH254693   5.237   2.738  16.178  0.0150 -0.0619 -0.1544
11093TIP3    H154694   5.287   2.696  16.248 -1.2225  0.2521  0.9633
11093TIP3    H254695   5.304   2.771  16.118  1.0972 -0.9368  0.5191
11094TIP3   OH254696   4.368   4.864   3.764 -0.0484  0.4297 -0.1598
11094TIP3    H154697   4.308   4.938   3.751  0.6792  1.2188  0.8041
11094TIP3    H254698   4.375   4.855   3.859  0.9179 -0.0019 -0.2590
11095TIP3   OH254699   4.673   5.485   3.645 -0.0280 -0.1356  0.0709
11095TIP3    H154700   4.604   5.509   3.707 -0.0849  0.5178 -0.2422
11095TIP3    H254701   4.755   5.504   3.691 -0.0233 -1.6857  0.7590
11096TIP3   OH254702   0.668   4.825   3.630  0.7384 -0.6533 -0.1262
11096TIP3    H154703   0.652   4.919   3.637  0.6664 -0.7772  2.2964
11096TIP3    H254704   0.599   4.793   3.572  1.2317  0.8547 -1.6204
11097TIP3   OH254705   2.397   2.846   6.258  0.2015 -0.2880  0.2921
11097TIP3    H154706   2.338   2.922   6.266  0.1378 -0.3313  0.2324
11097TIP3    H254707   2.354   2.777   6.309 -1.0537 -1.0884 -1.7502
11098TIP3   OH254708   2.993   6.605  12.643 -0.8835 -0.5067 -0.3483
11098TIP3    H154709   3.027   6.525  12.604 -0.1320 -0.2498 -0.2259
11098TIP3    H254710   2.988   6.587  12.737 -0.1571 -0.2110 -0.2512
11099TIP3   OH254711   2.261   1.048   1.196 -0.6661  0.6042 -1.0403
11099TIP3    H154712   2.214   0.975   1.156 -1.2582  0.5855 -0.3252
11099TIP3    H254713   2.352   1.018   1.198 -1.2216 -1.2864  1.6164
11100TIP3   OH254714   5.176   4.042   0.640  0.0545  1.2832  0.1323
11100TIP3    H154715   5.247   4.106   0.651  0.3684  0.8143  0.9311
11100TIP3    H254716   5.221   3.957   0.639 -0.5880  0.8428  2.2870
11101TIP3   OH254717   1.131   0.657   5.809  0.0359 -0.0159 -0.1140
11101TIP3    H154718   1.063   0.635   5.746 -0.5243 -0.7999  0.7331
11101TIP3    H254719   1.179   0.730   5.769 -0.7937  0.0176 -1.0782
11102TIP3   OH254720   1.371   2.228   2.881  0.4445 -0.2841  0.3838
11102TIP3    H154721   1.396   2.139   2.858  0.7968  0.2174 -1.3318
11102TIP3    H254722   1.452   2.270   2.909  0.2208 -0.5646  1.5164
11103TIP3   OH254723   4.378   3.381   4.816 -0.0054 -0.1758 -0.0508
11103TIP3    H154724   4.375   3.348   4.906  0.6404 -1.0849 -0.3567
11103TIP3    H254725   4.363   3.475   4.825 -0.2568 -0.3013  0.9801
11104TIP3   OH254726   1.923   4.061  13.469  0.7371 -0.1200 -0.2021
11104TIP3    H154727   1.963   4.147  13.471  0.4301  0.0170  0.0495
11104TIP3    H254728   1.996   4.001  13.452  0.7291  0.3272 -2.0047
11105TIP3   OH254729   6.133   6.263  15.350  0.0283 -0.3156  0.6484
11105TIP3    H154730   6.056   6.205  15.350  0.0237 -0.3147 -0.1891
11105TIP3    H254731   6.207   6.205  15.338  0.1081 -0.2402  0.7658
11106TIP3   OH254732   3.295   4.348  13.452 -0.1334 -0.3357 -0.2870
11106TIP3    H154733   3.253   4.264  13.430  0.9504 -0.9516 -0.0950
11106TIP3    H254734   3.238   4.387  13.517 -1.7982  0.1056 -1.9218
11107TIP3   OH254735   4.349   6.368   2.170  0.4705 -0.0231 -0.4146
11107TIP3    H154736   4.373   6.338   2.082  1.8791 -0.6678  0.1618
11107TIP3    H254737   4.253   6.363   2.172  0.3587  0.7568 -2.1585
11108TIP3   OH254738   3.996   2.117   3.278  0.5687  0.2471 -0.9837
11108TIP3    H154739   4.075   2.072   3.250 -0.1648 -0.8868 -1.3075
11108TIP3    H254740   4.027   2.191   3.331  1.8052 -0.7986 -0.2013
11109TIP3   OH254741   2.235   1.331   0.082  0.0329 -1.2830 -0.0028
11109TIP3    H154742   2.239   1.327   0.177  0.0597  0.5412  0.1082
11109TIP3    H254743   2.259   1.421   0.061 -0.6614 -1.4553 -1.6910
11110TIP3   OH254744   5.238   5.333  15.066  0.3073 -0.4949  0.0180
11110TIP3    H154745   5.205   5.368  14.983 -1.0866 -0.1110  0.7015
11110TIP3    H254746   5.260   5.411  15.117 -0.9346 -0.6313  0.8086
11111TIP3   OH254747   2.616   5.730  17.208 -0.3157 -0.1025  0.1596
11111TIP3    H154748   2.524   5.704  17.207 -0.4344  0.2418  1.1420
11111TIP3    H254749   2.658   5.667  17.268  0.0874 -0.2546 -0.2803
11112TIP3   OH254750   6.203   3.367  17.321 -0.7170 -0.1777 -0.3072
11112TIP3    H154751   6.173   3.346  17.233  1.6635 -2.1379 -0.7685
11112TIP3    H254752   6.134   3.333  17.379 -1.2136 -1.0129 -1.3597
11113TIP3   OH254753   2.015   3.983   4.637 -0.0526  0.0163 -0.2095
11113TIP3    H154754   1.925   3.956   4.620 -0.6558  1.3044  0.7192
11113TIP3    H254755   2.069   3.919   4.591 -1.4487 -0.1443 -1.6974
11114TIP3   OH254756   3.123   2.010  12.850 -0.0851 -0.5559  0.0217
11114TIP3    H154757   3.047   1.955  12.869 -0.8849  0.3876 -0.3590
11114TIP3    H254758   3.132   2.007  12.755 -0.6071  0.5559 -0.0739
11115TIP3   OH254759   1.744   1.117  14.000 -0.0434  0.2670 -0.5468
11115TIP3    H154760   1.733   1.141  13.908 -2.3410 -1.0436 -0.6710
11115TIP3    H254761   1.747   1.201  14.046  3.0057  1.0340 -1.8959
11116TIP3   OH254762   4.181   1.769  16.815  0.3985 -1.3863  0.4664
11116TIP3    H154763   4.172   1.702  16.883  0.0518 -1.8936 -0.0717
11116TIP3    H254764   4.269   1.805  16.828 -0.2442 -0.3023  2.2302
11117TIP3   OH254765   2.236   4.780  10.795 -0.5372 -0.0690  0.5418
11117TIP3    H154766   2.179   4.833  10.851  0.2535  0.2330  1.0850
11117TIP3    H254767   2.311   4.759  10.851 -0.9439 -1.9863  0.4077
11118TIP3   OH254768   1.943   3.113  16.244  0.1156  0.3240  0.4634
11118TIP3    H154769   1.862   3.078  16.207 -0.3637  0.8875  0.9514
11118TIP3    H254770   2.013   3.063  16.202 -0.3380  1.5812 -1.9556
11119TIP3   OH254771   1.084   2.158  13.450  0.5198 -0.4723 -0.3844
11119TIP3    H154772   1.034   2.224  13.498 -1.5945 -1.5734 -0.9385
11119TIP3    H254773   1.148   2.125  13.513  0.5488  0.9693  0.3715
11120TIP3   OH254774   6.721   5.115   3.771  0.0109 -0.2080 -0.1361
11120TIP3    H154775   6.793   5.117   3.835  0.1281 -1.5007 -0.2050
11120TIP3    H254776   6.761   5.080   3.692  0.3038  2.9158 -1.5487
11121TIP3   OH254777   5.758   6.724  14.269 -0.2142  0.5314 -0.3909
11121TIP3    H154778   5.709   6.704  14.349  1.9343 -0.0888  0.8550
11121TIP3    H254779   5.805   6.644  14.248 -0.1803  0.9086 -1.8962
11122TIP3   OH254780   1.437   2.576  13.197  0.5624 -0.0559 -0.4466
11122TIP3    H154781   1.501   2.646  13.182  0.7646 -0.1928 -0.2383
11122TIP3    H254782   1.463   2.506  13.136  0.3563  0.0517 -0.6599
11123TIP3   OH254783   6.156   2.239  16.070  0.2625  0.1820 -1.0249
11123TIP3    H154784   6.083   2.186  16.099  0.5888 -0.4057 -1.2681
11123TIP3    H254785   6.214   2.179  16.023 -0.5673  1.1927 -3.5222
11124TIP3   OH254786   5.084   6.496  16.499  0.2103 -0.4863 -0.5377
11124TIP3    H154787   5.028   6.467  16.570 -0.5399 -1.5239 -1.5282
11124TIP3    H254788   5.151   6.428  16.492 -1.5342 -2.1055 -2.8423
11125TIP3   OH254789   4.163   0.167   6.093 -0.4335 -0.1574 -0.1641
11125TIP3    H154790   4.151   0.252   6.051 -1.7434  0.6716  1.7249
11125TIP3    H254791   4.156   0.103   6.023  2.0616  1.3046 -1.9007
11126TIP3   OH254792   4.645   3.037   6.075  0.2828 -0.4337 -0.2671
11126TIP3    H154793   4.625   3.118   6.121  0.4180 -1.1256  1.0876
11126TIP3    H254794   4.560   2.998   6.055  0.1338 -1.7042  2.3982
11127TIP3   OH254795   2.054   5.153   1.154 -0.2247  0.2354  0.2267
11127TIP3    H154796   2.021   5.083   1.096 -1.9811  1.2944 -0.1159
11127TIP3    H254797   2.099   5.213   1.094  2.7029 -1.2615  0.7022
11128TIP3   OH254798   3.733   3.547  13.830 -0.5598  0.3686  0.7294
11128TIP3    H154799   3.728   3.458  13.863 -0.3357  0.7685  1.8700
11128TIP3    H254800   3.780   3.596  13.897 -1.3699  1.5213  0.4912
11129TIP3   OH254801   4.597   6.419   5.042 -0.3406 -0.6680 -0.1255
11129TIP3    H154802   4.572   6.488   5.103 -1.9441 -1.3698  0.0533
11129TIP3    H254803   4.685   6.392   5.071  0.6242  1.6995 -0.6170
11130TIP3   OH254804   1.517   3.552   6.443  0.0906 -0.4912 -0.7887
11130TIP3    H154805   1.427   3.573   6.468  0.4192 -0.1472  0.1642
11130TIP3    H254806   1.508   3.479   6.382 -0.8978  0.4050 -1.7641
11131TIP3   OH254807   6.253   1.620   4.585  0.2805  0.0973  0.3268
11131TIP3    H154808   6.276   1.533   4.552 -2.0607  0.0022 -1.2743
11131TIP3    H254809   6.337   1.666   4.594  1.4021 -1.6799 -0.6700
11132TIP3   OH254810   4.167   4.927  13.358  0.2898  0.0694 -0.3227
11132TIP3    H154811   4.210   5.011  13.345  0.7588 -0.0775  0.2198
11132TIP3    H254812   4.221   4.882  13.423 -0.8141 -0.0162  0.5728
11133TIP3   OH254813   4.177   2.773  14.408 -0.3248 -0.4617 -0.2786
11133TIP3    H154814   4.203   2.806  14.494 -1.8563 -1.9017  0.7835
11133TIP3    H254815   4.259   2.741  14.369  0.7888  2.2359 -0.3672
11134TIP3   OH254816   5.581   6.354  11.439 -0.4988  0.7572  0.3453
11134TIP3    H154817   5.570   6.371  11.533  0.7375  0.7611  0.5135
11134TIP3    H254818   5.520   6.283  11.420 -0.1821  0.1842  1.3553
11135TIP3   OH254819   3.333   5.904   4.130  0.4229 -0.2323  0.5798
11135TIP3    H154820   3.276   5.956   4.073 -0.1274 -1.0129  0.4044
11135TIP3    H254821   3.362   5.966   4.197  0.9023  0.6550 -0.4027
11136TIP3   OH254822   5.181   2.604  12.505 -0.0295 -0.0098 -0.3155
11136TIP3    H154823   5.181   2.615  12.600 -0.1623  0.8257 -0.4119
11136TIP3    H254824   5.252   2.542  12.488 -0.4407 -0.6897  0.3846
11137TIP3   OH254825   1.356   0.790   4.505 -0.3207  0.1630  0.0418
11137TIP3    H154826   1.276   0.786   4.557 -1.2818  0.1078 -1.3965
11137TIP3    H254827   1.369   0.883   4.489 -0.2187  0.1527  0.0606
11138TIP3   OH254828   1.450   6.692  15.403  0.1876  0.4169 -0.5952
11138TIP3    H154829   1.509   6.734  15.341  1.5095 -0.4818 -0.0034
11138TIP3    H254830   1.378   6.659  15.349  0.8087  0.5133 -1.5125
11139TIP3   OH254831   2.734   2.216   2.826 -0.0263  0.0856 -0.0474
11139TIP3    H154832   2.771   2.303   2.814 -1.3115  0.5179 -1.0921
11139TIP3    H254833   2.751   2.170   2.744  1.2721 -0.9222  0.7495
11140TIP3   OH254834   4.778   3.531   1.423 -0.2179  0.0377  0.1314
11140TIP3    H154835   4.683   3.530   1.432 -0.1734  1.1723  1.0529
11140TIP3    H254836   4.801   3.624   1.423  0.8976 -0.2212  0.0872
11141TIP3   OH254837   4.007   1.073  14.571  0.1477  0.0688 -0.8558
11141TIP3    H154838   4.099   1.046  14.578  0.3366  0.5895 -1.2436
11141TIP3    H254839   3.976   1.033  14.490 -0.2923 -1.0042 -0.1772
11142TIP3   OH254840   3.447   0.238  11.843  0.2822 -0.5975  0.3710
11142TIP3    H154841   3.367   0.228  11.896 -1.4196  2.1345 -1.4189
11142TIP3    H254842   3.421   0.212  11.755  1.1554  0.8580 -0.3561
11143TIP3   OH254843   4.365   4.629  12.669 -0.1079 -0.1563 -0.1898
11143TIP3    H154844   4.429   4.662  12.607  1.3515  0.2253  1.4266
11143TIP3    H254845   4.407   4.553  12.709 -0.4363  0.3811  1.2397
11144TIP3   OH254846   1.110   1.554   4.859  0.5643  0.0012 -0.2554
11144TIP3    H154847   1.088   1.503   4.781  3.3080 -0.9678 -0.4981
11144TIP3    H254848   1.131   1.641   4.827  0.6673 -0.1044 -0.4723
11145TIP3   OH254849   4.156   6.294  17.220  0.4442  0.4244  0.1536
11145TIP3    H154850   4.231   6.245  17.255 -0.5867 -1.3980 -0.0442
11145TIP3    H254851   4.194   6.375  17.187  2.2288 -0.1511  0.6637
11146TIP3   OH254852   4.666   4.963  16.411 -0.1846 -0.2423 -0.5196
11146TIP3    H154853   4.741   5.023  16.417  0.2248 -0.8624  1.0891
11146TIP3    H254854   4.609   4.988  16.484 -0.0475 -1.7056  0.1277
11147TIP3   OH254855   3.121   1.383  11.331 -0.5268  0.0423  0.1556
11147TIP3    H154856   3.168   1.414  11.409  1.0966 -0.0982 -0.7082
11147TIP3    H254857   3.157   1.295  11.315 -0.2071  0.3922 -1.2054
11148TIP3   OH254858   1.793   1.540   1.437  0.1467 -0.1146  0.1223
11148TIP3    H154859   1.793   1.531   1.342  1.3891 -1.0983  0.1838
11148TIP3    H254860   1.742   1.466   1.469  0.5126 -0.3157  0.2481
11149TIP3   OH254861   3.341   3.882   5.715 -0.0425 -0.3030  0.1378
11149TIP3    H154862   3.369   3.929   5.793 -1.0769 -0.7298  0.7841
11149TIP3    H254863   3.249   3.859   5.732 -0.2267 -0.5724 -1.1152
11150TIP3   OH254864   6.702   6.624  16.199  0.1581  0.1243  0.6753
11150TIP3    H154865   6.679   6.623  16.106  2.3589 -1.2932  0.0432
11150TIP3    H254866   6.798   6.632  16.199  0.2215 -0.0897  2.8221
11151TIP3   OH254867   3.225   6.080   6.352  0.3258  0.2506  0.0375
11151TIP3    H154868   3.254   6.170   6.335 -0.4888  0.6246  0.5384
11151TIP3    H254869   3.180   6.085   6.436  0.0588 -0.5811 -0.0457
11152TIP3   OH254870   5.553   1.537   2.287 -1.0093 -0.0486 -0.0035
11152TIP3    H154871   5.488   1.607   2.285  0.0644  0.9614 -0.1066
11152TIP3    H254872   5.567   1.521   2.381  1.9869  3.0260  0.2574
11153TIP3   OH254873   4.369   4.175  15.444 -0.0315 -0.3718  0.1404
11153TIP3    H154874   4.457   4.141  15.428 -0.3541 -1.3126  0.2794
11153TIP3    H254875   4.319   4.147  15.367 -0.5471 -1.1008  0.7296
11154TIP3   OH254876   3.215   2.272   3.875  0.0593 -0.0949  0.0601
11154TIP3    H154877   3.187   2.181   3.888  0.4473 -0.2068  0.1226
11154TIP3    H254878   3.206   2.312   3.961  1.1734 -0.4331  0.3427
11155TIP3   OH254879   1.528   0.138   1.783 -0.2405 -0.3132  0.6096
11155TIP3    H154880   1.556   0.126   1.874  0.6006  0.2347  0.4362
11155TIP3    H254881   1.525   0.233   1.772  0.2668 -0.3772 -0.1099
11156TIP3   OH254882   4.933   3.339  17.333  0.1980 -0.5244 -0.6723
11156TIP3    H154883   4.999   3.285  17.376 -0.2046 -0.6154 -0.1583
11156TIP3    H254884   4.982   3.412  17.296  0.4669 -0.0833  0.5312
11157TIP3   OH254885   3.281   3.107   0.153 -0.7118  0.2608 -0.0813
11157TIP3    H154886   3.244   3.140   0.236 -1.3552  0.0185 -0.2662
11157TIP3    H254887   3.240   3.161   0.086 -0.2175  0.4311 -0.2541
11158TIP3   OH254888   4.357   2.507   2.153 -0.0075 -0.6010 -0.2921
11158TIP3    H154889   4.388   2.544   2.236  0.5674 -1.5269 -0.0846
11158TIP3    H254890   4.323   2.583   2.105  3.0199  0.6363 -0.7492
11159TIP3   OH254891   0.505   0.743  10.630 -0.5680 -0.0249  0.1340
11159TIP3    H154892   0.554   0.814  10.589 -1.4903  0.0804 -0.8199
11159TIP3    H254893   0.493   0.678  10.561 -0.9163 -0.5030  0.6288
11160TIP3   OH254894   0.821   0.279   2.716  0.0261 -0.3751  0.3645
11160TIP3    H154895   0.826   0.244   2.805  2.5515 -0.2846  0.3433
11160TIP3    H254896   0.765   0.356   2.723 -0.0762 -0.5543  1.8036
11161TIP3   OH254897   1.198   2.654  15.244 -0.6585  0.0121  0.3151
11161TIP3    H154898   1.224   2.732  15.194 -0.4089  0.6631  1.4347
11161TIP3    H254899   1.203   2.682  15.335  2.0345 -2.0658  0.9224
11162TIP3   OH254900   0.605   6.026  14.398  0.7429  0.3440 -0.5334
11162TIP3    H154901   0.630   6.030  14.306  1.9215  1.1047 -0.2121
11162TIP3    H254902   0.628   5.938  14.426  2.4696  0.8048 -0.4302
11163TIP3   OH254903   6.339   6.529  11.788 -0.4274 -0.3738  0.0190
11163TIP3    H154904   6.246   6.522  11.766 -0.2070 -1.0827 -0.7766
11163TIP3    H254905   6.367   6.438  11.798  0.2935 -0.1821 -0.2529
11164TIP3   OH254906   0.559   0.285  15.520 -0.1619  0.4019 -0.4219
11164TIP3    H154907   0.617   0.358  15.540 -1.1402  0.6171  1.9268
11164TIP3    H254908   0.562   0.229  15.598 -0.1903 -1.5869 -1.7773
11165TIP3   OH254909   3.386   3.955  14.256  0.0979 -0.4131 -0.1019
11165TIP3    H154910   3.417   4.042  14.281  0.3146 -0.3058 -0.7382
11165TIP3    H254911   3.358   3.965  14.165 -0.1958 -0.9286 -0.0721
11166TIP3   OH254912   4.583   2.596   0.494 -0.2483  0.1314 -0.0024
11166TIP3    H154913   4.652   2.530   0.487 -0.0181  0.4168 -0.4437
11166TIP3    H254914   4.517   2.568   0.430 -0.4134  0.0167  0.2164
11167TIP3   OH254915   3.387   5.272  12.949 -0.5044  0.1259 -0.4308
11167TIP3    H154916   3.424   5.267  13.037 -1.5903  0.1652  0.0488
11167TIP3    H254917   3.463   5.287  12.892  0.0521  2.0476  0.6898
11168TIP3   OH254918   0.228   3.657  16.988  0.2903  0.2078 -0.0667
11168TIP3    H154919   0.135   3.634  16.996  0.4620 -0.3283  0.4350
11168TIP3    H254920   0.268   3.624  17.068  1.2979 -1.4325 -1.1897
11169TIP3   OH254921   0.893   6.056  16.647 -0.3154  0.0113  0.6267
11169TIP3    H154922   0.803   6.068  16.676 -0.2906  1.7946  0.0780
11169TIP3    H254923   0.888   6.047  16.552  0.1005  0.4331  0.5596
11170TIP3   OH254924   2.102   0.760   0.529  0.0575 -0.2068 -0.1404
11170TIP3    H154925   2.085   0.698   0.458 -0.5171  0.9259 -1.0105
11170TIP3    H254926   2.062   0.719   0.606 -0.5627 -0.7892 -0.7535
11171TIP3   OH254927   5.882   6.649   6.300 -0.2209  0.2737 -0.3924
11171TIP3    H154928   5.930   6.599   6.234  1.5127  0.6814  0.5021
11171TIP3    H254929   5.893   6.740   6.274 -0.6981  0.3619 -0.2900
11172TIP3   OH254930   4.355   3.178  14.397  0.2690 -0.0774  0.3914
11172TIP3    H154931   4.289   3.165  14.328  2.0341 -1.1884 -1.1778
11172TIP3    H254932   4.345   3.270  14.422 -1.1044  0.0817 -0.6106
11173TIP3   OH254933   5.836   6.057   1.994 -0.6332 -0.0457 -0.1094
11173TIP3    H154934   5.927   6.044   1.968 -0.9371 -0.1489 -1.1744
11173TIP3    H254935   5.821   6.152   1.983  0.1804  0.5302  2.9584
11174TIP3   OH254936   6.127   0.579  13.407 -0.2287 -0.6617 -0.7345
11174TIP3    H154937   6.191   0.542  13.346  0.1915 -1.2093  0.0260
11174TIP3    H254938   6.161   0.557  13.494 -1.6189 -1.2721 -0.3103
11175TIP3   OH254939   0.210   6.649   3.397  0.0446  0.3318  0.2911
11175TIP3    H154940   0.246   6.585   3.335 -3.0758 -0.0661 -1.3129
11175TIP3    H254941   0.174   6.595   3.468 -0.7946  0.3938 -0.0694
11176TIP3   OH254942   3.015   6.116  13.644  0.1448 -0.2474 -0.4087
11176TIP3    H154943   3.065   6.197  13.653 -0.4057  0.0355  0.2367
11176TIP3    H254944   3.056   6.069  13.571 -0.0240  0.9835 -1.3252
11177TIP3   OH254945   0.885   6.086   2.157 -0.1196  0.2589 -0.0659
11177TIP3    H154946   0.928   6.013   2.200  0.9088  0.8858  0.0005
11177TIP3    H254947   0.804   6.049   2.121  0.1099 -0.7676  0.4523
11178TIP3   OH254948   1.576   4.443  11.737 -0.0938  0.3307  0.1888
11178TIP3    H154949   1.652   4.490  11.702 -0.1912 -0.2047 -0.7746
11178TIP3    H254950   1.611   4.393  11.810  0.4054  0.4135  0.0135
11179TIP3   OH254951   2.283   1.747  12.253 -0.0367  0.1338 -0.1199
11179TIP3    H154952   2.351   1.814  12.258  0.0009  0.0964 -0.1258
11179TIP3    H254953   2.267   1.723  12.344  0.8263 -0.7308 -0.1748
11180TIP3   OH254954   0.011   2.395   2.883 -0.0313 -0.1693  0.3227
11180TIP3    H154955  -0.071   2.351   2.905 -1.1792  1.8153  0.2892
11180TIP3    H254956   0.030   2.367   2.793 -2.6532  1.9903 -1.0492
11181TIP3   OH254957   3.057   5.594  14.475  0.1737  0.0532 -0.4307
11181TIP3    H154958   3.033   5.654  14.404  0.0298  0.7799  0.2133
11181TIP3    H254959   3.014   5.631  14.552  0.5405 -0.5816  0.0818
11182TIP3   OH254960   0.969   2.227   0.764 -1.0426  0.2076 -0.5544
11182TIP3    H154961   1.022   2.169   0.819 -0.8525  0.2444 -0.7002
11182TIP3    H254962   1.032   2.279   0.715 -1.1945 -0.4727 -1.5027
11183TIP3   OH254963   5.907   6.534   0.426 -0.0571  0.2017  0.2045
11183TIP3    H154964   5.979   6.597   0.417  0.4745 -0.5733 -1.1250
11183TIP3    H254965   5.828   6.586   0.411  0.3254  0.7151 -0.0558
11184TIP3   OH254966   4.611   0.568  14.650  0.5770 -0.2840 -0.4426
11184TIP3    H154967   4.678   0.550  14.717  1.3213 -0.4001 -1.2063
11184TIP3    H254968   4.529   0.540  14.691  0.6783  1.7470  1.2966
11185TIP3   OH254969   5.466   0.456  13.143 -0.2330  0.2787  0.6941
11185TIP3    H154970   5.444   0.472  13.235  2.4013 -0.8573  1.6224
11185TIP3    H254971   5.542   0.511  13.127 -1.3664  1.3845 -1.2479
11186TIP3   OH254972   2.279   5.732   1.502 -0.1531 -0.4377  0.3669
11186TIP3    H154973   2.361   5.774   1.527 -0.2858 -0.1873  0.3849
11186TIP3    H254974   2.304   5.669   1.435  0.1096 -0.6412  0.6548
11187TIP3   OH254975   6.110   1.479  11.404 -0.4383 -0.5299 -0.4862
11187TIP3    H154976   6.053   1.548  11.439 -0.7959 -1.2210  0.3072
11187TIP3    H254977   6.179   1.527  11.357 -0.2402  0.4116  0.7077
11188TIP3   OH254978   5.095   6.422   1.527  0.0271  0.2720 -0.1328
11188TIP3    H154979   5.151   6.452   1.598 -0.5082 -1.3984  1.0532
11188TIP3    H254980   5.149   6.361   1.477 -0.0454  0.3384 -0.2927
11189TIP3   OH254981   5.142   3.923   2.355  0.3058  0.2448 -0.3352
11189TIP3    H154982   5.113   3.873   2.432  1.7725 -0.0510  0.0572
11189TIP3    H254983   5.111   3.872   2.280 -0.1965 -0.0425  0.0678
11190TIP3   OH254984   6.116   3.255   6.437 -0.0828  0.1614 -0.2031
11190TIP3    H154985   6.055   3.226   6.505 -1.8630 -1.9917 -2.5340
11190TIP3    H254986   6.200   3.219   6.464 -0.2413  1.1362  1.8488
11191TIP3   OH254987   0.105   5.032   4.338  0.7506 -0.6994 -0.1586
11191TIP3    H154988   0.149   5.084   4.271 -0.7686 -0.1491 -0.7708
11191TIP3    H254989   0.013   5.032   4.312 -0.9539  3.6373  4.3826
11192TIP3   OH254990   4.960   3.288  12.466 -0.2620 -0.8949 -0.6055
11192TIP3    H154991   4.873   3.253  12.446 -0.1771 -1.9917  0.7887
11192TIP3    H254992   4.980   3.255  12.553  0.9622  0.5342 -0.2931
11193TIP3   OH254993   3.090   0.656  13.675  0.4674  0.8838  0.2683
11193TIP3    H154994   3.149   0.591  13.714 -0.4681 -2.8417 -3.7574
11193TIP3    H254995   3.002   0.620  13.688 -0.0904  1.2679 -1.9939
11194TIP3   OH254996   0.452   0.022   5.558 -0.2864 -0.5828  0.2375
11194TIP3    H154997   0.488   0.049   5.642  2.5142 -1.6672 -0.5032
11194TIP3    H254998   0.458  -0.073   5.559 -2.5854 -0.7935 -0.2703
11195TIP3   OH254999   3.963   3.315   2.918  0.3388 -0.0263  0.1510
11195TIP3    H155000   3.871   3.294   2.907  0.6781 -1.3551 -0.2777
11195TIP3    H255001   3.971   3.405   2.885 -1.0015  0.5494  1.3107
11196TIP3   OH255002   1.295   5.084  13.650 -0.0257 -0.4009 -0.1304
11196TIP3    H155003   1.355   5.156  13.629  1.0459 -1.4983 -0.9606
11196TIP3    H255004   1.291   5.032  13.569 -3.3526  0.4407 -0.6884
11197TIP3   OH255005   1.194   6.647  12.409 -0.0311 -0.2751 -0.5365
11197TIP3    H155006   1.134   6.671  12.480 -0.8063  0.3170 -1.3757
11197TIP3    H255007   1.228   6.730  12.377  0.1424 -0.5266 -1.0152
11198TIP3   OH255008   0.319   2.062  14.749 -0.2161  0.2001  0.4838
11198TIP3    H155009   0.278   2.140  14.786 -1.3564  1.3535 -2.8543
11198TIP3    H255010   0.413   2.079  14.754 -0.2834  0.2983  2.5849
11199TIP3   OH255011   0.389   6.131  15.205  0.2948  0.4210 -0.1245
11199TIP3    H155012   0.326   6.088  15.148  1.0054  0.3470 -0.8665
11199TIP3    H255013   0.345   6.136  15.290 -0.8181  0.6263 -0.6960
11200TIP3   OH255014   2.032   1.106   1.519  0.1985  0.1107 -0.5548
11200TIP3    H155015   2.105   1.096   1.581  0.4628 -0.9435 -1.0207
11200TIP3    H255016   2.073   1.102   1.433 -0.0537  2.4675 -0.8387
11201TIP3   OH255017   4.843   6.335   3.386 -0.6308  0.0081 -0.0733
11201TIP3    H155018   4.862   6.428   3.369 -0.1062 -0.3420 -1.5082
11201TIP3    H255019   4.927   6.299   3.415 -0.2927 -0.4569 -1.5678
11202TIP3   OH255020   5.760   5.015  15.781  0.0635 -0.2852 -0.7985
11202TIP3    H155021   5.738   5.102  15.813 -1.7358 -0.6418 -0.9442
11202TIP3    H255022   5.854   5.017  15.766  0.0678  1.5817 -0.6752
11203TIP3   OH255023   3.791   0.917  12.844 -0.4094  0.3204  0.1685
11203TIP3    H155024   3.715   0.974  12.835 -2.2806 -1.9277  0.6173
11203TIP3    H255025   3.811   0.917  12.938  1.0405  1.8976 -0.0936
11204TIP3   OH255026   4.376   6.373  15.040 -0.2425 -0.8978 -0.4391
11204TIP3    H155027   4.296   6.418  15.014 -0.2562 -1.7846 -2.0820
11204TIP3    H255028   4.348   6.283  15.058  0.6301 -1.8126 -3.1764
11205TIP3   OH255029   2.595   1.736   0.066 -0.0337 -0.3730 -0.5150
11205TIP3    H155030   2.622   1.761  -0.023 -0.0950  2.1694  0.1073
11205TIP3    H255031   2.666   1.766   0.122 -1.6901  1.6804  0.6337
11206TIP3   OH255032   5.094   6.276   5.661  0.0718 -0.0260  0.2587
11206TIP3    H155033   5.016   6.288   5.715  0.7548 -1.6461  1.7142
11206TIP3    H255034   5.105   6.359   5.615 -2.3647  0.3093  0.1730
11207TIP3   OH255035   4.442   1.148   0.506 -0.1218 -0.6670  0.4107
11207TIP3    H155036   4.490   1.065   0.500  1.2069 -0.0614  1.8593
11207TIP3    H255037   4.355   1.123   0.539  0.0260 -1.5509  0.1598
11208TIP3   OH255038   2.121   6.066   0.104 -0.3340 -0.3115 -0.4078
11208TIP3    H155039   2.079   5.981   0.091 -1.8995  0.5156 -1.0834
11208TIP3    H255040   2.117   6.080   0.199 -1.5831 -0.2770 -0.4493
11209TIP3   OH255041   0.092   0.051   2.148  0.0983  0.3776  0.1040
11209TIP3    H155042   0.145   0.047   2.068 -0.4759 -2.9123 -0.2693
11209TIP3    H255043   0.155   0.069   2.218  0.9602  1.0185 -0.8042
11210TIP3   OH255044   3.705   1.521   6.359  0.2142 -0.2704  0.0587
11210TIP3    H155045   3.694   1.597   6.301  0.2891 -0.6115 -0.4137
11210TIP3    H255046   3.618   1.483   6.366  0.4074 -0.9351 -0.8359
11211TIP3   OH255047   4.626   2.869   0.695  0.2278 -0.1724 -0.5030
11211TIP3    H155048   4.625   2.808   0.769  1.2011  2.0666  1.4880
11211TIP3    H255049   4.534   2.883   0.674 -0.1404  0.1220  1.1803
11212TIP3   OH255050   4.651   5.598   5.463  1.0625 -0.1400 -0.5232
11212TIP3    H155051   4.634   5.674   5.519  0.7681 -0.1164 -0.6432
11212TIP3    H255052   4.631   5.629   5.375  1.0206 -0.3336 -0.5811
11213TIP3   OH255053   1.658   1.034   0.966  0.3846  0.6318  0.3157
11213TIP3    H155054   1.749   1.065   0.966 -0.1096  2.4954  3.2462
11213TIP3    H255055   1.664   0.942   0.994  1.4327  0.2525 -1.0702
11214TIP3   OH255056   2.008   2.829   1.013  0.1588  0.5535  0.8634
11214TIP3    H155057   1.975   2.916   1.036  1.9279  1.2865  0.7616
11214TIP3    H255058   2.082   2.815   1.071 -0.3897 -1.1211  1.2059
11215TIP3   OH255059   3.494   3.020  14.550  0.1559  0.6231  0.0852
11215TIP3    H155060   3.515   3.109  14.522 -0.3338  0.6141 -0.3467
11215TIP3    H255061   3.566   2.994  14.608  0.5689  1.1037 -0.2070
11216TIP3   OH255062   1.829   1.178   5.040  0.4048  0.4833  0.4774
11216TIP3    H155063   1.735   1.161   5.046  0.2049  1.5206  0.3361
11216TIP3    H255064   1.843   1.260   5.087  1.2539  0.3022  0.5669
11217TIP3   OH255065   4.961   6.388   1.165  0.2695  0.6268  0.2373
11217TIP3    H155066   5.009   6.337   1.230 -1.1922 -0.5220  0.4713
11217TIP3    H255067   4.946   6.327   1.093 -0.4501  1.0899 -0.0112
11218TIP3   OH255068   0.999   1.435  15.985 -0.3392  0.2304 -0.6417
11218TIP3    H155069   1.051   1.366  16.026 -0.9557 -1.4426 -2.5078
11218TIP3    H255070   0.915   1.394  15.966 -0.7030  1.4508 -1.8752
11219TIP3   OH255071   1.684   1.943   5.716  0.3142  0.0081 -0.4901
11219TIP3    H155072   1.701   2.036   5.732 -1.4742  0.5134 -1.1920
11219TIP3    H255073   1.729   1.897   5.786 -1.4934  1.6324  1.9189
11220TIP3   OH255074   1.080   3.927  12.243  0.6944  0.7186 -0.2127
11220TIP3    H155075   1.076   4.015  12.206  2.5517  2.4267  3.2234
11220TIP3    H255076   1.173   3.907  12.247  0.3094 -1.8677 -1.6218
11221TIP3   OH255077   0.256   4.805  11.465 -0.2923 -0.0659  0.1894
11221TIP3    H155078   0.223   4.878  11.411  1.1529 -0.6114 -1.5245
11221TIP3    H255079   0.343   4.833  11.493 -0.1345 -0.7153  0.3665
11222TIP3   OH255080   1.838   2.481  12.778 -0.4789  0.0803 -0.4367
11222TIP3    H155081   1.792   2.446  12.702 -1.1693  0.9583 -0.4483
11222TIP3    H255082   1.881   2.406  12.818 -1.2600 -0.6224 -0.9004
11223TIP3   OH255083   4.434   3.527  13.582 -0.3744 -0.4153  0.6240
11223TIP3    H155084   4.398   3.450  13.539 -1.1522  0.8855 -1.1415
11223TIP3    H255085   4.521   3.539  13.543 -0.2977 -0.3140  0.8187
11224TIP3   OH255086   4.563   4.112   4.645  0.2920 -0.3700 -0.0565
11224TIP3    H155087   4.509   4.189   4.658  0.6754  0.2335 -1.7399
11224TIP3    H255088   4.653   4.146   4.640  0.4921 -0.9465 -0.5558
11225TIP3   OH255089   5.187   6.630   2.863 -0.4883  0.3653  0.2513
11225TIP3    H155090   5.203   6.542   2.830 -1.7618  0.1927  0.0161
11225TIP3    H255091   5.149   6.677   2.788  0.0616  1.0716  0.4099
11226TIP3   OH255092   2.899   6.524  13.428 -0.3874 -0.3499  0.4885
11226TIP3    H155093   2.834   6.587  13.461 -0.5406 -0.7676  1.0004
11226TIP3    H255094   2.849   6.443  13.417 -0.1883 -0.3829 -0.1532
11227TIP3   OH255095   4.780   3.338   3.794  0.3438 -0.0499  0.0781
11227TIP3    H155096   4.854   3.345   3.733 -0.8199  0.7846 -1.3215
11227TIP3    H255097   4.745   3.251   3.779  0.6432 -0.2058  0.2719
11228TIP3   OH255098   2.432   2.704   4.909  0.0257 -0.5144 -0.4049
11228TIP3    H155099   2.340   2.729   4.913  0.7983  2.9178 -0.9768
11228TIP3    H255100   2.446   2.678   4.818  0.0107  0.9342 -0.8429
11229TIP3   OH255101   3.128   4.977   4.834 -0.0542 -0.2237  0.0767
11229TIP3    H155102   3.110   4.893   4.792 -0.7605 -0.3856  0.6790
11229TIP3    H255103   3.055   5.033   4.809  0.7313  0.4246 -0.8360
11230TIP3   OH255104   5.759   1.796   4.246 -0.4414  0.2324  0.0633
11230TIP3    H155105   5.850   1.823   4.257  0.5591 -3.2966  2.2359
11230TIP3    H255106   5.750   1.781   4.151  2.4909 -2.5474  0.0225
11231TIP3   OH255107   6.210   2.920   0.519  0.0271  0.2032 -0.5747
11231TIP3    H155108   6.156   2.964   0.454  0.7508  1.5001 -0.3417
11231TIP3    H255109   6.149   2.865   0.568 -0.5817 -0.5773 -2.1333
11232TIP3   OH255110   5.771   0.479   6.529  0.3461 -0.2288 -0.2511
11232TIP3    H155111   5.781   0.460   6.436 -1.6335  1.6849 -0.9426
11232TIP3    H255112   5.800   0.570   6.539  2.0946 -0.8942  1.3733
11233TIP3   OH255113   6.258   3.781  17.142  0.1373  0.6457 -0.2361
11233TIP3    H155114   6.193   3.720  17.106  0.4064  0.7618 -0.9320
11233TIP3    H255115   6.207   3.857  17.169 -0.3490 -0.3270  1.6951
11234TIP3   OH255116   2.105   5.308   6.807  0.7401  0.3786  0.0823
11234TIP3    H155117   2.160   5.249   6.756 -0.8524 -0.4811 -0.7160
11234TIP3    H255118   2.083   5.379   6.747 -0.7405 -0.3894 -0.3553
11235TIP3   OH255119   1.323   2.388   4.809  0.1240  0.2387 -0.0202
11235TIP3    H155120   1.231   2.396   4.836 -0.0084 -1.1563 -0.0305
11235TIP3    H255121   1.363   2.330   4.874  1.0777  1.0313  0.1291
11236TIP3   OH255122   6.409   2.539  17.148  0.3333  0.1136  0.1477
11236TIP3    H155123   6.393   2.472  17.214  0.5755 -0.3205 -0.2256
11236TIP3    H255124   6.494   2.515  17.110  0.9735  1.2898  0.7946
11237TIP3   OH255125   4.403   2.912   4.929 -0.6717  0.5012  0.0694
11237TIP3    H155126   4.328   2.960   4.895  0.4082  0.2585 -3.0540
11237TIP3    H255127   4.426   2.851   4.858  1.6492 -0.3603  1.4439
11238TIP3   OH255128   3.962   5.162   1.541  0.1829 -0.9220  0.1484
11238TIP3    H155129   3.953   5.103   1.467  0.1058 -2.2287  1.1644
11238TIP3    H255130   3.968   5.105   1.617 -0.0137  0.3823  1.1882
11239TIP3   OH255131   1.582   5.756  15.841 -0.1058  0.2366 -0.1503
11239TIP3    H155132   1.655   5.750  15.902  0.2470 -0.6044 -0.6367
11239TIP3    H255133   1.528   5.679  15.859 -0.9046  0.8713  0.2317
11240TIP3   OH255134   6.364   0.490  12.502 -0.3713 -0.0538 -0.3749
11240TIP3    H155135   6.329   0.425  12.563 -0.3666  0.0911 -0.2174
11240TIP3    H255136   6.335   0.460  12.416 -1.5082  0.4599 -0.1834
11241TIP3   OH255137   5.655   2.934   3.903  0.1170 -0.1319 -0.1773
11241TIP3    H155138   5.642   2.976   3.817  1.7929 -0.1731 -0.4879
11241TIP3    H255139   5.705   2.999   3.953 -0.0230 -0.4993  0.4381
11242TIP3   OH255140   5.556   2.635  16.051 -0.6863 -0.0115  0.3252
11242TIP3    H155141   5.527   2.725  16.034 -1.7504 -0.4702 -0.3603
11242TIP3    H255142   5.500   2.604  16.122  0.4556  0.2292  1.3754
11243TIP3   OH255143   6.672   1.596   3.263 -0.4623 -0.4398  0.4436
11243TIP3    H155144   6.751   1.649   3.250 -0.7466 -0.1148 -0.0054
11243TIP3    H255145   6.629   1.596   3.177  0.1042 -2.3604  0.1072
11244TIP3   OH255146   0.564   5.043   4.163 -0.2797  0.4565 -0.1421
11244TIP3    H155147   0.517   5.127   4.164 -1.5202 -0.1696  2.4022
11244TIP3    H255148   0.656   5.068   4.151 -0.7294  2.1044 -0.4551
11245TIP3   OH255149   4.213   6.757  14.708  0.1686 -0.0860 -0.3810
11245TIP3    H155150   4.249   6.673  14.680  1.4764 -0.0446  1.0695
11245TIP3    H255151   4.129   6.734  14.748  0.6149 -0.7552  0.2037
11246TIP3   OH255152   2.706   5.042   1.020 -0.3636  0.2947 -0.0007
11246TIP3    H155153   2.739   5.107   1.081  0.6257 -0.6669  0.5230
11246TIP3    H255154   2.702   5.088   0.936 -1.5805  1.5795  0.7127
11247TIP3   OH255155   1.741   6.653  13.966  0.5660 -0.2179 -1.0059
11247TIP3    H155156   1.775   6.568  13.936  0.7067 -0.0833 -1.2364
11247TIP3    H255157   1.695   6.688  13.890  0.6634 -0.0079 -0.9688
11248TIP3   OH255158   5.930   0.629  16.005  0.5903  0.7259 -0.1796
11248TIP3    H155159   6.025   0.621  15.996  0.5884  2.5028 -4.2385
11248TIP3    H255160   5.895   0.587  15.926 -2.3036 -2.0440  2.3056
11249TIP3   OH255161   0.435   0.669  16.296  0.5152  0.1812 -0.5483
11249TIP3    H155162   0.450   0.703  16.207 -3.6720  0.3530 -1.3923
11249TIP3    H255163   0.463   0.739  16.354  1.5062  0.8586 -1.7933
11250TIP3   OH255164   6.299   4.066  12.636  0.3257  0.4101  0.2983
11250TIP3    H155165   6.208   4.093  12.628 -0.4248 -1.7659  0.9019
11250TIP3    H255166   6.343   4.108  12.562 -1.7607 -0.8800 -1.8053
11251TIP3   OH255167   1.662   3.245  12.437  0.5070 -0.0233 -0.4119
11251TIP3    H155168   1.629   3.175  12.382  0.6746 -0.2921 -0.1727
11251TIP3    H255169   1.678   3.318  12.376  1.1067 -0.4598 -0.7884
11252TIP3   OH255170   2.629   2.919   4.969 -0.0315 -0.0476 -0.1518
11252TIP3    H155171   2.569   2.985   4.934 -1.0331 -0.8410  0.0248
11252TIP3    H255172   2.580   2.837   4.966  1.3208 -0.8809 -0.7436
11253TIP3   OH255173   2.939   1.863  12.989  0.0703  0.5112 -0.0649
11253TIP3    H155174   2.921   1.769  12.989  3.6808 -0.3187 -0.1971
11253TIP3    H255175   2.871   1.900  13.046 -1.0395 -2.2553  0.5759
11254TIP3   OH255176   5.016   1.371  16.399 -0.1204 -0.8947 -0.5781
11254TIP3    H155177   5.076   1.443  16.378 -0.1685 -0.1853  1.4592
11254TIP3    H255178   4.982   1.394  16.486 -0.6788 -3.0547 -0.1864
11255TIP3   OH255179   1.217   3.812  16.139  0.0873 -0.1076  0.5508
11255TIP3    H155180   1.154   3.807  16.211  0.5288 -0.8043  0.8993
11255TIP3    H255181   1.201   3.731  16.089 -1.1619  0.9996 -0.9530
11256TIP3   OH255182   4.502   1.889  14.723 -0.0703  0.4478  0.4842
11256TIP3    H155183   4.503   1.796  14.742 -2.3375  0.7867  2.6668
11256TIP3    H255184   4.453   1.928  14.794 -0.1564  3.2056 -0.9531
11257TIP3   OH255185   6.363   5.402  13.498  0.1274 -0.4327 -0.3441
11257TIP3    H155186   6.345   5.331  13.436 -1.1794 -1.2704  0.9290
11257TIP3    H255187   6.455   5.391  13.521  0.0927 -1.3608 -0.6072
11258TIP3   OH255188   6.305   6.556  15.873 -0.3477 -0.1267  0.0047
11258TIP3    H155189   6.250   6.633  15.883 -0.2174  0.0354 -0.4928
11258TIP3    H255190   6.275   6.496  15.940 -0.0298  0.6036  0.8164
11259TIP3   OH255191   4.119   6.265   5.162  0.5340  0.8553 -0.2533
11259TIP3    H155192   4.029   6.292   5.141 -0.4813 -1.5165  0.7088
11259TIP3    H255193   4.169   6.347   5.162 -0.8260  1.9198 -4.2628
11260TIP3   OH255194   5.414   2.465  17.323  0.0096 -0.2538  0.2559
11260TIP3    H155195   5.372   2.525  17.384 -0.3836 -0.0419 -0.2176
11260TIP3    H255196   5.506   2.492  17.322  0.1814 -0.7557  1.3427
11261TIP3   OH255197   4.452   0.770  16.395  0.5083  0.0414 -0.2817
11261TIP3    H155198   4.408   0.849  16.425 -0.5006 -0.3934 -0.5423
11261TIP3    H255199   4.470   0.720  16.474 -1.4989 -0.7793 -0.2774
11262TIP3   OH255200   2.830   1.729  16.159  0.0982  0.7425  0.4107
11262TIP3    H155201   2.840   1.824  16.167 -0.3080  0.7342  1.2022
11262TIP3    H255202   2.912   1.694  16.194 -0.4293  0.7862  1.7884
11263TIP3   OH255203   4.850   5.610   3.020 -0.3310 -0.7166  0.1155
11263TIP3    H155204   4.791   5.543   3.055 -1.7352 -0.7226 -2.0823
11263TIP3    H255205   4.927   5.561   2.989 -0.2508 -1.0009  0.7486
11264TIP3   OH255206   0.227   1.813  15.425 -0.8360 -0.0783  0.4419
11264TIP3    H155207   0.314   1.815  15.384 -0.5378 -0.9004  1.0208
11264TIP3    H255208   0.235   1.870  15.501  0.3543 -2.9791  2.6733
11265TIP3   OH255209   3.484   2.692   3.252  0.9391 -0.1607 -0.4309
11265TIP3    H155210   3.518   2.687   3.341 -1.2179 -1.5142  0.3980
11265TIP3    H255211   3.513   2.778   3.220  1.1723  0.6761  1.8418
11266TIP3   OH255212   1.295   6.602   1.857 -0.2954 -0.1397 -0.2482
11266TIP3    H155213   1.328   6.656   1.929 -0.1958  0.9099 -1.0523
11266TIP3    H255214   1.207   6.636   1.840  0.7079  1.6502 -2.4868
11267TIP3   OH255215   2.667   4.777   3.705 -0.1735 -0.1739  0.8952
11267TIP3    H155216   2.739   4.827   3.665 -0.8192  0.2315  0.2061
11267TIP3    H255217   2.627   4.731   3.632 -1.1872  0.3374  1.1151
11268TIP3   OH255218   5.041   1.352  13.839  0.4089  0.3948  0.3737
11268TIP3    H155219   5.022   1.334  13.931 -1.0564  1.6035  0.3442
11268TIP3    H255220   5.127   1.395  13.841  0.9166 -0.5954  1.0344
11269TIP3   OH255221   0.051   2.649   2.421 -0.5171  0.4634  0.6775
11269TIP3    H155222   0.032   2.561   2.455 -0.2815  0.1270 -0.0364
11269TIP3    H255223   0.119   2.634   2.355 -1.1987  1.0659 -0.1653
11270TIP3   OH255224   1.654   3.851  11.179  0.0631 -0.2446 -0.2445
11270TIP3    H155225   1.604   3.846  11.098  1.3400  0.5312 -1.1129
11270TIP3    H255226   1.737   3.891  11.154 -0.0624  1.4049  1.7122
11271TIP3   OH255227   4.612   4.721  15.697  0.0279 -0.1001 -0.3655
11271TIP3    H155228   4.685   4.693  15.752  0.0571  1.1085  0.2427
11271TIP3    H255229   4.636   4.693  15.608  1.0860  0.0234 -0.1231
11272TIP3   OH255230   4.093   6.360   6.024  0.0027  0.4858  0.2084
11272TIP3    H155231   4.058   6.430   5.970 -0.5375  1.0465  1.2585
11272TIP3    H255232   4.032   6.354   6.098  0.8298 -0.1228  0.8568
11273TIP3   OH255233   5.034   0.059   1.869 -0.5456 -0.2652  0.1204
11273TIP3    H155234   5.081   0.118   1.811 -2.3151  0.2570 -0.8795
11273TIP3    H255235   4.953   0.105   1.890 -0.9626 -1.4055  1.1711
11274TIP3   OH255236   1.041   6.548  13.516 -0.1239  0.5202 -0.1534
11274TIP3    H155237   1.032   6.637  13.548  1.5785  0.7588 -0.2510
11274TIP3    H255238   1.131   6.523  13.537  0.1354 -0.3849 -2.0363
11275TIP3   OH255239   1.335   3.387   3.364  0.1108 -0.1346 -0.1534
11275TIP3    H155240   1.257   3.443   3.368  0.1831 -0.0780  0.6848
11275TIP3    H255241   1.358   3.385   3.271 -0.2121  0.7819 -0.2640
11276TIP3   OH255242   3.908   6.594  15.834  0.0146 -0.4842  0.3611
11276TIP3    H155243   3.866   6.552  15.759 -0.1673  0.6657 -0.2027
11276TIP3    H255244   3.853   6.572  15.909 -1.0724  0.2186 -0.2147
11277TIP3   OH255245   6.635   6.130   2.199 -0.3306  0.0223 -0.1649
11277TIP3    H155246   6.584   6.073   2.141  0.5413 -0.8670 -0.0741
11277TIP3    H255247   6.570   6.172   2.255 -1.1077  0.1833 -1.1492
11278TIP3   OH255248   1.058   2.153  15.016 -0.6015  0.0299  0.1838
11278TIP3    H155249   1.148   2.168  15.047  0.0968 -1.2104 -1.1201
11278TIP3    H255250   1.026   2.081  15.069 -0.6935  0.2362  0.4077
11279TIP3   OH255251   2.105   3.004  10.956  0.3306 -0.4214  0.6163
11279TIP3    H155252   2.125   2.957  11.036 -2.0240  1.7404  2.6560
11279TIP3    H255253   2.045   2.947  10.909 -2.0296  0.1211  2.7669
11280TIP3   OH255254   6.758   2.575  13.291  0.0148  0.4729 -0.1324
11280TIP3    H155255   6.785   2.642  13.353 -1.8467  1.5498 -0.4170
11280TIP3    H255256   6.703   2.621  13.228 -0.5542 -1.1439 -0.8721
11281TIP3   OH255257   5.368   0.486  13.403  0.1980  0.0916  0.3910
11281TIP3    H155258   5.378   0.426  13.477  0.4204 -0.5712 -0.1691
11281TIP3    H255259   5.355   0.572  13.444  2.3886  0.1011  1.2123
11282TIP3   OH255260   0.025   3.358  16.498  0.1652 -0.5717 -0.0936
11282TIP3    H155261   0.019   3.448  16.532 -1.0640 -0.2829 -0.9597
11282TIP3    H255262   0.022   3.303  16.576  1.3896  0.1342  0.4861
11283TIP3   OH255263   6.184   4.856  16.557 -0.1120 -0.3031 -0.4850
11283TIP3    H155264   6.186   4.872  16.463 -0.8620 -1.1646 -0.6595
11283TIP3    H255265   6.227   4.772  16.569 -0.9478 -0.7091 -0.1940
11284TIP3   OH255266   3.483   2.157   4.053 -0.1486  0.4915  0.1500
11284TIP3    H155267   3.418   2.225   4.036  0.6275  1.0141 -0.7612
11284TIP3    H255268   3.552   2.201   4.102  0.8706  0.6536 -1.3721
11285TIP3   OH255269   6.125   5.615   2.551  0.1269  0.3307  0.2695
11285TIP3    H155270   6.093   5.703   2.530  2.3677  0.4374 -3.7745
11285TIP3    H255271   6.047   5.563   2.565 -1.3811  2.3754 -0.0932
11286TIP3   OH255272   3.036   1.902   5.116  0.0560  0.0903  0.5548
11286TIP3    H155273   2.989   1.905   5.032  0.3947 -1.4770  0.2756
11286TIP3    H255274   3.075   1.989   5.124  2.2040 -0.4525 -2.2436
11287TIP3   OH255275   2.649   0.835  13.974  0.3762 -0.1514  0.6151
11287TIP3    H155276   2.580   0.901  13.973 -0.0962 -0.6190 -1.1965
11287TIP3    H255277   2.730   0.885  13.966  0.1039  0.2846  0.5389
11288TIP3   OH255278   2.501   3.665   4.152  0.1677  0.9157 -0.0887
11288TIP3    H155279   2.550   3.725   4.208  0.6163 -0.3026  0.8791
11288TIP3    H255280   2.562   3.644   4.081  0.7636  0.1194  0.6229
11289TIP3   OH255281   3.212   5.091   2.708 -0.0149 -0.1866  0.3978
11289TIP3    H155282   3.222   5.137   2.625  0.5330  0.9135  1.0483
11289TIP3    H255283   3.125   5.051   2.703 -1.0198  1.8897  0.2487
11290TIP3   OH255284   4.888   4.626  12.849 -0.1454  0.0285  0.2174
11290TIP3    H155285   4.806   4.665  12.820  0.3315  0.7990 -0.1436
11290TIP3    H255286   4.866   4.536  12.872 -0.9588  0.0416 -0.4896
11291TIP3   OH255287   6.685   6.592  15.113  0.3150  0.2386  0.1119
11291TIP3    H155288   6.702   6.683  15.138  0.9700  0.7328 -1.9250
11291TIP3    H255289   6.770   6.548  15.121  0.0343 -0.1843  0.9368
11292TIP3   OH255290   5.421   3.358   1.017 -0.1027  0.2655  0.3307
11292TIP3    H155291   5.386   3.318   0.937  0.1237 -1.1682  0.9124
11292TIP3    H255292   5.363   3.432   1.033 -0.4761  0.2624 -0.8651
11293TIP3   OH255293   0.551   5.388  16.482 -0.1426  0.1842  0.5090
11293TIP3    H155294   0.622   5.450  16.461 -0.9401  1.6020  1.8148
11293TIP3    H255295   0.571   5.311  16.429  1.2890  1.2814 -0.6528
11294TIP3   OH255296   2.438   3.386   2.074  0.5663  0.0547 -0.4236
11294TIP3    H155297   2.522   3.383   2.118  1.5624  0.1975 -2.2189
11294TIP3    H255298   2.425   3.478   2.051  0.8247 -0.2073 -1.7339
11295TIP3   OH255299   4.921   3.758   0.949 -0.1647  0.2929  0.1365
11295TIP3    H155300   4.832   3.782   0.923 -0.0487 -0.0402 -0.5728
11295TIP3    H255301   4.910   3.712   1.032 -0.8199 -1.2174 -0.7596
11296TIP3   OH255302   0.947   2.286  12.496  0.7102  0.0402  0.5790
11296TIP3    H155303   0.864   2.248  12.525 -0.7896 -0.0674 -3.2929
11296TIP3    H255304   0.987   2.218  12.442  1.7786  1.1785 -0.1231
11297TIP3   OH255305   4.712   6.483  15.218 -0.1052 -0.6111  0.4423
11297TIP3    H155306   4.764   6.405  15.197 -1.0844 -1.1348 -0.0986
11297TIP3    H255307   4.774   6.542  15.260  0.8976 -1.2734 -0.0623
11298TIP3   OH255308   1.486   5.465  11.829 -0.3281 -0.0031  0.2968
11298TIP3    H155309   1.548   5.535  11.848 -0.5100  0.1027  0.5019
11298TIP3    H255310   1.453   5.438  11.914 -2.5540  1.7455  0.0824
11299TIP3   OH255311   6.246   1.542   5.105  0.7775  0.3924  0.6233
11299TIP3    H155312   6.322   1.509   5.058 -0.1136  1.7652 -1.9338
11299TIP3    H255313   6.269   1.531   5.198  3.4507 -0.5502 -0.0604
11300TIP3   OH255314   6.679   1.016   2.115  0.3795 -0.0084  0.0957
11300TIP3    H155315   6.630   1.063   2.048  0.5102  0.2125  0.1552
11300TIP3    H255316   6.730   1.083   2.161  0.3155 -0.1615  0.3970
11301TIP3   OH255317   3.817   4.605  13.075  0.0586 -0.8124  0.7303
11301TIP3    H155318   3.905   4.637  13.096 -0.6763  0.6598  1.6663
11301TIP3    H255319   3.833   4.534  13.012  1.8606  0.0155  0.1729
11302TIP3   OH255320   1.932   0.734   3.804  0.3820  0.2939  0.0269
11302TIP3    H155321   1.865   0.666   3.805  1.2490 -0.6584 -1.5634
11302TIP3    H255322   1.889   0.811   3.767 -0.8497  0.9762  2.6198
11303TIP3   OH255323   5.890   5.852  14.408 -0.1020  0.3664 -0.0055
11303TIP3    H155324   5.981   5.833  14.428 -0.4091 -2.6864 -0.9418
11303TIP3    H255325   5.885   5.850  14.312 -1.3462 -0.9933  0.0473
11304TIP3   OH255326   3.803   6.487  13.517  0.0193 -0.0845 -0.3939
11304TIP3    H155327   3.712   6.517  13.512  0.3851  1.4861  1.2912
11304TIP3    H255328   3.829   6.504  13.608  2.4007  0.7615 -1.1547
11305TIP3   OH255329   0.411   2.080  12.146 -0.0693  0.4455 -0.4076
11305TIP3    H155330   0.442   2.018  12.212  0.6560  0.7909 -0.4143
11305TIP3    H255331   0.491   2.116  12.107 -0.4705  1.6142 -0.1929
11306TIP3   OH255332   0.264   5.893   2.182  0.3637 -0.3640 -0.3122
11306TIP3    H155333   0.214   5.873   2.103  0.1369 -1.7589  0.1518
11306TIP3    H255334   0.209   5.955   2.230  0.1623 -0.0814 -0.9010
11307TIP3   OH255335   3.144   1.964   4.133 -0.1338 -0.1922 -0.0867
11307TIP3    H155336   3.228   1.952   4.177  0.8701  0.9449 -1.6033
11307TIP3    H255337   3.162   1.950   4.040 -1.6334  0.0173 -0.4455
11308TIP3   OH255338   0.213   0.406  15.055 -0.0100 -0.2314  0.1607
11308TIP3    H155339   0.284   0.466  15.079 -1.8348  2.1171  0.1072
11308TIP3    H255340   0.209   0.411  14.959  0.8343 -1.7402  0.0220
11309TIP3   OH255341   0.467   0.132  10.542 -0.1995  0.4012 -0.0390
11309TIP3    H155342   0.537   0.134  10.477 -0.2765 -0.2257 -0.1493
11309TIP3    H255343   0.423   0.047  10.528  0.0151  0.0913  1.0536
11310TIP3   OH255344   3.002   4.484   0.020 -0.1929 -0.4382  0.2366
11310TIP3    H155345   2.988   4.389   0.019 -2.2098 -0.1840 -0.1347
11310TIP3    H255346   2.948   4.515   0.092  0.9914  0.3884  0.8032
11311TIP3   OH255347   2.069   0.585  14.064  0.4483  0.1715 -0.8447
11311TIP3    H155348   1.992   0.551  14.110  0.0680 -1.4549 -2.5654
11311TIP3    H255349   2.130   0.511  14.060  2.3304  1.5430  0.8348
11312TIP3   OH255350   4.824   5.246   2.916  0.0961 -0.3299 -0.2021
11312TIP3    H155351   4.911   5.247   2.957 -0.3947 -1.2765  0.9040
11312TIP3    H255352   4.817   5.332   2.873  1.9885 -0.6239 -1.2291
11313TIP3   OH255353   1.532   5.381  14.728 -0.1558  0.0076  0.1444
11313TIP3    H155354   1.592   5.340  14.789 -1.8430 -0.1864  1.7596
11313TIP3    H255355   1.477   5.310  14.695  1.2511 -0.0490 -2.3662
11314TIP3   OH255356   5.946   0.557   4.506 -1.0318 -0.3985  0.0663
11314TIP3    H155357   6.002   0.616   4.456  0.0007 -0.5593  0.9782
11314TIP3    H255358   5.862   0.603   4.512 -0.4853  0.6354  0.1061
11315TIP3   OH255359   1.795   3.007  15.837  0.3518  0.6868  0.2542
11315TIP3    H155360   1.719   3.042  15.883 -2.2519 -0.6362 -2.6521
11315TIP3    H255361   1.854   3.082  15.827  0.0160  1.5120  3.5119
11316TIP3   OH255362   0.003   0.438   4.736  0.0180  0.0833  0.1983
11316TIP3    H155363  -0.026   0.401   4.653  0.1542 -0.1032  0.2327
11316TIP3    H255364  -0.011   0.368   4.799 -2.9900  1.2000  0.9349
11317TIP3   OH255365   0.000   4.214  11.164 -0.3258 -0.6282  0.6317
11317TIP3    H155366   0.023   4.290  11.110 -2.0047  0.3415  1.2295
11317TIP3    H255367   0.041   4.140  11.118  1.9136  0.6656  0.3943
11318TIP3   OH255368   4.278   2.778   5.607  0.2862 -0.7236  0.0955
11318TIP3    H155369   4.205   2.782   5.668 -0.7659  1.4851 -1.2135
11318TIP3    H255370   4.310   2.688   5.614 -0.7983 -0.9760  2.6767
11319TIP3   OH255371   6.716   0.883  10.239 -0.2141  0.1455 -0.3711
11319TIP3    H155372   6.738   0.942  10.312 -0.9952  1.4129 -1.1254
11319TIP3    H255373   6.791   0.824  10.233 -0.1236  0.0181  1.4385
11320TIP3   OH255374   2.453   4.282  12.427  0.7654 -0.2499  0.6142
11320TIP3    H155375   2.392   4.346  12.389  1.2718 -0.2530 -0.2185
11320TIP3    H255376   2.413   4.259  12.511 -0.2228 -0.0124  0.2232
11321TIP3   OH255377   4.919   1.751  14.874  0.1292  0.2270  0.3064
11321TIP3    H155378   4.882   1.722  14.791 -2.2236 -1.0071  1.6685
11321TIP3    H255379   4.970   1.676  14.905  2.0499  1.1322 -0.5351
11322TIP3   OH255380   3.602   2.460  16.499  0.2030  0.1240  0.0004
11322TIP3    H155381   3.602   2.431  16.591 -0.2053 -2.1627 -0.6667
11322TIP3    H255382   3.695   2.473  16.479  0.3414  0.0802  0.5793
11323TIP3   OH255383   1.604   1.177   4.469 -0.3561 -0.5027  0.4164
11323TIP3    H155384   1.680   1.130   4.435 -0.4612  0.7165 -1.7094
11323TIP3    H255385   1.535   1.110   4.472 -0.1961 -0.8218 -1.4250
11324TIP3   OH255386   0.203   2.057  13.176 -0.2053  0.1270  0.4652
11324TIP3    H155387   0.294   2.086  13.169 -0.1993 -0.0760 -0.3723
11324TIP3    H255388   0.153   2.138  13.179  0.0954  0.2977  2.8168
11325TIP3   OH255389   5.336   3.276   5.745  0.5691 -0.0085  0.0528
11325TIP3    H155390   5.272   3.284   5.675  1.0566  0.6841 -0.3274
11325TIP3    H255391   5.345   3.182   5.760 -1.0537 -0.1155  0.6034
11326TIP3   OH255392   4.968   3.975  14.145  0.3389 -0.0769  0.3618
11326TIP3    H155393   5.052   4.019  14.160  2.0436 -3.2511  0.8754
11326TIP3    H255394   4.919   3.989  14.226  1.1020  0.3217  0.7651
11327TIP3   OH255395   1.385   3.191  16.633 -0.4402  0.4615 -0.6310
11327TIP3    H155396   1.475   3.225  16.633 -0.1775  0.2146  3.0399
11327TIP3    H255397   1.330   3.269  16.640 -0.2883  0.5115  0.1367
11328TIP3   OH255398   3.832   1.867   0.453  0.5312  0.3403  0.1493
11328TIP3    H155399   3.800   1.957   0.454  1.3946  0.6457  1.2314
11328TIP3    H255400   3.866   1.852   0.541 -0.4269 -1.3567  0.2666
11329TIP3   OH255401   6.046   2.850   5.050  0.2809 -0.0792 -0.0096
11329TIP3    H155402   5.997   2.813   4.976 -0.5694  0.4238  0.2915
11329TIP3    H255403   6.031   2.944   5.044  0.1514 -0.0391  0.8388
11330TIP3   OH255404   6.698   0.559  13.976  0.4743  0.3937  0.4913
11330TIP3    H155405   6.761   0.498  14.014  0.4262  0.4209  0.6183
11330TIP3    H255406   6.612   0.523  14.000  0.4275  1.6401  2.4626
11331TIP3   OH255407   3.513   3.180  13.819  0.0663 -0.1400  0.1941
11331TIP3    H155408   3.512   3.149  13.909  0.8453 -0.4235  0.1056
11331TIP3    H255409   3.473   3.267  13.824 -0.6783 -0.4951  0.6747
11332TIP3   OH255410   6.351   2.762  11.374 -0.2115  0.2445 -0.5227
11332TIP3    H155411   6.332   2.754  11.280  1.6875 -2.0685 -0.8046
11332TIP3    H255412   6.397   2.681  11.396  0.6891  1.3621  2.0979
11333TIP3   OH255413   0.028   6.006  11.292  0.2207 -0.0151  0.5068
11333TIP3    H155414   0.122   6.017  11.278 -0.1513  2.9126 -0.2994
11333TIP3    H255415   0.013   6.037  11.381 -0.2677  2.0838 -0.2537
11334TIP3   OH255416   2.879   5.431  16.998  0.1255 -0.5350  0.2742
11334TIP3    H155417   2.784   5.441  17.012  0.4560  2.9949  0.8687
11334TIP3    H255418   2.907   5.368  17.065 -1.8319 -2.2792 -0.4211
11335TIP3   OH255419   4.407   2.862  15.988 -0.6312  0.1413 -0.2840
11335TIP3    H155420   4.379   2.936  16.041  0.4021  0.7588 -0.5769
11335TIP3    H255421   4.498   2.881  15.965 -0.4442 -1.0600 -0.6406
11336TIP3   OH255422   2.733   4.315  11.759 -0.4296 -0.4426 -0.0465
11336TIP3    H155423   2.662   4.265  11.799  0.8363 -2.4289 -0.1248
11336TIP3    H255424   2.710   4.319  11.666  0.5374 -3.0052 -0.4660
11337TIP3   OH255425   4.296   1.201   3.172  0.0651 -0.0509 -0.3777
11337TIP3    H155426   4.362   1.164   3.114 -0.0367 -0.2947 -0.3425
11337TIP3    H255427   4.282   1.134   3.239 -0.4157 -0.1196 -0.5398
11338TIP3   OH255428   2.184   1.825  13.303  0.2449 -0.3940  0.5995
11338TIP3    H155429   2.210   1.813  13.212  0.3501 -1.5215  0.7668
11338TIP3    H255430   2.248   1.774  13.353  0.2257  0.2675  1.3087
11339TIP3   OH255431   1.002   3.021  13.965 -0.4871  0.2561 -0.4092
11339TIP3    H155432   0.949   2.959  14.014  0.5735  1.5299  2.5990
11339TIP3    H255433   1.047   2.968  13.899 -1.4467 -1.7229  0.4597
11340TIP3   OH255434   5.055   6.013   4.938 -0.0717  0.3802  0.1194
11340TIP3    H155435   5.133   6.004   4.883  0.0168 -0.0049  0.3073
11340TIP3    H255436   5.052   6.106   4.960 -0.9609  0.8565 -1.7963
11341TIP3   OH255437   3.694   1.942  16.930  0.2452 -0.3796 -0.0049
11341TIP3    H155438   3.644   1.895  16.863  0.8762  0.3651 -1.0210
11341TIP3    H255439   3.663   1.905  17.013 -2.3973  0.3756 -0.5398
11342TIP3   OH255440   5.899   5.192   4.152  0.4476 -0.0214  0.0607
11342TIP3    H155441   5.957   5.267   4.152  0.6099 -0.1101  2.2262
11342TIP3    H255442   5.820   5.222   4.196  0.1054 -0.8255  0.0169
11343TIP3   OH255443   3.143   3.588  14.985  0.9154 -0.1511 -0.7522
11343TIP3    H155444   3.065   3.553  15.029  0.3672  1.8751  0.0380
11343TIP3    H255445   3.112   3.616  14.899  0.0825  2.7379  0.3468
11344TIP3   OH255446   6.677   6.518   4.242  0.3221  0.8645 -0.2619
11344TIP3    H155447   6.618   6.448   4.270 -2.1353  1.9319 -2.3618
11344TIP3    H255448   6.752   6.472   4.204 -0.7109 -0.6273 -0.5851
11345TIP3   OH255449   0.549   4.525   2.519  0.7865 -0.2826  0.5871
11345TIP3    H155450   0.544   4.618   2.539 -0.6226 -0.2050 -0.0407
11345TIP3    H255451   0.636   4.499   2.550  1.9831  1.6289 -0.9127
11346TIP3   OH255452   4.215   5.111  16.670  0.2932 -0.4711  0.4974
11346TIP3    H155453   4.289   5.090  16.728  0.4702 -1.2607  0.0018
11346TIP3    H255454   4.210   5.037  16.609  0.7333  0.7657 -1.1278
11347TIP3   OH255455   1.828   1.363  13.847 -0.3735  0.1789 -0.0809
11347TIP3    H155456   1.879   1.443  13.858  0.1038 -0.1548  0.1784
11347TIP3    H255457   1.877   1.311  13.783  0.1741 -0.5779  0.9147
11348TIP3   OH255458   2.250   3.642   6.084  0.3128 -0.4956 -0.5592
11348TIP3    H155459   2.308   3.710   6.049  2.7403 -1.7276  0.8412
11348TIP3    H255460   2.302   3.562   6.080 -0.6840 -1.3889  2.2097
11349TIP3   OH255461   3.779   5.152  16.189 -0.4700 -0.4139 -0.2447
11349TIP3    H155462   3.759   5.211  16.117 -1.3788  0.9733  1.0729
11349TIP3    H255463   3.870   5.171  16.212 -0.8288  0.6998  0.3309
11350TIP3   OH255464   6.409   1.639   0.889  0.1913  0.3146 -0.0511
11350TIP3    H155465   6.440   1.711   0.945  0.7682  0.2514 -0.2795
11350TIP3    H255466   6.455   1.562   0.920  1.0890  0.4096 -1.0684
11351TIP3   OH255467   1.959   0.172   3.802  0.2771 -0.5912 -0.7887
11351TIP3    H155468   1.895   0.190   3.871  0.7311 -3.7413  0.5993
11351TIP3    H255469   1.907   0.133   3.732  0.3368 -0.9679 -0.6257
11352TIP3   OH255470   4.678   4.172  15.114  0.5269 -0.4086 -0.0247
11352TIP3    H155471   4.590   4.135  15.103 -0.6149  1.5677  1.5952
11352TIP3    H255472   4.679   4.249  15.057  2.0604 -1.5948 -1.6954
11353TIP3   OH255473   3.565   3.500  15.920 -0.0174  0.6705 -0.1933
11353TIP3    H155474   3.599   3.418  15.884  1.0552  1.7265 -1.7199
11353TIP3    H255475   3.613   3.568  15.872 -0.1831  2.1920  1.7023
11354TIP3   OH255476   1.212   4.018  15.757  0.1911 -0.1972  0.0787
11354TIP3    H155477   1.272   4.074  15.806  1.1290  0.0754 -1.2966
11354TIP3    H255478   1.135   4.073  15.741  1.1756  0.8424 -1.4169
11355TIP3   OH255479   6.467   0.695  13.820 -0.0812 -0.6613 -0.4339
11355TIP3    H155480   6.425   0.757  13.760  0.4183  0.7422  0.5935
11355TIP3    H255481   6.548   0.738  13.846 -0.1374 -1.3433  0.9896
11356TIP3   OH255482   4.305   5.643   4.713 -0.3624  0.2677 -0.1047
11356TIP3    H155483   4.338   5.573   4.657  0.8658  1.4343 -0.9164
11356TIP3    H255484   4.276   5.599   4.793 -0.5041 -1.2468 -0.9539
11357TIP3   OH255485   3.585   1.191  11.698 -0.3173 -0.2238  0.3968
11357TIP3    H155486   3.565   1.284  11.689  0.0252 -0.3091 -1.5588
11357TIP3    H255487   3.587   1.157  11.609 -1.3943 -2.3429  1.0950
11358TIP3   OH255488   3.651   6.372  16.563  0.2403 -0.4293  0.5196
11358TIP3    H155489   3.685   6.400  16.648 -2.0788  1.3332  0.9647
11358TIP3    H255490   3.652   6.276  16.568 -1.3583 -0.4195  3.2546
11359TIP3   OH255491   2.348   5.739   0.648  0.0337 -0.0190 -0.3234
11359TIP3    H155492   2.333   5.702   0.734 -0.7189 -0.2391 -0.5423
11359TIP3    H255493   2.260   5.757   0.613  0.2065 -1.8396 -1.8685
11360TIP3   OH255494   5.754   5.870   2.202  0.2079  0.2264 -0.4560
11360TIP3    H155495   5.772   5.948   2.149 -0.1582  1.0230  0.5648
11360TIP3    H255496   5.719   5.904   2.285 -1.4603 -1.0853 -0.5717
11361TIP3   OH255497   2.937   5.483   3.538  0.2150  0.1688  0.0938
11361TIP3    H155498   2.893   5.518   3.615  0.1903  0.6749 -0.1466
11361TIP3    H255499   3.028   5.512   3.547  0.5956 -1.1551  0.7602
11362TIP3   OH255500   3.164   3.539   5.433 -0.2857 -0.0978  0.2677
11362TIP3    H155501   3.107   3.471   5.469 -1.3228  1.2119  1.2310
11362TIP3    H255502   3.253   3.509   5.452 -0.7456 -0.6794  1.6686
11363TIP3   OH255503   0.466   3.852   6.208  0.5662 -0.8419 -0.1962
11363TIP3    H155504   0.543   3.801   6.183  1.0304  1.1778 -3.4205
11363TIP3    H255505   0.501   3.928   6.255  0.7278  0.3424 -2.1050
11364TIP3   OH255506   2.095   2.081   5.587  0.4083 -0.0820 -0.0202
11364TIP3    H155507   2.167   2.069   5.525  0.9992 -1.3165  0.8538
11364TIP3    H255508   2.017   2.089   5.532  1.1162  0.4996 -0.9590
11365TIP3   OH255509   0.483   3.585   3.741  0.6972 -0.2440  0.5134
11365TIP3    H155510   0.421   3.582   3.814  0.5403  0.8393  0.4524
11365TIP3    H255511   0.568   3.570   3.782  0.5186 -0.5049  0.7904
11366TIP3   OH255512   2.993   3.833   3.396  0.0954 -0.6604 -0.0503
11366TIP3    H155513   3.008   3.922   3.364  0.7483 -0.0630  1.8048
11366TIP3    H255514   2.899   3.818   3.383 -0.2303  0.7091  0.5450
11367TIP3   OH255515   5.851   6.616  16.388 -0.1905  0.5973  0.9900
11367TIP3    H155516   5.775   6.632  16.445 -0.7401  0.4530  0.3066
11367TIP3    H255517   5.905   6.694  16.398 -0.5746  0.8358  1.2547
11368TIP3   OH255518   1.873   0.681   6.484 -0.1673  0.5378 -0.0958
11368TIP3    H155519   1.779   0.664   6.493 -0.0762 -0.1550 -0.3353
11368TIP3    H255520   1.885   0.769   6.518 -1.0277  0.9436 -0.8130
11369TIP3   OH255521   6.567   1.126   5.613 -0.0343 -0.5690  0.2666
11369TIP3    H155522   6.618   1.059   5.657  0.7620 -0.0949  0.0792
11369TIP3    H255523   6.485   1.130   5.663  1.1267  0.4886  2.2009
11370TIP3   OH255524   3.635   3.291   5.403 -0.1188  0.4925  0.4158
11370TIP3    H155525   3.710   3.288   5.344 -0.6092 -1.5725 -0.1890
11370TIP3    H255526   3.581   3.363   5.371  0.1289  0.0649 -1.0416
11371TIP3   OH255527   0.680   4.716  15.338 -0.7429 -0.2588 -0.0629
11371TIP3    H155528   0.735   4.671  15.274 -0.2762 -0.5356  0.5211
11371TIP3    H255529   0.627   4.777  15.286  0.8010  0.7216 -0.5759
11372TIP3   OH255530   4.598   2.813  14.932  0.2511  0.3321 -0.0939
11372TIP3    H155531   4.631   2.788  14.845  0.7205 -0.7898  0.3838
11372TIP3    H255532   4.675   2.811  14.988 -0.2709 -0.2970  0.6204
11373TIP3   OH255533   0.130   2.593   4.169 -0.1203 -0.3451  0.1156
11373TIP3    H155534   0.155   2.674   4.212 -0.7041 -0.6233  1.0001
11373TIP3    H255535   0.108   2.619   4.080  0.4771  0.3360  0.1573
11374TIP3   OH255536   5.640   1.882  14.673 -0.0774  0.6954  0.2125
11374TIP3    H155537   5.627   1.959  14.728 -2.8124 -0.1149  0.8927
11374TIP3    H255538   5.553   1.842  14.667  1.1699 -2.2541 -0.2247
11375TIP3   OH255539   0.595   4.846   2.270  0.3482  0.0814  0.2198
11375TIP3    H155540   0.661   4.912   2.250 -1.3700  2.0444  0.6265
11375TIP3    H255541   0.583   4.852   2.365  0.2804 -0.9546  0.2846
11376TIP3   OH255542   1.145   3.367  14.434  0.2952 -0.3904  0.2763
11376TIP3    H155543   1.098   3.285  14.445  1.0938 -0.7429  1.1953
11376TIP3    H255544   1.086   3.421  14.380 -0.9566 -0.9594  1.0279
11377TIP3   OH255545   5.544   4.399   3.696  0.2741 -0.3746 -0.8472
11377TIP3    H155546   5.587   4.479   3.667  1.1789 -0.2234  0.7750
11377TIP3    H255547   5.613   4.350   3.741 -0.7798 -1.0531  0.0775
11378TIP3   OH255548   0.619   1.535  12.185 -0.2705 -0.2944  0.0690
11378TIP3    H155549   0.601   1.586  12.264 -2.0848 -0.3614 -0.2609
11378TIP3    H255550   0.635   1.601  12.117 -0.3432 -0.1957  0.1471
11379TIP3   OH255551   1.793   3.922  13.696 -0.2250 -0.3730 -0.9879
11379TIP3    H155552   1.803   4.010  13.662  1.8620  0.6923  1.9631
11379TIP3    H255553   1.710   3.891  13.660  0.2337  1.7156 -4.2130
11380TIP3   OH255554   2.705   4.741   2.611 -0.1073  0.0058  0.2749
11380TIP3    H155555   2.789   4.720   2.651  0.2159 -0.0856 -0.4354
11380TIP3    H255556   2.642   4.683   2.653  0.5645 -1.5577 -0.8016
11381TIP3   OH255557   1.548   3.190   4.816  0.4296  0.0625  0.0027
11381TIP3    H155558   1.634   3.164   4.849 -0.4250 -1.2392  1.3415
11381TIP3    H255559   1.519   3.115   4.765  0.0301  0.4561 -0.3550
11382TIP3   OH255560   1.421   6.398  11.363 -0.0579 -0.0467 -0.4777
11382TIP3    H155561   1.347   6.371  11.310 -0.9100  1.4793 -0.1127
11382TIP3    H255562   1.393   6.480  11.404  0.7898 -0.8340  1.8400
11383TIP3   OH255563   2.708   3.250  16.720  0.1568  0.2429 -0.4301
11383TIP3    H155564   2.662   3.168  16.701 -2.0488  1.5697 -1.2403
11383TIP3    H255565   2.758   3.268  16.640 -1.5851  1.0201 -1.4142
11384TIP3   OH255566   1.799   4.914  14.837 -0.1235  0.1774  0.0643
11384TIP3    H155567   1.840   4.851  14.896  0.4539 -1.8163 -2.3092
11384TIP3    H255568   1.872   4.962  14.798 -0.0725 -1.6487 -2.2949
11385TIP3   OH255569   5.051   0.498  11.794 -0.7585 -0.6011  0.5043
11385TIP3    H155570   4.963   0.507  11.830 -0.5636 -0.4918  0.9599
11385TIP3    H255571   5.071   0.405  11.799 -0.9748 -0.6713  0.0935
11386TIP3   OH255572   2.798   0.132   5.900  0.4519  0.6444  0.3284
11386TIP3    H155573   2.850   0.074   5.845  0.8945 -0.6330  1.9975
11386TIP3    H255574   2.761   0.196   5.840  0.4730 -0.9792 -1.4992
11387TIP3   OH255575   2.483   4.788  16.567 -0.4625 -0.5985 -0.1083
11387TIP3    H155576   2.419   4.736  16.517 -1.8471  1.6781 -0.8542
11387TIP3    H255577   2.456   4.776  16.658 -1.2912 -0.5397 -0.3359
11388TIP3   OH255578   4.870   1.531   4.410  0.0514 -0.1319 -0.2203
11388TIP3    H155579   4.888   1.535   4.503  1.6794 -2.3775 -0.3675
11388TIP3    H255580   4.815   1.453   4.400  2.0176 -1.4525 -1.3585
11389TIP3   OH255581   3.111   5.848  13.193  0.3969  0.0358  0.1123
11389TIP3    H155582   3.031   5.817  13.236 -0.0226  0.2115 -0.5222
11389TIP3    H255583   3.127   5.784  13.123  1.5605 -0.7364  1.0392
11390TIP3   OH255584   6.381   2.172  12.062  0.1860 -0.2247 -0.2081
11390TIP3    H155585   6.379   2.182  11.967 -0.7742  0.3062 -0.1427
11390TIP3    H255586   6.474   2.177  12.085  0.6016 -2.3113 -1.3013
11391TIP3   OH255587   3.041   1.632   2.977 -0.3447  0.3742  0.0319
11391TIP3    H155588   3.073   1.554   2.931 -1.5099  0.1252 -0.4015
11391TIP3    H255589   2.949   1.640   2.950 -1.6289 -0.7240  3.4731
11392TIP3   OH255590   3.410   0.107  11.599  0.1935 -0.2949 -0.2234
11392TIP3    H155591   3.411   0.185  11.543  0.3176 -0.3561 -0.3073
11392TIP3    H255592   3.360   0.042  11.548  1.0155 -0.6266 -0.6429
11393TIP3   OH255593   6.611   3.608  15.998 -0.1535  0.0316  0.3793
11393TIP3    H155594   6.586   3.637  15.910  0.3735 -1.1635 -0.1826
11393TIP3    H255595   6.703   3.632  16.006 -0.2888  0.4586  0.7627
11394TIP3   OH255596   5.860   0.672   2.311 -0.2415  0.3114 -0.3840
11394TIP3    H155597   5.860   0.612   2.237  0.4315  0.3580 -0.4303
11394TIP3    H255598   5.854   0.759   2.271  3.0242  0.5573 -0.6327
11395TIP3   OH255599   3.620   2.584   2.701 -0.9548 -0.6384 -0.3994
11395TIP3    H155600   3.683   2.549   2.762 -0.1567  0.7161 -0.4035
11395TIP3    H255601   3.536   2.581   2.748 -0.2136  1.2662  1.1878
11396TIP3   OH255602   5.190   2.785  15.183  0.4734  0.2222 -0.1685
11396TIP3    H155603   5.270   2.732  15.191  0.9081  0.3267 -2.8474
11396TIP3    H255604   5.119   2.720  15.180  0.5781  0.0522  0.7684
11397TIP3   OH255605   3.996   5.631  17.021 -0.7278  0.1984  0.2898
11397TIP3    H155606   4.060   5.666  16.959 -1.7712  0.3194 -0.7451
11397TIP3    H255607   3.970   5.706  17.074  0.4887  0.0105  1.2224
11398TIP3   OH255608   3.442   5.562   4.789  0.4367  0.7226 -0.1636
11398TIP3    H155609   3.348   5.549   4.801  0.6200  0.0379  0.6560
11398TIP3    H255610   3.455   5.554   4.694 -0.1139 -0.8529 -0.1432
11399TIP3   OH255611   5.614   0.357   2.927 -0.0169 -0.3052  0.2309
11399TIP3    H155612   5.693   0.409   2.912 -1.6994  2.0552 -1.1162
11399TIP3    H255613   5.580   0.338   2.840 -0.1500 -2.6648  0.7333
11400TIP3   OH255614   4.179   1.012   2.837 -0.0092  0.6207  0.3813
11400TIP3    H155615   4.240   1.022   2.910 -0.6811  1.2384  0.8635
11400TIP3    H255616   4.226   0.955   2.775  1.1353  1.2517  0.6388
11401TIP3   OH255617   4.851   3.199  14.072  0.1232  0.2408 -0.3730
11401TIP3    H155618   4.820   3.250  13.997 -1.0534  0.7222  0.4185
11401TIP3    H255619   4.941   3.229  14.085  1.1287 -1.3631 -2.8685
11402TIP3   OH255620   3.608   3.739  15.825 -0.4116  0.2754  0.1035
11402TIP3    H155621   3.606   3.791  15.906  0.1740  2.3804 -1.1523
11402TIP3    H255622   3.539   3.777  15.771 -1.5029 -1.8002 -0.0341
11403TIP3   OH255623   5.149   6.627  13.253  0.0936  0.3211 -0.6117
11403TIP3    H155624   5.241   6.652  13.243  0.7402 -1.4721  0.4163
11403TIP3    H255625   5.146   6.535  13.228 -1.1133 -0.0617  0.7845
11404TIP3   OH255626   6.573   5.084   5.500 -0.3568  0.1552 -0.6684
11404TIP3    H155627   6.552   4.993   5.477 -2.5240  0.6452 -0.8858
11404TIP3    H255628   6.614   5.120   5.422  0.4380 -0.6034 -0.6101
11405TIP3   OH255629   5.855   3.453   1.405 -0.1036 -0.7461  0.1766
11405TIP3    H155630   5.912   3.515   1.450 -0.7848 -0.9015  1.2801
11405TIP3    H255631   5.836   3.494   1.320 -1.1929  0.9465  1.1925
11406TIP3   OH255632   4.278   2.363  16.182 -0.0949  0.1378 -0.0427
11406TIP3    H155633   4.317   2.404  16.104  0.6575  0.8438  0.6771
11406TIP3    H255634   4.325   2.281  16.193  1.1246  0.9123  0.7288
11407TIP3   OH255635   3.777   5.068   5.458  0.5536 -0.1853  0.5465
11407TIP3    H155636   3.729   5.150   5.472 -0.1416 -0.5262  0.2405
11407TIP3    H255637   3.854   5.093   5.407 -0.7897  0.0021 -1.5358
11408TIP3   OH255638   3.854   6.342  12.430  0.1755 -0.3219 -0.3620
11408TIP3    H155639   3.762   6.319  12.419  0.2793 -0.6259 -0.5853
11408TIP3    H255640   3.886   6.282  12.497  0.5245 -1.0390 -1.1661
11409TIP3   OH255641   4.849   1.704   1.725 -0.4404 -0.0246  0.1273
11409TIP3    H155642   4.785   1.712   1.796 -0.6163  1.3179 -0.1659
11409TIP3    H255643   4.796   1.699   1.646 -0.2460 -1.5429  0.0600
11410TIP3   OH255644   0.117   4.640   4.845 -0.0456  0.5332  0.0204
11410TIP3    H155645   0.080   4.617   4.930 -2.0071 -0.9653 -1.1374
11410TIP3    H255646   0.071   4.720   4.819 -0.6653  0.0675 -0.3324
11411TIP3   OH255647   1.357   1.814  12.856 -0.1414  0.3450  1.1839
11411TIP3    H155648   1.448   1.837  12.840 -0.3848  0.9089  0.5668
11411TIP3    H255649   1.341   1.738  12.799 -1.1477  2.6479 -1.8865
11412TIP3   OH255650   1.930   3.195  12.452  0.4573 -0.2479 -0.5110
11412TIP3    H155651   1.929   3.146  12.370  1.1319 -0.0291 -0.6589
11412TIP3    H255652   1.842   3.233  12.459  0.2288 -0.7043 -0.8628
11413TIP3   OH255653   2.428   6.249  11.909 -0.3348 -0.6090 -0.0142
11413TIP3    H155654   2.338   6.218  11.922 -1.0367  1.4082  0.3120
11413TIP3    H255655   2.423   6.343  11.925  1.7999 -0.4109 -0.2797
11414TIP3   OH255656   1.365   3.958   0.892  0.0709 -0.3308 -0.3911
11414TIP3    H155657   1.354   3.992   0.981  2.0764  1.5739 -0.7836
11414TIP3    H255658   1.449   3.911   0.895 -0.2992 -1.0499 -1.0711
11415TIP3   OH255659   2.308   0.425   2.135  0.2978  0.1712 -0.0334
11415TIP3    H155660   2.274   0.460   2.217  0.4504 -1.9878  1.0020
11415TIP3    H255661   2.269   0.339   2.127  0.5628  0.1995 -2.0789
11416TIP3   OH255662   1.334   2.269   0.972  0.0103 -0.1466  0.2035
11416TIP3    H155663   1.429   2.267   0.963 -0.1078 -2.1846 -1.4581
11416TIP3    H255664   1.304   2.331   0.905  0.1368  0.0418  0.3209
11417TIP3   OH255665   1.018   2.141  15.802  0.1714 -0.4405 -0.1924
11417TIP3    H155666   1.048   2.057  15.838 -2.1988 -1.1583  0.2464
11417TIP3    H255667   1.095   2.176  15.758  1.6788 -2.0751  0.9933
11418TIP3   OH255668   4.687   3.036   4.388 -0.1471  0.2192  0.9233
11418TIP3    H155669   4.746   3.040   4.312 -1.8350 -0.5553 -0.4961
11418TIP3    H255670   4.728   2.972   4.446 -0.4911 -1.7874 -0.9269
11419TIP3   OH255671   2.909   0.056  15.194 -0.5889 -0.1976 -0.4320
11419TIP3    H155672   2.983   0.004  15.225 -0.5151  0.1095 -0.0868
11419TIP3    H255673   2.907   0.039  15.100 -0.1905 -0.3527 -0.4175
11420TIP3   OH255674   0.401   5.019   6.360 -0.4035  0.2984 -0.1813
11420TIP3    H155675   0.429   5.111   6.363  1.2772 -0.1212 -1.3759
11420TIP3    H255676   0.479   4.970   6.385 -0.3038 -0.9108 -2.6431
11421TIP3   OH255677   5.175   1.541   4.815  0.2868  0.5309  0.0805
11421TIP3    H155678   5.145   1.580   4.897  0.1757  1.0885 -0.2172
11421TIP3    H255679   5.270   1.552   4.817  0.2838  0.5450  0.1387
11422TIP3   OH255680   6.121   0.831   6.243  0.4560 -0.0439 -0.3414
11422TIP3    H155681   6.192   0.877   6.198 -0.1170  0.2883 -0.9141
11422TIP3    H255682   6.052   0.896   6.253  1.1075  0.3738  2.4142
11423TIP3   OH255683   2.902   4.178   2.633 -0.3316 -0.0677 -0.2583
11423TIP3    H155684   2.986   4.144   2.602 -0.1570 -0.5866  0.7122
11423TIP3    H255685   2.922   4.216   2.719 -0.5697  2.3429 -1.1874
11424TIP3   OH255686   6.253   1.003  12.673 -0.7876 -0.3539 -0.6847
11424TIP3    H155687   6.241   0.988  12.767 -2.4632 -1.4852 -1.0343
11424TIP3    H255688   6.203   1.083  12.655  0.4490  0.5095 -0.4643
11425TIP3   OH255689   4.588   4.336   6.305 -0.2667  0.3119 -0.3677
11425TIP3    H155690   4.577   4.430   6.290  2.1886  0.4249 -2.1961
11425TIP3    H255691   4.678   4.327   6.337 -0.5620 -1.3984  0.0922
11426TIP3   OH255692   6.416   2.220   1.316  0.3596 -0.1030 -0.4129
11426TIP3    H155693   6.507   2.237   1.291  0.6828 -0.6091  0.3733
11426TIP3    H255694   6.416   2.225   1.412 -0.5943  0.5863 -0.4259
11427TIP3   OH255695   4.925   1.876  13.902 -0.0898 -0.3129  0.1299
11427TIP3    H155696   5.009   1.868  13.858 -0.0608  0.5112  0.0294
11427TIP3    H255697   4.864   1.826  13.848  0.4657 -1.5692  0.6076
11428TIP3   OH255698   3.637   1.973   1.635 -0.4407 -0.1127 -0.3095
11428TIP3    H155699   3.559   2.002   1.682 -0.4034 -0.6128  0.0590
11428TIP3    H255700   3.622   2.002   1.545 -0.3199  1.2353  0.0752
11429TIP3   OH255701   3.905   5.378  15.433  0.0686 -0.2231  0.4060
11429TIP3    H155702   3.836   5.433  15.398  0.4309 -0.5220 -0.8728
11429TIP3    H255703   3.914   5.404  15.524 -0.9308  0.6143  0.2812
11430TIP3   OH255704   4.369   4.878  15.720 -0.3130 -0.1784 -0.4187
11430TIP3    H155705   4.438   4.812  15.728  0.1799  0.2155 -1.2885
11430TIP3    H255706   4.380   4.934  15.797 -0.0669 -0.5024 -0.2182
11431TIP3   OH255707   3.455   2.881  14.953  0.3629 -0.4421 -0.1259
11431TIP3    H155708   3.392   2.843  14.892  1.1737 -0.1020 -1.2104
11431TIP3    H255709   3.423   2.969  14.969  0.5491 -0.2784 -0.6534
11432TIP3   OH255710   0.508   4.641   0.221 -0.3858 -0.0965 -0.1615
11432TIP3    H155711   0.483   4.571   0.161  1.6196  0.7262 -2.0893
11432TIP3    H255712   0.535   4.597   0.301 -3.5551 -1.2068  0.4097
11433TIP3   OH255713   3.001   6.410   5.465  0.1678  0.3385  1.0833
11433TIP3    H155714   2.969   6.458   5.541  1.0898  1.2540  0.9124
11433TIP3    H255715   3.071   6.465   5.430  1.4355 -1.2485  1.0220
11434TIP3   OH255716   2.714   5.710  12.613  0.2734 -0.3765 -0.1245
11434TIP3    H155717   2.765   5.753  12.544  0.7222 -2.6482 -1.3155
11434TIP3    H255718   2.637   5.676  12.567  0.4081 -1.6292  0.5390
11435TIP3   OH255719   2.928   5.125  10.972  0.1290 -0.0451 -0.7975
11435TIP3    H155720   2.841   5.151  11.001  1.2987  2.1919  1.0088
11435TIP3    H255721   2.912   5.063  10.901 -2.9054  0.1608 -0.4133
11436TIP3   OH255722   0.833   4.361  10.624 -0.9801  0.2823  0.2308
11436TIP3    H155723   0.779   4.309  10.564 -0.5827  0.7133 -0.5144
11436TIP3    H255724   0.917   4.316  10.625 -0.5368  1.0535 -0.6538
11437TIP3   OH255725   6.629   5.076   0.781  0.0152 -0.3107 -0.5803
11437TIP3    H155726   6.647   5.109   0.692  1.6943  1.5490  0.3581
11437TIP3    H255727   6.565   5.138   0.816 -1.4501 -1.6563 -0.8131
11438TIP3   OH255728   6.402   5.813  11.421 -0.1898 -0.0683 -0.5742
11438TIP3    H155729   6.433   5.799  11.332 -0.0601 -0.0901 -0.5273
11438TIP3    H255730   6.319   5.860  11.412 -0.0618  0.1355 -0.6994
11439TIP3   OH255731   5.381   1.164   5.993 -0.4947  0.0118 -0.4148
11439TIP3    H155732   5.378   1.260   5.999 -0.1640 -0.0671  2.0900
11439TIP3    H255733   5.363   1.134   6.082  0.8895 -2.2267 -0.8183
11440TIP3   OH255734   3.751   0.568  16.301  0.2721  0.1342 -0.0040
11440TIP3    H155735   3.809   0.531  16.368  0.7151  3.0738  1.4154
11440TIP3    H255736   3.663   0.544  16.330  0.5520 -0.1640  0.6351
11441TIP3   OH255737   4.650   1.767   4.464  0.0026 -0.1341  0.2193
11441TIP3    H155738   4.620   1.708   4.533 -1.3902  0.4419  0.1424
11441TIP3    H255739   4.741   1.789   4.488 -0.4848  0.1504  1.9441
11442TIP3   OH255740   1.166   2.132   2.141 -0.3644 -0.7400  0.0913
11442TIP3    H155741   1.194   2.143   2.232 -1.2057  0.3012  0.2473
11442TIP3    H255742   1.227   2.067   2.105  0.7127 -0.3209  1.0677
11443TIP3   OH255743   5.026   1.518   0.480  0.0674  0.7871  0.6878
11443TIP3    H155744   4.998   1.601   0.441  1.2427  0.6012 -0.6168
11443TIP3    H255745   5.122   1.522   0.480  0.1407  0.3554  2.7110
11444TIP3   OH255746   0.317   1.455  15.374 -0.5911 -0.3985  0.4519
11444TIP3    H155747   0.285   1.400  15.303  0.0042 -0.5483  0.2934
11444TIP3    H255748   0.312   1.544  15.339 -0.2002 -0.4810  0.1840
11445TIP3   OH255749   0.374   0.638  17.264  0.3885  0.2995  0.2151
11445TIP3    H155750   0.437   0.582  17.309  0.8942  1.6590  1.2564
11445TIP3    H255751   0.427   0.697  17.210 -0.1808 -0.8027 -1.6472
11446TIP3   OH255752   2.836   1.340  12.434 -0.0489  0.0512  0.0889
11446TIP3    H155753   2.857   1.376  12.348 -2.3298 -0.1737 -0.6216
11446TIP3    H255754   2.771   1.272  12.417  0.0878 -0.5910  1.9145
11447TIP3   OH255755   1.589   6.434  11.829  0.7150 -0.8890  0.2095
11447TIP3    H155756   1.642   6.373  11.879  0.4957 -0.7697  0.5960
11447TIP3    H255757   1.609   6.416  11.737  1.6059 -0.6737  0.3581
11448TIP3   OH255758   4.513   5.273   2.063 -0.1175  0.0326  0.2230
11448TIP3    H155759   4.458   5.259   1.985 -0.7689 -0.0561  0.6904
11448TIP3    H255760   4.462   5.334   2.117  0.7785  0.8793  0.1322
11449TIP3   OH255761   1.412   5.672   4.796  0.0503  0.2146 -0.4578
11449TIP3    H155762   1.356   5.654   4.872 -1.0579 -0.7223 -1.4567
11449TIP3    H255763   1.500   5.682   4.833 -0.8311  2.6766  1.2797
11450TIP3   OH255764   2.099   1.770   0.933 -0.1130 -0.8456  0.2813
11450TIP3    H155765   2.135   1.770   0.844 -3.7393  1.4487 -1.4338
11450TIP3    H255766   2.135   1.691   0.974  2.4058 -1.5304 -2.8582
11451TIP3   OH255767   6.581   5.788   1.342  0.0803 -0.2004  0.2625
11451TIP3    H155768   6.491   5.791   1.308 -0.1966  0.6921  1.0303
11451TIP3    H255769   6.576   5.831   1.427  1.2542 -0.0691  0.2847
11452TIP3   OH255770   4.617   0.244   1.418 -0.0791 -0.5583 -0.0138
11452TIP3    H155771   4.529   0.230   1.450  0.0666 -2.0013 -0.2132
11452TIP3    H255772   4.605   0.288   1.334 -0.5973 -0.5577  0.0589
11453TIP3   OH255773   3.599   0.165  13.222 -0.3420 -0.0672  0.3200
11453TIP3    H155774   3.569   0.107  13.152 -2.2120  0.9393  0.2209
11453TIP3    H255775   3.665   0.220  13.181 -0.1907 -0.6202 -0.1871
11454TIP3   OH255776   1.020   5.199   3.774  0.0908 -0.2587 -0.5994
11454TIP3    H155777   1.026   5.290   3.743 -1.1249 -0.1892 -0.7166
11454TIP3    H255778   0.988   5.150   3.698  1.3070 -0.9058 -0.7112
11455TIP3   OH255779   6.600   2.529  16.949  0.0727 -0.5093  0.4046
11455TIP3    H155780   6.582   2.533  16.855 -0.4162 -0.3628  0.5019
11455TIP3    H255781   6.611   2.435  16.966  0.3627 -0.5209  0.1652
11456TIP3   OH255782   4.879   1.373   3.750 -0.5204  0.3032 -0.1045
11456TIP3    H155783   4.843   1.305   3.808 -0.1311 -0.5259 -0.8147
11456TIP3    H255784   4.913   1.325   3.675  2.6106  0.9530  0.7763
11457TIP3   OH255785   3.418   6.332  16.267  0.3213  0.1685  0.5731
11457TIP3    H155786   3.346   6.389  16.239 -1.0947 -1.3421  0.9824
11457TIP3    H255787   3.387   6.244  16.247  2.5890 -0.4870 -0.3404
11458TIP3   OH255788   2.222   0.270  15.175  0.2275 -0.5080  0.3396
11458TIP3    H155789   2.193   0.296  15.263 -2.9841 -1.1050 -0.4245
11458TIP3    H255790   2.228   0.352  15.127  1.1797 -0.2529  0.8742
11459TIP3   OH255791   2.807   2.147  14.333 -1.3036  0.0001 -0.1088
11459TIP3    H155792   2.713   2.158  14.351 -0.6876  0.5421  3.5246
11459TIP3    H255793   2.834   2.076  14.391  0.5440 -0.2094 -1.1537
11460TIP3   OH255794   5.115   5.654   5.178  0.1711 -0.0505 -0.1306
11460TIP3    H155795   5.055   5.728   5.170  0.7151  0.3732 -0.3421
11460TIP3    H255796   5.169   5.675   5.255 -0.6228 -0.9222  0.6832
11461TIP3   OH255797   5.322   4.869  15.440 -0.1123 -0.1270 -0.0016
11461TIP3    H155798   5.333   4.964  15.440 -0.7008 -0.0427 -1.4354
11461TIP3    H255799   5.331   4.845  15.532 -0.2752  1.3476  0.4326
11462TIP3   OH255800   0.017   5.527  13.782 -0.1574 -0.2848 -0.0047
11462TIP3    H155801   0.044   5.437  13.766  0.1294  0.0107 -1.2702
11462TIP3    H255802  -0.068   5.535  13.740  0.4079  0.3883 -1.0515
11463TIP3   OH255803   5.425   2.270   0.719  0.5328 -0.4361  0.0778
11463TIP3    H155804   5.442   2.275   0.624 -1.7282 -3.2836 -0.5980
11463TIP3    H255805   5.346   2.322   0.732  1.0728  0.2918  0.5114
11464TIP3   OH255806   3.884   2.199   6.306 -0.3700  0.4033 -0.5058
11464TIP3    H155807   3.960   2.245   6.342 -2.0359  2.7979  0.2080
11464TIP3    H255808   3.817   2.208   6.373 -1.4988 -1.1121 -1.3794
11465TIP3   OH255809   5.729   1.289   2.756  0.3922 -0.1854  0.3337
11465TIP3    H155810   5.702   1.345   2.683  1.7796  1.0885  0.7628
11465TIP3    H255811   5.669   1.214   2.751 -0.3602  0.4652 -1.3371
11466TIP3   OH255812   4.706   4.522  11.542  0.1225  0.6138 -0.3725
11466TIP3    H155813   4.659   4.537  11.460  1.8514  1.6017 -1.2228
11466TIP3    H255814   4.712   4.426  11.549  0.2359  0.5245 -1.5618
11467TIP3   OH255815   4.295   5.948   1.448  0.0103 -0.3074  0.0630
11467TIP3    H155816   4.251   5.871   1.412 -0.4101 -0.5569  1.0773
11467TIP3    H255817   4.317   6.001   1.371  0.0838 -1.3170 -0.6297
11468TIP3   OH255818   4.984   0.294   4.606  0.1536  0.3004  0.1402
11468TIP3    H155819   4.903   0.264   4.565 -0.9132  1.6955  1.1376
11468TIP3    H255820   4.955   0.343   4.683  1.9775  0.3282  0.8521
11469TIP3   OH255821   3.554   2.556  15.244  0.8413  0.2503 -0.2892
11469TIP3    H155822   3.593   2.637  15.212 -0.1261  1.1829  0.8168
11469TIP3    H255823   3.467   2.553  15.204 -0.2084  1.2048  1.7713
11470TIP3   OH255824   4.977   2.124  16.331 -0.2297  0.4261 -0.0353
11470TIP3    H155825   4.955   2.150  16.242 -0.6683 -0.4517 -0.1950
11470TIP3    H255826   5.052   2.065  16.322 -0.8406 -0.3982  0.0734
11471TIP3   OH255827   3.927   2.350  11.659 -0.0974 -0.3155 -0.3173
11471TIP3    H155828   3.942   2.388  11.746 -1.6426 -0.4832  0.0560
11471TIP3    H255829   4.009   2.363  11.612  0.4020  0.7631  0.8117
11472TIP3   OH255830   6.123   1.246   4.544  0.1149 -0.7055  0.3478
11472TIP3    H155831   6.131   1.300   4.623 -1.4746  0.8594 -0.4959
11472TIP3    H255832   6.214   1.230   4.517  0.6673  0.9279  1.0676
11473TIP3   OH255833   3.147   3.984  16.650 -0.4893 -0.0417  0.1510
11473TIP3    H155834   3.207   3.948  16.715  0.6476 -1.5683 -1.6430
11473TIP3    H255835   3.060   3.963  16.683 -0.0720  1.1317  2.1938
11474TIP3   OH255836   6.612   0.688  16.815  0.1725  0.1783  0.3834
11474TIP3    H155837   6.705   0.704  16.796  0.1278 -0.5001 -0.4425
11474TIP3    H255838   6.606   0.594  16.830 -0.6785 -0.1140 -1.4849
11475TIP3   OH255839   0.597   4.245   5.362  0.2668  0.1617  0.2919
11475TIP3    H155840   0.633   4.305   5.427 -0.4914  0.9253  0.0177
11475TIP3    H255841   0.513   4.218   5.398 -0.5137  1.1980 -0.7184
11476TIP3   OH255842   1.829   1.770   4.222 -0.4754 -0.1220  0.1580
11476TIP3    H155843   1.914   1.789   4.260  0.1690 -1.1608 -0.6815
11476TIP3    H255844   1.778   1.732   4.293 -0.6666  1.5940  0.9748
11477TIP3   OH255845   2.098   3.164   0.831  0.2119 -0.3266 -0.5130
11477TIP3    H155846   2.005   3.151   0.812  0.0128  0.3023 -0.0010
11477TIP3    H255847   2.137   3.078   0.817 -0.5358 -0.7204 -0.2587
11478TIP3   OH255848   6.459   2.121   5.272  0.0265  0.3837  0.0308
11478TIP3    H155849   6.483   2.060   5.342  0.6150 -0.4182 -0.8512
11478TIP3    H255850   6.513   2.095   5.198  0.5565  2.2307 -0.2667
11479TIP3   OH255851   1.998   2.608  16.144 -0.7708 -0.1440 -0.0410
11479TIP3    H155852   1.987   2.656  16.062 -0.6283 -0.5149 -0.2818
11479TIP3    H255853   1.981   2.673  16.212 -0.3381  0.3081 -0.3560
11480TIP3   OH255854   1.130   0.124   5.119 -0.0678 -0.0921 -0.3626
11480TIP3    H155855   1.102   0.079   5.040  0.4530 -1.6309  0.2773
11480TIP3    H255856   1.056   0.178   5.145 -0.3289  0.2440 -1.7460
11481TIP3   OH255857   1.465   4.833  11.548 -0.0624  0.2005  0.2193
11481TIP3    H155858   1.400   4.884  11.596 -1.6986  0.7070 -2.3558
11481TIP3    H255859   1.468   4.749  11.595 -2.3826  0.2676  0.5982
11482TIP3   OH255860   3.861   5.879   4.984 -0.1415  0.0679  0.4470
11482TIP3    H155861   3.877   5.860   5.076  0.7702  0.8083  0.4521
11482TIP3    H255862   3.840   5.794   4.945  0.8483 -0.4722  1.0590
11483TIP3   OH255863   5.162   5.378  15.392  0.7463  0.3418 -0.7181
11483TIP3    H155864   5.185   5.398  15.483 -0.3014  0.1286 -0.4018
11483TIP3    H255865   5.199   5.451  15.342  0.4730  0.9684 -0.0177
11484TIP3   OH255866   1.412   5.611   2.940 -0.2180  0.4647  1.6569
11484TIP3    H155867   1.484   5.614   3.003 -0.5761  0.6992  2.0645
11484TIP3    H255868   1.362   5.690   2.958  0.4830  1.3089  0.0903
11485TIP3   OH255869   2.904   3.726   5.472 -0.1610 -0.4783  0.4997
11485TIP3    H155870   2.981   3.679   5.439 -0.4106 -2.9650  3.0768
11485TIP3    H255871   2.832   3.663   5.462 -1.1459  0.4694  1.3839
11486TIP3   OH255872   6.642   4.746  14.139  0.6311  0.2244  0.0131
11486TIP3    H155873   6.662   4.831  14.100 -0.1788  0.1492 -0.6119
11486TIP3    H255874   6.674   4.752  14.229  0.1355  1.3725  0.1303
11487TIP3   OH255875   3.288   1.683  16.492  0.3048 -0.7403 -0.0094
11487TIP3    H155876   3.218   1.685  16.558 -0.0140 -0.4868 -0.3500
11487TIP3    H255877   3.347   1.754  16.518 -0.6295  0.4097 -0.8518
11488TIP3   OH255878   1.846   1.370   4.811 -0.2951 -0.0891  0.2097
11488TIP3    H155879   1.890   1.453   4.830  0.9420 -0.3040 -1.4236
11488TIP3    H255880   1.836   1.328   4.896 -0.2528  1.3906  0.9848
11489TIP3   OH255881   5.530   5.629  11.729 -0.6082 -0.3036  0.1999
11489TIP3    H155882   5.452   5.655  11.778  0.8167  0.3814  2.2003
11489TIP3    H255883   5.572   5.563  11.783  1.1913  0.7241  0.1334
11490TIP3   OH255884   4.304   6.198  11.111 -0.4144  0.2755 -0.0563
11490TIP3    H155885   4.325   6.284  11.075  0.5323 -0.6864 -1.8977
11490TIP3    H255886   4.389   6.156  11.126 -0.8734 -0.6765 -0.0114
11491TIP3   OH255887   0.289   5.576  16.118 -0.4933  0.4210  0.0667
11491TIP3    H155888   0.273   5.506  16.055  0.8409 -0.4577  0.6483
11491TIP3    H255889   0.285   5.533  16.203  0.5685  0.9826  0.4281
11492TIP3   OH255890   4.612   5.308   5.496 -0.0124 -0.1596 -0.1210
11492TIP3    H155891   4.549   5.300   5.568 -1.6795  0.3612 -1.4536
11492TIP3    H255892   4.633   5.402   5.493  1.0154 -0.3608  0.4474
11493TIP3   OH255893   2.277   3.476  17.282  0.1907 -0.0344  0.4037
11493TIP3    H155894   2.356   3.434  17.313  0.4667  1.0597  1.2546
11493TIP3    H255895   2.291   3.569  17.300 -1.0629  0.2344  0.0827
11494TIP3   OH255896   0.546   1.635  10.917  0.1812 -0.2995  0.2619
11494TIP3    H155897   0.540   1.731  10.920 -0.7383 -0.3675  1.3392
11494TIP3    H255898   0.601   1.617  10.841  0.4803  1.0877  0.1165
11495TIP3   OH255899   4.398   3.321  14.679  0.0912  0.0013  0.3000
11495TIP3    H155900   4.308   3.302  14.703  0.2485  1.3764  2.1741
11495TIP3    H255901   4.399   3.414  14.656  1.2262  0.3367  1.5595
11496TIP3   OH255902   0.791   5.296   5.621 -0.7539  0.3214 -0.2886
11496TIP3    H155903   0.797   5.202   5.638 -0.8463  0.7693  2.7132
11496TIP3    H255904   0.786   5.336   5.708  0.9395  3.2451 -1.3922
11497TIP3   OH255905   5.353   2.960  14.837 -0.2160 -0.0611 -0.1374
11497TIP3    H155906   5.301   2.943  14.758  0.5168  0.7226 -0.8178
11497TIP3    H255907   5.444   2.964  14.805  0.0250  0.9307  0.6315
11498TIP3   OH255908   4.647   4.121   0.704  0.0022  0.2693 -0.5705
11498TIP3    H155909   4.579   4.117   0.636  0.7124  3.2885 -1.5871
11498TIP3    H255910   4.718   4.066   0.670 -0.7550 -0.5393 -0.8909
11499TIP3   OH255911   0.977   0.428   1.383  0.3360 -0.2586 -0.4870
11499TIP3    H155912   0.979   0.508   1.437  0.3329 -0.3983 -0.2789
11499TIP3    H255913   1.055   0.434   1.328  0.9288 -0.6397  0.2964
11500TIP3   OH255914   3.739   2.748   0.297 -0.6584  0.3712 -0.0642
11500TIP3    H155915   3.734   2.780   0.207 -0.0211  1.4599  0.2678
11500TIP3    H255916   3.749   2.653   0.288  0.4925  0.5663 -1.1732
11501TIP3   OH255917   1.541   1.198   3.510  0.2711 -0.1135 -0.4582
11501TIP3    H155918   1.589   1.279   3.499  1.0191 -0.4520  0.1666
11501TIP3    H255919   1.572   1.163   3.594  0.7196 -1.5429 -1.1803
11502TIP3   OH255920   6.734   3.704  13.730  0.3249  0.1105  0.5224
11502TIP3    H155921   6.739   3.610  13.748 -0.1001 -0.0782 -0.3123
11502TIP3    H255922   6.751   3.745  13.815  2.4039 -0.6678  0.5540
11503TIP3   OH255923   5.703   5.780   2.830  0.1158  0.0183  0.7136
11503TIP3    H155924   5.730   5.754   2.918  1.3228 -0.4768  0.2096
11503TIP3    H255925   5.608   5.789   2.836  0.3314  1.9355  2.5777
11504TIP3   OH255926   2.967   1.903   2.856  0.6870  0.5231  0.3337
11504TIP3    H155927   2.991   1.972   2.794  4.1264  0.4063  1.3071
11504TIP3    H255928   2.932   1.950   2.932  1.8758  1.1597  0.5182
11505TIP3   OH255929   5.158   4.613   1.604 -0.1125 -0.8304  0.4745
11505TIP3    H155930   5.252   4.626   1.618  0.3661 -2.4443 -0.8632
11505TIP3    H255931   5.131   4.556   1.676  0.3747 -1.8726 -0.1373
11506TIP3   OH255932   4.622   2.349  15.916 -0.0575 -0.0051 -0.1509
11506TIP3    H155933   4.689   2.414  15.893  0.2534 -1.2535 -3.2952
11506TIP3    H255934   4.668   2.265  15.915 -0.9972 -0.5570  1.1280
11507TIP3   OH255935   0.201   5.132   0.279  0.1360 -0.0943  0.5133
11507TIP3    H155936   0.208   5.038   0.265  0.5247  0.1267 -1.0058
11507TIP3    H255937   0.113   5.154   0.249  0.7941  0.3066 -1.3208
11508TIP3   OH255938   4.362   1.885  11.110  0.6010 -0.3617 -0.1167
11508TIP3    H155939   4.439   1.933  11.077  0.0071 -0.2372 -1.3922
11508TIP3    H255940   4.312   1.864  11.031 -0.6080 -0.5618  0.6831
11509TIP3   OH255941   3.273   4.398  14.736 -0.7366  0.2316  0.3247
11509TIP3    H155942   3.184   4.429  14.750 -0.0760  1.6592  1.4994
11509TIP3    H255943   3.303   4.446  14.659 -1.5875 -1.6943 -1.3235
11510TIP3   OH255944   4.551   6.643   4.211  0.0380  0.1014  0.1019
11510TIP3    H155945   4.542   6.660   4.305  0.5234  1.5970 -0.0985
11510TIP3    H255946   4.466   6.665   4.174  0.1307  0.4135  0.0727
11511TIP3   OH255947   6.435   5.874  17.175  0.3158 -0.8559  0.3142
11511TIP3    H155948   6.489   5.812  17.222  0.0076 -1.2679  0.1292
11511TIP3    H255949   6.376   5.910  17.241  0.4739 -0.7811  0.4136
11512TIP3   OH255950   1.232   5.306  16.717  0.3834 -0.0324 -0.0684
11512TIP3    H155951   1.281   5.354  16.650  0.1062 -1.6238 -1.4638
11512TIP3    H255952   1.151   5.279  16.673  0.1780 -1.0690  0.9086
11513TIP3   OH255953   1.397   5.298  10.915 -0.0081  0.9797  0.2241
11513TIP3    H155954   1.476   5.313  10.863  0.2528 -0.4315  0.1515
11513TIP3    H255955   1.407   5.354  10.991  0.9297  1.0518  0.0609
11514TIP3   OH255956   0.012   6.727   5.401 -0.4340 -0.0363 -0.0291
11514TIP3    H155957   0.008   6.633   5.382  0.7787 -0.2406  0.6203
11514TIP3    H255958   0.071   6.734   5.476 -1.6929  1.1174  0.9153
11515TIP3   OH255959   1.109   1.491  15.414 -0.1681 -0.2015 -0.6066
11515TIP3    H155960   1.117   1.442  15.495 -1.9591  3.0108  1.7538
11515TIP3    H255961   1.199   1.509  15.388  0.4547 -1.7581  0.3424
11516TIP3   OH255962   2.908   5.464   1.158 -0.2493  1.0434  0.5016
11516TIP3    H155963   2.843   5.511   1.106  0.1627  1.4060  0.3101
11516TIP3    H255964   2.992   5.496   1.126  0.1151 -1.0283 -0.7706
11517TIP3   OH255965   5.855   0.275   2.556 -0.0924  0.1492 -0.2332
11517TIP3    H155966   5.769   0.269   2.514 -1.1794 -0.3328  1.9397
11517TIP3    H255967   5.864   0.368   2.580  0.1779  0.2690 -0.7725
11518TIP3   OH255968   0.961   6.165   1.288 -0.5891  0.3474 -0.0674
11518TIP3    H155969   0.969   6.254   1.254  0.7301  0.0668 -0.5402
11518TIP3    H255970   0.926   6.176   1.376  0.5713  1.4115  0.2798
11519TIP3   OH255971   5.658   1.461   0.276 -0.0888 -0.3744  0.2369
11519TIP3    H155972   5.567   1.469   0.248  0.2096 -0.4038 -0.7820
11519TIP3    H255973   5.663   1.374   0.316 -0.6858 -0.0622  1.0058
11520TIP3   OH255974   1.563   4.022   0.473 -0.7191 -0.1435  0.3937
11520TIP3    H155975   1.514   3.955   0.523 -2.0270  0.0577 -0.5577
11520TIP3    H255976   1.581   3.980   0.389  0.7717 -0.2002  0.7213
11521TIP3   OH255977   2.400   6.734  14.399  0.9720 -0.2305 -0.0105
11521TIP3    H155978   2.322   6.764  14.351  1.2460 -1.9223 -1.6297
11521TIP3    H255979   2.376   6.647  14.431  1.0952  0.5296  2.3411
11522TIP3   OH255980   6.602   2.520  11.628  0.3975 -0.2012  0.0159
11522TIP3    H155981   6.676   2.563  11.585  1.6083 -0.1628  2.0526
11522TIP3    H255982   6.553   2.480  11.556  1.2291  1.5187 -1.5859
11523TIP3   OH255983   4.924   5.933   0.849 -0.2171 -0.1285 -0.1645
11523TIP3    H155984   4.934   5.885   0.767  0.3283  0.0036 -0.1833
11523TIP3    H255985   4.990   5.895   0.907  0.4088  0.7669 -0.2670
11524TIP3   OH255986   5.070   4.793  13.012 -0.0128  0.4113  0.1779
11524TIP3    H155987   5.128   4.726  13.048 -0.2939  0.5295  0.8557
11524TIP3    H255988   5.007   4.744  12.958  0.5249  0.2563 -0.3196
11525TIP3   OH255989   5.610   2.033  11.798 -0.1644  0.1367 -0.1330
11525TIP3    H155990   5.659   1.985  11.730 -0.4822 -0.4176  0.0194
11525TIP3    H255991   5.675   2.092  11.837 -0.0393  0.6404 -1.0852
11526TIP3   OH255992   5.101   4.186  12.684  0.2043  0.0428 -0.2862
11526TIP3    H155993   5.109   4.119  12.752 -0.4117  0.6176  0.3660
11526TIP3    H255994   5.096   4.136  12.602  2.1835 -0.6205 -0.0657
11527TIP3   OH255995   3.671   4.633   1.661 -0.3134 -0.0565 -0.9276
11527TIP3    H155996   3.668   4.545   1.623 -0.7432 -0.9513  1.0657
11527TIP3    H255997   3.676   4.618   1.755  0.9170  2.0683 -0.6068
11528TIP3   OH255998   4.551   4.226  12.660 -0.0612 -0.2608  0.1755
11528TIP3    H155999   4.640   4.192  12.671  1.4500  2.3818 -2.4239
11528TIP3    H256000   4.503   4.154  12.620  1.8142 -0.8013 -1.2333
11529TIP3   OH256001   2.918   3.261  13.514 -0.8721  0.2806 -0.0115
11529TIP3    H156002   2.905   3.317  13.591  2.9606  1.5446 -0.0506
11529TIP3    H256003   2.991   3.204  13.539  0.2525  0.4992 -2.5624
11530TIP3   OH256004   2.752   4.833  11.082  0.4587  0.0280 -0.3335
11530TIP3    H156005   2.729   4.834  10.989 -0.5008 -1.2426 -0.1392
11530TIP3    H256006   2.717   4.750  11.114 -1.4987  1.5649  1.7360
11531TIP3   OH256007   2.992   1.442  13.522 -0.2014 -0.5410 -0.0105
11531TIP3    H156008   3.037   1.358  13.522  1.0663  0.0676 -2.4359
11531TIP3    H256009   3.000   1.473  13.613  2.6457 -1.3210  0.0973
11532TIP3   OH256010   3.189   0.582   5.005 -0.3055  0.4250 -0.9271
11532TIP3    H156011   3.109   0.619   4.968  0.1594  0.7938 -1.5857
11532TIP3    H256012   3.246   0.658   5.018 -0.1566  0.1949 -0.2246
11533TIP3   OH256013   4.193   2.711   0.633  0.0415 -0.3523  0.3613
11533TIP3    H156014   4.275   2.662   0.631  0.4712  0.3701 -0.8383
11533TIP3    H256015   4.133   2.660   0.579 -0.1082 -0.5364  0.6951
11534TIP3   OH256016   2.804   1.945  15.791 -0.4260 -0.8198 -0.4022
11534TIP3    H156017   2.858   1.891  15.733  2.0755  0.2856  0.7526
11534TIP3    H256018   2.838   1.927  15.878 -3.5614 -1.8260  0.7530
11535TIP3   OH256019   1.035   6.580   1.582 -0.3655 -0.1227 -0.3745
11535TIP3    H156020   1.070   6.491   1.581  0.3361  0.1379  0.3681
11535TIP3    H256021   1.043   6.610   1.491  1.0736 -0.1764 -0.2898
11536TIP3   OH256022   6.086   1.498  14.115 -0.2690 -0.0757  0.2677
11536TIP3    H156023   6.056   1.558  14.046 -0.0392  0.4465  0.6184
11536TIP3    H256024   6.157   1.545  14.158 -1.3564  0.2453  1.8097
11537TIP3   OH256025   0.006   4.798  17.285 -0.1691  0.5768  0.6433
11537TIP3    H156026  -0.049   4.719  17.281 -0.7311  0.8477  2.1370
11537TIP3    H256027  -0.057   4.870  17.291  0.3468  1.1045 -0.2155
11538TIP3   OH256028   0.465   4.277  12.121  0.0839 -0.4032  0.1555
11538TIP3    H156029   0.501   4.198  12.081  0.9147 -0.2217  0.5356
11538TIP3    H256030   0.424   4.324  12.047  3.2995  0.9011 -0.9803
11539TIP3   OH256031   1.924   1.932  15.704 -0.0631  0.5879 -0.6079
11539TIP3    H156032   2.000   1.876  15.719 -0.6407 -0.3282 -1.0002
11539TIP3    H256033   1.942   2.011  15.755  0.5912 -0.1118  0.2781
11540TIP3   OH256034   2.029   5.700  11.619 -0.6320 -0.3213 -0.9486
11540TIP3    H156035   1.973   5.758  11.569 -2.5862 -2.0285 -0.8462
11540TIP3    H256036   2.067   5.756  11.687 -4.1126  0.5399  0.5180
11541TIP3   OH256037   2.993   1.072  16.364 -0.5219  0.9812 -0.1303
11541TIP3    H156038   3.049   1.063  16.441  0.7881 -0.1219 -1.1701
11541TIP3    H256039   2.914   1.116  16.397  0.3507  1.3022  1.6529
11542TIP3   OH256040   0.709   6.271   0.772  0.3108 -0.1430  0.4255
11542TIP3    H156041   0.717   6.362   0.745  0.2227  0.2709  1.7142
11542TIP3    H256042   0.686   6.224   0.692  0.2285  0.9792 -0.2326
11543TIP3   OH256043   2.970   0.417  12.209 -0.5494  0.1328 -0.1623
11543TIP3    H156044   3.061   0.438  12.231 -0.6473 -0.0020  0.3780
11543TIP3    H256045   2.973   0.327  12.177 -0.8687 -0.9143  2.5016
11544TIP3   OH256046   5.067   4.325   3.108  0.0284  0.0105  0.0616
11544TIP3    H156047   4.984   4.367   3.085  0.2289  0.1728 -0.3667
11544TIP3    H256048   5.091   4.274   3.031 -0.7665 -1.8095  0.9688
11545TIP3   OH256049   5.417   4.548  11.890  0.2542 -0.0224  0.0691
11545TIP3    H156050   5.322   4.534  11.900  0.2742 -2.0224 -1.8155
11545TIP3    H256051   5.427   4.581  11.801  1.3421  0.1024  0.2238
11546TIP3   OH256052   1.189   2.806  14.568 -0.2858 -0.0075  0.3275
11546TIP3    H156053   1.112   2.795  14.512  0.5748 -0.8948 -0.7184
11546TIP3    H256054   1.251   2.855  14.514  0.5043 -0.7517  0.5474
11547TIP3   OH256055   4.668   3.854  15.991  0.2296 -0.1907  0.2383
11547TIP3    H156056   4.617   3.930  15.962 -1.8717 -1.6610 -0.1076
11547TIP3    H256057   4.749   3.859  15.940 -0.6190  0.8435 -1.0870
11548TIP3   OH256058   4.183   6.277  13.308 -0.3867  0.0556 -0.5461
11548TIP3    H156059   4.145   6.209  13.363  1.8065 -1.5207 -0.8259
11548TIP3    H256060   4.212   6.344  13.370  0.0045 -0.6358  0.0328
11549TIP3   OH256061   4.269   0.502   0.774  0.6730 -0.7376  0.2936
11549TIP3    H156062   4.265   0.554   0.693  3.9831 -1.7241 -0.6753
11549TIP3    H256063   4.306   0.561   0.839 -2.3311  0.1721  1.3736
11550TIP3   OH256064   3.411   6.528   1.925 -0.0969  0.0679  0.1157
11550TIP3    H156065   3.409   6.622   1.906  1.3882 -0.2718 -2.0338
11550TIP3    H256066   3.459   6.522   2.008  1.2285  1.1360 -0.5321
11551TIP3   OH256067   6.340   5.825  16.403  0.2383  0.6742  0.6178
11551TIP3    H156068   6.376   5.879  16.332 -1.1011 -0.5650 -1.0854
11551TIP3    H256069   6.300   5.888  16.463  0.1287  1.6951 -0.4832
11552TIP3   OH256070   2.268   3.743  12.889  0.3321  0.0840  0.4582
11552TIP3    H156071   2.345   3.759  12.835  0.2025  0.1927  0.3016
11552TIP3    H256072   2.292   3.772  12.976  1.6038 -2.8567  1.1864
11553TIP3   OH256073   4.639   2.303  11.662 -0.0184  0.3474  0.0971
11553TIP3    H156074   4.575   2.240  11.693 -1.1881  1.5037  0.1424
11553TIP3    H256075   4.724   2.268  11.688 -0.7361 -0.4766  1.3709
11554TIP3   OH256076   3.711   0.025   3.745  1.0417 -0.0338 -0.1688
11554TIP3    H156077   3.749   0.056   3.828 -0.2749 -0.3362  0.5747
11554TIP3    H256078   3.696  -0.069   3.760  0.4096 -0.0014 -0.6013
11555TIP3   OH256079   3.767   2.991   0.423  0.4802  0.1628  0.7454
11555TIP3    H156080   3.696   2.989   0.487  0.1671  1.8373  0.5048
11555TIP3    H256081   3.741   2.928   0.356 -1.4786  1.6684 -0.0099
11556TIP3   OH256082   2.676   5.490   2.596 -0.2560  0.2552 -0.0083
11556TIP3    H156083   2.684   5.562   2.659  1.0809 -1.5232  2.0171
11556TIP3    H256084   2.765   5.478   2.562 -0.5461 -0.1768 -0.6265
11557TIP3   OH256085   2.778   2.936   3.075  0.0474  0.1922 -0.0699
11557TIP3    H156086   2.866   2.904   3.093 -0.3893 -1.1386 -0.2031
11557TIP3    H256087   2.772   2.940   2.980  0.1248  0.7800 -0.0555
11558TIP3   OH256088   1.145   0.048  14.491  0.1951  0.6307  0.3249
11558TIP3    H156089   1.094   0.118  14.531 -0.4392 -0.1929  1.0033
11558TIP3    H256090   1.188   0.089  14.416 -0.4265  1.6539  0.5138
11559TIP3   OH256091   5.647   2.841  13.573 -0.1844 -0.2776 -0.4009
11559TIP3    H156092   5.637   2.751  13.604 -0.2722 -0.3628 -0.6730
11559TIP3    H256093   5.603   2.894  13.639  0.2174 -0.3974 -0.0294
11560TIP3   OH256094   4.816   1.201  13.763  0.1397  0.1512  0.6673
11560TIP3    H156095   4.767   1.179  13.842  1.6348 -1.9965  1.0767
11560TIP3    H256096   4.875   1.272  13.789 -2.5506  2.7523  0.1756
11561TIP3   OH256097   4.349   2.901  13.336 -0.0471 -0.0099 -0.1895
11561TIP3    H156098   4.361   2.828  13.274 -0.9434  0.4406 -0.9267
11561TIP3    H256099   4.435   2.913  13.377  0.8359  0.2855 -2.0339
11562TIP3   OH256100   2.867   2.501   3.060  0.3473  0.0953 -0.2509
11562TIP3    H156101   2.839   2.417   3.023  2.2266 -0.3927 -0.7212
11562TIP3    H256102   2.809   2.565   3.020 -0.3277 -0.8630 -0.8678
11563TIP3   OH256103   2.239   2.349  17.037 -0.4332 -0.3130  0.0136
11563TIP3    H156104   2.248   2.425  17.095  0.3893  0.8610 -1.5654
11563TIP3    H256105   2.317   2.297  17.054 -0.4923 -0.2929  0.3702
11564TIP3   OH256106   5.424   6.379  10.797  0.3808  0.4972  0.5353
11564TIP3    H156107   5.375   6.422  10.727  1.5463 -0.8501 -1.1651
11564TIP3    H256108   5.479   6.448  10.834 -0.4347  1.2791  0.3188
11565TIP3   OH256109   3.615   6.546   3.717  0.0514 -0.4596 -0.0318
11565TIP3    H156110   3.572   6.559   3.632  1.6663 -0.8827 -0.9530
11565TIP3    H256111   3.543   6.544   3.780 -1.1797  0.0586 -1.3582
11566TIP3   OH256112   2.437   0.052  13.161  0.3225 -0.3660 -0.3354
11566TIP3    H156113   2.345   0.072  13.177  0.0827  0.2453 -2.2256
11566TIP3    H256114   2.437  -0.024  13.104  0.8336  1.0240 -2.3234
11567TIP3   OH256115   5.725   2.131   4.951  0.5425 -0.1202  0.9010
11567TIP3    H156116   5.742   2.202   4.889  0.9424  0.6815  1.9020
11567TIP3    H256117   5.803   2.128   5.006 -0.4880  0.3332  2.4427
11568TIP3   OH256118   5.834   1.205  14.408 -0.3151  0.3414 -0.3240
11568TIP3    H156119   5.926   1.182  14.424 -0.7466 -1.8631 -0.6450
11568TIP3    H256120   5.833   1.301  14.409  1.9065  0.4296  0.0677
11569TIP3   OH256121   1.693   3.121   5.924 -0.3049 -0.0234 -0.1265
11569TIP3    H156122   1.762   3.133   5.859  0.0101 -1.4567 -0.0894
11569TIP3    H256123   1.709   3.189   5.989  0.5032  0.2523 -0.5974
11570TIP3   OH256124   4.564   0.973  13.355 -0.5421  0.0204 -0.4426
11570TIP3    H156125   4.611   1.036  13.410 -1.8102  1.1687 -0.6202
11570TIP3    H256126   4.477   0.968  13.392 -0.0942 -2.7816  0.4183
11571TIP3   OH256127   3.461   2.432   1.097  0.2051 -1.1910 -0.2765
11571TIP3    H156128   3.387   2.412   1.155 -0.2887 -0.1576 -0.5350
11571TIP3    H256129   3.498   2.346   1.076 -1.7338 -1.8454 -1.2197
11572TIP3   OH256130   1.119   3.479  11.430  0.0130  0.0047 -0.2894
11572TIP3    H156131   1.193   3.424  11.456 -0.5093 -0.1291  1.0063
11572TIP3    H256132   1.074   3.428  11.363  1.1463  0.1376 -1.1717
11573TIP3   OH256133   6.491   1.389  12.349  0.0135  0.2475 -0.0394
11573TIP3    H156134   6.406   1.390  12.304  0.2859 -3.1298 -0.8486
11573TIP3    H256135   6.481   1.455  12.418 -2.4159  1.6086 -1.5296
11574TIP3   OH256136   2.095   5.540  13.662 -0.6035  0.0225  0.4510
11574TIP3    H156137   2.063   5.590  13.586 -1.3413  0.2292  0.8791
11574TIP3    H256138   2.053   5.455  13.654  2.6012 -1.5352 -1.6627
11575TIP3   OH256139   3.858   3.926  15.904  0.2303 -0.3852 -0.2057
11575TIP3    H156140   3.948   3.960  15.905  0.0531  0.1696 -1.2610
11575TIP3    H256141   3.810   3.987  15.848 -1.2778  0.4139  1.8370
11576TIP3   OH256142   6.113   1.617   3.691  0.0261 -0.2778  0.1547
11576TIP3    H156143   6.140   1.600   3.782  1.7085 -1.1068 -0.4491
11576TIP3    H256144   6.106   1.530   3.652 -1.1769  0.0517 -0.3890
11577TIP3   OH256145   0.883   1.579   4.563 -0.3979 -0.0421 -0.9228
11577TIP3    H156146   0.851   1.530   4.639 -0.5861  1.4276 -0.0217
11577TIP3    H256147   0.958   1.528   4.531  0.1372 -0.3298  0.7053
11578TIP3   OH256148   3.809   3.900  17.164  0.0336 -0.0998 -0.6062
11578TIP3    H156149   3.792   3.815  17.125  0.8897 -0.1588 -0.8574
11578TIP3    H256150   3.835   3.880  17.254  0.0494 -0.0857 -0.6077
11579TIP3   OH256151   2.524   0.140  11.829  0.5373  0.2627  0.1292
11579TIP3    H156152   2.531   0.221  11.879  0.2574  0.2744  0.1527
11579TIP3    H256153   2.605   0.135  11.779 -0.7116  2.1760 -2.2795
11580TIP3   OH256154   2.475   5.491  16.398 -0.5762  0.5172  0.1562
11580TIP3    H156155   2.466   5.462  16.489 -0.0417 -2.2028 -0.5606
11580TIP3    H256156   2.435   5.420  16.347 -1.0519  2.0798 -1.7420
11581TIP3   OH256157   4.047   5.346   5.958  0.2937  0.0811  0.1434
11581TIP3    H156158   3.983   5.298   5.906  1.5369 -0.9576 -0.4783
11581TIP3    H256159   3.995   5.406   6.012 -1.3278 -2.1074  1.1216
11582TIP3   OH256160   3.666   0.821  14.302  0.1444  0.1748  0.1794
11582TIP3    H156161   3.714   0.896  14.267  2.2394 -0.5429  1.3054
11582TIP3    H256162   3.615   0.788  14.228  1.5596  0.9096 -1.1839
11583TIP3   OH256163   2.874   1.252   2.576  0.3143  0.1912  0.8017
11583TIP3    H156164   2.859   1.237   2.483 -0.5737  1.9549  0.6124
11583TIP3    H256165   2.802   1.206   2.619 -0.0985  0.5569  0.5119
11584TIP3   OH256166   1.859   6.723   0.175 -0.4641  0.2356  0.1810
11584TIP3    H156167   1.932   6.782   0.160 -0.1056 -0.7246 -2.6567
11584TIP3    H256168   1.806   6.730   0.095 -3.4203  0.7387  2.0367
11585TIP3   OH256169   6.444   3.263  14.165  0.1062  0.6901 -0.9986
11585TIP3    H156170   6.486   3.260  14.079  2.1662  2.0927 -0.1227
11585TIP3    H256171   6.506   3.218  14.223 -0.5507  1.0596  0.0043
11586TIP3   OH256172   5.937   1.417  10.570 -0.0204 -0.3055  0.2396
11586TIP3    H156173   5.970   1.352  10.508  1.0686 -0.8456  1.3450
11586TIP3    H256174   5.979   1.499  10.542  0.2399 -0.4857  0.0975
11587TIP3   OH256175   6.523   2.214  14.806 -0.0822 -0.2740  0.5311
11587TIP3    H156176   6.543   2.282  14.871 -1.8458 -0.4912  1.3592
11587TIP3    H256177   6.428   2.210  14.804 -0.0939 -0.1175 -2.3037
11588TIP3   OH256178   0.938   0.249   1.158 -0.4073  0.3158  0.3734
11588TIP3    H156179   0.854   0.265   1.115 -1.3088 -0.6188  1.7095
11588TIP3    H256180   0.930   0.290   1.244  0.2754 -0.2854  0.7373
11589TIP3   OH256181   6.493   3.156   2.194 -0.1362  0.0976 -0.1035
11589TIP3    H156182   6.430   3.138   2.263  0.0545 -1.0946 -0.2151
11589TIP3    H256183   6.555   3.218   2.233 -1.2058  1.0854  0.0849
11590TIP3   OH256184   1.725   1.005  14.601  0.2305 -0.0630  0.0462
11590TIP3    H156185   1.820   1.010  14.593  0.3975 -1.9404  0.5845
11590TIP3    H256186   1.696   0.958  14.522 -0.0078 -1.5502  0.9988
11591TIP3   OH256187   2.409   2.407  14.912 -0.2513  0.0274 -0.0816
11591TIP3    H156188   2.345   2.463  14.956 -0.5818  0.0550 -0.5968
11591TIP3    H256189   2.457   2.467  14.855 -0.7965 -0.2522 -0.8497
11592TIP3   OH256190   0.356   6.601   4.903 -0.3123 -0.2758 -0.3333
11592TIP3    H156191   0.423   6.652   4.857 -0.8965  0.1138 -0.7608
11592TIP3    H256192   0.406   6.542   4.959  0.4354 -0.9500 -1.6636
11593TIP3   OH256193   5.670   6.509   0.090 -0.3979  0.0482 -0.2900
11593TIP3    H156194   5.586   6.529   0.047 -1.3396  1.3813  1.9848
11593TIP3    H256195   5.645   6.473   0.175  1.3201  1.0790  0.6918
11594TIP3   OH256196   3.475   3.814  15.295  0.4159  0.2978 -0.1013
11594TIP3    H156197   3.483   3.747  15.363  0.3587  0.1952 -0.1951
11594TIP3    H256198   3.402   3.785  15.241  0.3310  0.4863 -0.0879
11595TIP3   OH256199   3.286   4.346  12.366  0.1038 -0.4548  0.7105
11595TIP3    H156200   3.367   4.368  12.413  0.6188  0.6477 -0.6048
11595TIP3    H256201   3.290   4.252  12.353 -0.2341 -0.8763  3.1247
11596TIP3   OH256202   1.339   2.270   4.518  0.6952 -0.1301  0.0383
11596TIP3    H156203   1.344   2.254   4.612  0.4225 -0.1612  0.0457
11596TIP3    H256204   1.401   2.208   4.480  0.2852 -0.6000  0.1383
11597TIP3   OH256205   5.559   5.571   4.535  0.1630  0.4744 -0.2810
11597TIP3    H156206   5.506   5.578   4.456  1.2249 -0.4997 -1.1180
11597TIP3    H256207   5.604   5.487   4.527  2.6292  1.6840 -0.1525
11598TIP3   OH256208   4.247   0.396  13.045  0.6029 -0.7063 -0.3859
11598TIP3    H156209   4.295   0.434  12.971 -0.1312 -0.0790 -0.5473
11598TIP3    H256210   4.223   0.308  13.015  1.9354 -1.1782 -0.1700
11599TIP3   OH256211   4.068   5.962  11.521 -0.0384  0.1413  0.7047
11599TIP3    H156212   4.097   5.873  11.540  0.9294  0.4581  0.7735
11599TIP3    H256213   4.146   6.007  11.489 -0.4384  1.0414  0.9406
11600TIP3   OH256214   1.536   1.642  11.215 -0.6247  0.4329 -0.2564
11600TIP3    H156215   1.577   1.570  11.167 -0.5667  0.8730 -0.8842
11600TIP3    H256216   1.565   1.720  11.168  0.1902  0.9500  1.0557
11601TIP3   OH256217   3.557   6.572  13.446 -0.4752  0.3194  0.6793
11601TIP3    H156218   3.603   6.596  13.365 -1.1642  0.7125  0.3937
11601TIP3    H256219   3.472   6.539  13.415 -0.2067 -0.8623  1.1640
11602TIP3   OH256220   1.212   4.144  13.543 -0.5771 -0.5198 -0.3570
11602TIP3    H156221   1.173   4.056  13.541  0.8749 -1.1866 -1.5459
11602TIP3    H256222   1.192   4.181  13.457  1.1067 -0.7725 -0.8880
11603TIP3   OH256223   3.018   4.673  16.752 -0.5116  0.0932  0.0133
11603TIP3    H156224   3.075   4.633  16.817  1.7051 -1.2078 -2.5109
11603TIP3    H256225   3.036   4.767  16.757 -0.4414  0.0244  1.2821
11604TIP3   OH256226   5.299   0.285   4.561  0.0883  0.1613 -0.2092
11604TIP3    H156227   5.214   0.323   4.582  0.3308  1.1646 -0.9375
11604TIP3    H256228   5.360   0.359   4.565  0.9125 -0.5136  0.1784
11605TIP3   OH256229   3.029   5.602   2.625 -0.6118  0.2521 -0.0689
11605TIP3    H156230   3.016   5.603   2.719 -0.4995  0.4984 -0.0564
11605TIP3    H256231   3.025   5.694   2.598 -0.6575  0.1829 -0.3055
11606TIP3   OH256232   5.130   3.483  16.434  0.1399 -0.2817 -0.3628
11606TIP3    H156233   5.116   3.561  16.379  1.8714  0.1753 -0.2089
11606TIP3    H256234   5.046   3.437  16.431 -0.0967  0.1597 -2.7014
11607TIP3   OH256235   4.050   4.721   4.437  0.5113  0.2272 -0.7016
11607TIP3    H156236   4.046   4.816   4.424  1.6380  0.8891  2.7089
11607TIP3    H256237   4.012   4.707   4.523  0.4187 -2.4748 -1.0913
11608TIP3   OH256238   2.521   6.073  15.077  0.2010  0.0890 -0.6326
11608TIP3    H156239   2.555   6.161  15.061 -0.5376 -0.0077 -3.0320
11608TIP3    H256240   2.497   6.073  15.170 -2.1184  3.2630 -1.0957
11609TIP3   OH256241   4.474   1.812   3.875 -0.2422 -0.1712 -0.3659
11609TIP3    H156242   4.424   1.892   3.858  1.8902  0.6387 -3.8768
11609TIP3    H256243   4.537   1.838   3.943 -1.4231  0.2014  0.6181
11610TIP3   OH256244   1.995   1.132  13.201 -0.1756 -0.1119  0.2142
11610TIP3    H156245   1.920   1.181  13.233  1.0304  0.2605  2.6802
11610TIP3    H256246   2.071   1.178  13.237  1.0724 -3.0486  1.6458
11611TIP3   OH256247   6.739   3.841  15.505  0.0904  0.6704 -0.0788
11611TIP3    H156248   6.669   3.895  15.543  0.7488  0.8410  0.9311
11611TIP3    H256249   6.813   3.853  15.564  0.1553 -1.6335  0.4015
11612TIP3   OH256250   5.391   4.425  14.485  0.3223  0.1525  0.5400
11612TIP3    H156251   5.312   4.424  14.540 -0.1348 -1.0377 -0.1036
11612TIP3    H256252   5.446   4.494  14.523 -0.2150 -0.2653  2.1445
11613TIP3   OH256253   6.669   0.510   5.264 -0.4658  0.0866 -0.1727
11613TIP3    H156254   6.705   0.447   5.201  0.4619 -0.2163  0.6379
11613TIP3    H256255   6.626   0.575   5.209 -0.5193 -0.6779 -1.0827
11614TIP3   OH256256   1.103   6.715  16.066 -0.8447 -0.5866  0.1914
11614TIP3    H156257   1.120   6.776  16.138 -0.5240  0.3520 -0.6633
11614TIP3    H256258   1.038   6.759  16.012 -1.2581 -1.3879  0.0247
11615TIP3   OH256259   3.961   2.420  11.901 -0.5230  0.4079  0.3509
11615TIP3    H156260   3.927   2.337  11.934  0.0934 -0.1787 -0.4706
11615TIP3    H256261   4.015   2.454  11.973 -0.3569 -0.1545  0.4970
11616TIP3   OH256262   5.591   1.554  15.734 -0.6580  0.0359 -0.3341
11616TIP3    H156263   5.583   1.539  15.828  0.2551  1.2678 -0.0379
11616TIP3    H256264   5.593   1.649  15.725 -0.0299 -0.0730 -1.5371
11617TIP3   OH256265   1.064   2.706  15.695  0.1214 -0.2334  0.1943
11617TIP3    H156266   1.036   2.734  15.782 -1.1247 -0.2498 -0.1817
11617TIP3    H256267   1.082   2.788  15.649 -0.5160 -0.1624  0.0615
11618TIP3   OH256268   4.952   1.903   5.596  0.1920 -0.1773  0.8526
11618TIP3    H156269   5.030   1.955   5.618 -0.2245  0.1721  1.5325
11618TIP3    H256270   4.945   1.839   5.666  1.0306 -1.5623 -0.2831
11619TIP3   OH256271   5.796   3.386  14.823  0.0382  0.4035 -0.2039
11619TIP3    H156272   5.777   3.300  14.860  1.7721 -0.5695 -1.3930
11619TIP3    H256273   5.829   3.437  14.897 -2.7048  0.7185  0.9124
11620TIP3   OH256274   2.014   3.636   4.683 -0.0651 -0.3015 -0.0975
11620TIP3    H156275   2.087   3.690   4.651  0.4416 -0.3585  0.9216
11620TIP3    H256276   1.966   3.611   4.604  0.4879  0.5052 -0.7010
11621TIP3   OH256277   1.151   3.766   4.692  0.2420 -0.3957  0.8315
11621TIP3    H156278   1.170   3.770   4.785 -0.1124 -1.4656  0.9518
11621TIP3    H256279   1.147   3.673   4.671 -0.9269 -0.1871  0.0096
11622TIP3   OH256280   1.054   1.886  13.385 -0.8158 -0.1536  0.2130
11622TIP3    H156281   1.050   1.981  13.392  1.8038  0.0703 -0.5178
11622TIP3    H256282   1.032   1.868  13.294 -0.8508 -0.2083  0.2322
11623TIP3   OH256283   6.579   5.520   5.170 -0.6533  0.0396 -0.0994
11623TIP3    H156284   6.605   5.517   5.263  0.3136 -1.8781 -0.3824
11623TIP3    H256285   6.560   5.612   5.154  1.1333  0.7642  1.5014
11624TIP3   OH256286   1.506   0.753   0.343  0.0595 -0.2164  0.4145
11624TIP3    H156287   1.456   0.680   0.306 -1.0223 -0.7178  2.6993
11624TIP3    H256288   1.504   0.738   0.438  1.5014  1.7327  0.8199
11625TIP3   OH256289   2.041   1.813   4.415  0.2588 -0.1416  0.3352
11625TIP3    H156290   1.993   1.874   4.471  0.6706  0.2481  0.2636
11625TIP3    H256291   2.025   1.727   4.455 -2.7184 -0.4361 -1.1760
11626TIP3   OH256292   1.969   5.260  14.128 -0.1689 -0.5331  0.2826
11626TIP3    H156293   2.009   5.199  14.190 -0.3248 -1.5232 -0.5516
11626TIP3    H256294   1.897   5.210  14.089  0.7241 -0.4234 -1.6404
11627TIP3   OH256295   5.295   6.407   3.906 -0.4058  0.0257 -0.5456
11627TIP3    H156296   5.215   6.437   3.950  1.0070  4.2712 -0.3913
11627TIP3    H256297   5.344   6.361   3.974 -1.6410 -0.5122  0.0150
11628TIP3   OH256298   5.886   4.567   2.355 -0.1594  0.2159  0.0945
11628TIP3    H156299   5.795   4.596   2.349 -0.4775 -0.8483 -0.4031
11628TIP3    H256300   5.892   4.494   2.294  1.4157  1.2072 -1.0321
11629TIP3   OH256301   4.338   5.030   6.144  0.3588  0.6792  0.1481
11629TIP3    H156302   4.387   5.094   6.195  0.4457 -1.2770  2.7277
11629TIP3    H256303   4.363   4.946   6.181 -3.1652 -0.5858  0.0076
11630TIP3   OH256304   3.212   4.106   2.689 -0.3337  0.3256  0.5293
11630TIP3    H156305   3.307   4.093   2.698 -0.3069  1.1022  1.6762
11630TIP3    H256306   3.198   4.114   2.595  0.5233 -1.2332  0.2317
11631TIP3   OH256307   6.417   6.696   4.774  0.3258  0.4375  0.0223
11631TIP3    H156308   6.331   6.672   4.808 -0.2824 -0.1595 -1.8316
11631TIP3    H256309   6.478   6.672   4.844 -0.8384 -0.8927  0.6173
11632TIP3   OH256310   2.083   2.047   3.579  0.2170  0.0165 -0.3473
11632TIP3    H156311   2.132   2.044   3.497 -1.1484 -0.1625 -1.1782
11632TIP3    H256312   2.151   2.043   3.647  1.3112 -1.3073 -1.4462
11633TIP3   OH256313   3.680   3.893   2.174 -0.6181  1.0099 -1.0989
11633TIP3    H156314   3.586   3.904   2.166 -0.6350  0.8481 -1.1253
11633TIP3    H256315   3.715   3.982   2.179 -0.9642  1.0665  1.2595
11634TIP3   OH256316   2.577   3.841  13.257 -0.0457 -0.1486 -0.2308
11634TIP3    H156317   2.638   3.782  13.213  0.0817  0.5174 -0.9800
11634TIP3    H256318   2.513   3.784  13.298  0.1773 -0.8131 -0.7862
11635TIP3   OH256319   3.977   4.510   6.140 -0.5073 -0.4968  0.0694
11635TIP3    H156320   4.060   4.528   6.186 -2.4683  1.1486  3.3790
11635TIP3    H256321   3.983   4.419   6.114  2.3956 -0.3806  0.0052
11636TIP3   OH256322   4.932   2.821  12.229 -0.2249  0.1876  0.0930
11636TIP3    H156323   4.990   2.890  12.260  0.6592  0.0367 -1.1403
11636TIP3    H256324   4.844   2.858  12.237  0.1395  0.9552  0.6565
11637TIP3   OH256325   5.849   6.228   5.438 -0.4896 -0.4423 -0.4043
11637TIP3    H156326   5.920   6.187   5.486 -1.9139 -2.7847 -0.1647
11637TIP3    H256327   5.884   6.243   5.350  0.3059 -1.5355 -0.2850
11638TIP3   OH256328   4.943   3.075   0.535 -0.1680  0.3020  0.2145
11638TIP3    H156329   4.941   3.055   0.629 -0.4998  0.0745  0.1614
11638TIP3    H256330   4.894   3.003   0.494  0.5045  0.0721 -0.1945
11639TIP3   OH256331   1.988   2.634  12.095 -0.7304 -0.0597 -0.7722
11639TIP3    H156332   2.029   2.611  12.178 -0.7470 -0.5241 -0.8889
11639TIP3    H256333   1.961   2.550  12.057  1.1394 -0.0798 -2.2425
11640TIP3   OH256334   4.289   4.696   6.011  0.0711 -0.3915 -0.0379
11640TIP3    H156335   4.303   4.727   6.100 -0.1259  0.2171 -0.2181
11640TIP3    H256336   4.335   4.759   5.956 -0.1503 -0.5362 -0.3929
11641TIP3   OH256337   6.588   6.267   3.452  0.0462 -0.3137  0.3351
11641TIP3    H156338   6.567   6.222   3.534 -2.3655 -1.0349 -0.5728
11641TIP3    H256339   6.506   6.264   3.403  1.1809  0.9074 -1.7331
11642TIP3   OH256340   3.061   4.953  11.532  0.2877  0.1060 -0.2495
11642TIP3    H156341   3.122   4.998  11.474  0.3319  0.3054 -0.0479
11642TIP3    H256342   2.978   4.952  11.484  0.2030  0.6815 -0.1235
11643TIP3   OH256343   0.443   5.731   2.280 -0.7157 -0.5916 -0.1095
11643TIP3    H156344   0.362   5.781   2.268 -0.0678 -0.0925 -3.2329
11643TIP3    H256345   0.423   5.644   2.243 -0.4590 -1.2221  1.1737
11644TIP3   OH256346   1.785   5.393   6.634  0.4448 -0.0571  0.1343
11644TIP3    H156347   1.769   5.317   6.578 -1.9183 -0.7221  1.5539
11644TIP3    H256348   1.778   5.469   6.576 -1.2919 -0.7469 -0.6408
11645TIP3   OH256349   1.961   6.159  15.304  0.0272  0.0094  0.5209
11645TIP3    H156350   1.909   6.105  15.363  0.8201  0.4774  1.7054
11645TIP3    H256351   1.933   6.249  15.323 -0.4119  0.1056 -0.5424
11646TIP3   OH256352   6.073   5.725   3.621  0.5366  0.2734 -0.3976
11646TIP3    H156353   6.014   5.800   3.614 -0.4176 -0.3264  0.7524
11646TIP3    H256354   6.016   5.649   3.607  1.4247 -0.2540 -1.2165
11647TIP3   OH256355   2.718   5.344  16.337  0.4917 -0.5042  0.8323
11647TIP3    H156356   2.751   5.333  16.426 -0.0863  0.6228  1.2040
11647TIP3    H256357   2.652   5.413  16.345  2.9459  2.2853 -1.0542
11648TIP3   OH256358   4.182   4.634   0.068 -0.4199 -0.1795  0.0504
11648TIP3    H156359   4.217   4.547   0.048  0.1998  0.2507 -0.8371
11648TIP3    H256360   4.246   4.671   0.130  0.4276  0.3884 -1.1264
11649TIP3   OH256361   5.299   3.144  12.037  0.3468 -0.4657  0.5913
11649TIP3    H156362   5.377   3.145  11.981 -0.8570 -0.8558 -1.1746
11649TIP3    H256363   5.232   3.190  11.986 -0.6240 -0.2625  2.0038
11650TIP3   OH256364   2.246   0.123  16.623  0.7657  0.6115 -0.1929
11650TIP3    H156365   2.259   0.127  16.718 -0.9945 -1.2624  0.1983
11650TIP3    H256366   2.165   0.172  16.608  1.5133  1.6861 -0.8963
11651TIP3   OH256367   4.088   1.704   5.415 -0.0530  0.4460  0.1278
11651TIP3    H156368   4.140   1.742   5.485  1.3952  0.0495 -0.7010
11651TIP3    H256369   3.999   1.735   5.432  0.5263  1.5733  1.2706
11652TIP3   OH256370   6.169   4.947  14.301 -0.2850  0.0606  0.3847
11652TIP3    H156371   6.111   4.882  14.261 -0.1037 -0.2020  0.5460
11652TIP3    H256372   6.239   4.959  14.236 -0.8596  0.8771 -0.1106
11653TIP3   OH256373   0.546   0.203  14.996 -0.2841 -0.6828 -0.1396
11653TIP3    H156374   0.580   0.211  15.085  0.3878 -0.3699 -0.4110
11653TIP3    H256375   0.572   0.285  14.954  1.0990 -1.6009 -1.1706
11654TIP3   OH256376   1.019   1.398   0.838 -0.1064  0.0429  0.2203
11654TIP3    H156377   1.062   1.479   0.811  0.2751 -0.1275  0.3135
11654TIP3    H256378   0.991   1.357   0.756 -0.4415  0.3476  0.1836
11655TIP3   OH256379   6.263   5.549  13.717 -0.1455 -0.5791 -0.2211
11655TIP3    H156380   6.181   5.516  13.754  0.7711 -2.2664  0.4342
11655TIP3    H256381   6.273   5.499  13.635  1.5169 -2.4371  1.0291
11656TIP3   OH256382   3.227   1.313   1.450 -0.0914 -0.2264  0.4781
11656TIP3    H156383   3.290   1.243   1.464  1.3435  1.2761  2.0833
11656TIP3    H256384   3.168   1.308   1.525  0.4270  0.6554  0.9596
11657TIP3   OH256385   0.074   0.853  16.130 -0.0302  0.0872 -0.3970
11657TIP3    H156386   0.095   0.804  16.209  1.4671  2.1459  0.5718
11657TIP3    H256387   0.090   0.945  16.153  1.3076  0.7275 -3.3197
11658TIP3   OH256388   5.146   6.566  13.574  1.2111 -0.0655 -0.0800
11658TIP3    H156389   5.113   6.589  13.487  1.3919 -0.3627 -0.2270
11658TIP3    H256390   5.123   6.474  13.584  3.1754 -0.6709 -0.7325
11659TIP3   OH256391   1.352   4.772  13.824 -0.5342  0.1249  0.7450
11659TIP3    H156392   1.366   4.685  13.786 -1.4266  0.1443  0.3525
11659TIP3    H256393   1.344   4.756  13.918 -2.8510 -0.5358  0.4978
11660TIP3   OH256394   3.364   1.878   2.282  0.0588  0.0105  0.0583
11660TIP3    H156395   3.287   1.934   2.294 -1.1926 -1.4420 -0.7999
11660TIP3    H256396   3.438   1.938   2.289 -1.1267  1.4667  0.9166
11661TIP3   OH256397   6.682   4.683  12.855 -0.0554 -0.0708  0.7845
11661TIP3    H156398   6.624   4.607  12.845 -0.3461  0.1546  0.7366
11661TIP3    H256399   6.674   4.730  12.772 -2.4066  1.7624  1.9069
11662TIP3   OH256400   2.610   2.138  10.937 -0.0272 -0.2665 -0.6091
11662TIP3    H156401   2.560   2.149  10.856 -1.7998  1.4642  0.6100
11662TIP3    H256402   2.543   2.126  11.005  0.9011  4.0550  1.4338
11663TIP3   OH256403   4.931   1.669  15.870  0.0052 -0.2690  0.4617
11663TIP3    H156404   4.984   1.674  15.791  0.5778  0.6447  0.8811
11663TIP3    H256405   4.867   1.600  15.852 -0.2953  0.3691 -1.0291
11664TIP3   OH256406   4.783   1.112  14.434 -0.3770 -0.1771  0.6482
11664TIP3    H156407   4.756   1.058  14.509  3.5066 -1.3924  1.4147
11664TIP3    H256408   4.807   1.049  14.366  1.2251  0.6358  0.4005
11665TIP3   OH256409   4.097   4.855  15.687 -0.1038 -0.2312  0.1095
11665TIP3    H156410   4.093   4.779  15.628  0.9307  0.7522 -1.3007
11665TIP3    H256411   4.184   4.852  15.725 -0.1035  0.1607  0.1465
11666TIP3   OH256412   2.837   4.219   0.017 -0.2896 -0.6050 -0.1934
11666TIP3    H156413   2.745   4.229   0.041  0.0857 -1.5165  1.8271
11666TIP3    H256414   2.871   4.153   0.078  2.4066  1.7606  1.1098
11667TIP3   OH256415   1.564   4.978   4.994  0.4090  0.2054 -0.0985
11667TIP3    H156416   1.625   4.925   4.943  1.6446 -0.0138  1.5423
11667TIP3    H256417   1.486   4.983   4.939  1.2616 -0.9723 -1.4998
11668TIP3   OH256418   4.432   0.150   1.703 -0.4892  0.1852 -0.1063
11668TIP3    H156419   4.415   0.206   1.779 -1.4347  0.4658 -0.5063
11668TIP3    H256420   4.472   0.071   1.740  3.9911  2.3082  0.1987
11669TIP3   OH256421   6.361   5.957  12.413 -0.2148 -0.8348 -0.1463
11669TIP3    H156422   6.382   6.051  12.421 -1.9320 -0.5951  3.9935
11669TIP3    H256423   6.440   5.913  12.444 -0.4925 -0.5769  0.9715
11670TIP3   OH256424   4.620   3.273  13.362  0.4270 -0.6747 -0.4410
11670TIP3    H156425   4.562   3.228  13.424 -0.1563 -0.3487 -0.7394
11670TIP3    H256426   4.662   3.342  13.415  0.3025 -0.7117 -0.2932
11671TIP3   OH256427   2.333   4.654   3.905 -0.1485 -0.0237 -0.1756
11671TIP3    H156428   2.295   4.678   3.989  2.7583 -0.8152  1.4984
11671TIP3    H256429   2.322   4.559   3.899 -1.2231  0.1319 -1.2435
11672TIP3   OH256430   0.351   5.115  15.475 -0.2232  0.3395  0.1241
11672TIP3    H156431   0.394   5.056  15.536 -0.7606  1.2872  1.4682
11672TIP3    H256432   0.300   5.174  15.530  0.7665  2.4503 -1.0955
11673TIP3   OH256433   1.254   5.395  15.765  0.7382  0.3515 -0.3668
11673TIP3    H156434   1.178   5.432  15.811 -0.5549  1.3283 -3.0648
11673TIP3    H256435   1.284   5.465  15.708  0.5776 -1.4986 -2.8996
11674TIP3   OH256436   1.908   5.671   4.150  0.7929 -0.0975 -0.0176
11674TIP3    H156437   1.845   5.702   4.215 -0.9682  0.4175 -1.8643
11674TIP3    H256438   1.934   5.585   4.182 -0.6585 -0.2239  0.9392
11675TIP3   OH256439   5.832   0.306  15.109  0.1828 -0.1654  0.0309
11675TIP3    H156440   5.849   0.363  15.184  0.1910 -1.4609  1.0612
11675TIP3    H256441   5.918   0.269  15.088  0.0918 -0.1937 -0.2860
11676TIP3   OH256442   5.958   5.314  14.705  0.4337  0.1282 -0.2057
11676TIP3    H156443   5.952   5.219  14.689  0.2524 -0.1471  1.3773
11676TIP3    H256444   5.868   5.345  14.696  0.1269 -0.2302  1.3538
11677TIP3   OH256445   0.013   3.152  16.681 -0.2893  0.1398 -0.0645
11677TIP3    H156446   0.071   3.078  16.700 -0.8292 -0.2206  0.2051
11677TIP3    H256447  -0.069   3.129  16.723  0.6004  2.6907  3.5111
11678TIP3   OH256448   3.843   5.817  14.848 -0.3390 -0.1864 -0.0877
11678TIP3    H156449   3.887   5.844  14.928  0.2727  0.8093 -0.7340
11678TIP3    H256450   3.895   5.744  14.815  1.4633  1.5472 -1.3182
11679TIP3   OH256451   3.093   6.716  14.486 -0.3664 -0.4486 -0.1811
11679TIP3    H156452   3.110   6.624  14.509  0.2499 -0.0092  1.2465
11679TIP3    H256453   3.143   6.730  14.406 -0.0149 -1.2146 -0.1067
11680TIP3   OH256454   0.015   4.621  11.337  0.2599  0.4402 -0.2263
11680TIP3    H156455   0.010   4.573  11.255 -0.9359 -0.6401  0.4573
11680TIP3    H256456   0.109   4.634  11.352  0.5249 -0.2263 -1.2564
11681TIP3   OH256457   0.657   0.988   4.469  0.4682 -0.2663 -0.0536
11681TIP3    H156458   0.596   0.919   4.495  3.4826 -3.0227  0.4429
11681TIP3    H256459   0.656   0.986   4.373 -0.2722 -0.2415 -0.0472
11682TIP3   OH256460   3.154   0.706   6.485 -0.4923 -0.2311 -0.3100
11682TIP3    H156461   3.218   0.772   6.511 -0.5689 -0.3823  0.2704
11682TIP3    H256462   3.084   0.757   6.444 -1.3539  0.2716  1.6444
11683TIP3   OH256463   3.210   5.903   5.398  0.1772  0.2728 -0.5916
11683TIP3    H156464   3.294   5.895   5.444  0.2700 -1.7357 -0.9967
11683TIP3    H256465   3.232   5.944   5.315  0.2068  2.7502  0.5715
11684TIP3   OH256466   1.045   0.024  13.857  0.2133 -0.4115 -0.1369
11684TIP3    H156467   0.950   0.025  13.843  0.3304  1.2007 -1.0584
11684TIP3    H256468   1.055  -0.011  13.945 -1.2561 -0.2615  0.1275
11685TIP3   OH256469   1.167   4.779  15.209  0.3662 -0.1251  0.1675
11685TIP3    H156470   1.132   4.736  15.286  0.3605  1.7303  1.2642
11685TIP3    H256471   1.178   4.709  15.145 -2.1492 -1.3142  0.9098
11686TIP3   OH256472   0.789   2.648   1.764 -0.1154  0.2458  0.4315
11686TIP3    H156473   0.867   2.621   1.813  0.7052  2.6104  0.5319
11686TIP3    H256474   0.823   2.700   1.692 -1.5650  0.3824 -0.1794
11687TIP3   OH256475   4.924   6.418   2.829 -0.0085  0.3505 -0.0385
11687TIP3    H156476   4.908   6.389   2.739  0.2546 -0.8822  0.2841
11687TIP3    H256477   4.873   6.357   2.883  2.6350 -1.2665  0.8291
11688TIP3   OH256478   0.414   1.637   2.608 -0.3300 -0.2228  0.3412
11688TIP3    H156479   0.478   1.618   2.676  1.9367 -0.8520 -1.8310
11688TIP3    H256480   0.357   1.704   2.646  0.8720 -0.4831  2.7663
11689TIP3   OH256481   4.412   1.180   4.951 -0.4714 -0.1169  0.6460
11689TIP3    H156482   4.329   1.202   4.907 -0.3845  1.3892  1.1665
11689TIP3    H256483   4.385   1.142   5.034 -0.6559 -3.9085 -0.9554
11690TIP3   OH256484   2.611   2.616  15.662  0.2484 -0.4584 -0.3339
11690TIP3    H156485   2.522   2.645  15.683  0.4726  0.8351 -1.0863
11690TIP3    H256486   2.602   2.565  15.582  0.6222  3.3057 -3.0267
11691TIP3   OH256487   3.547   6.612   1.430 -0.5983  0.0713 -0.0279
11691TIP3    H156488   3.484   6.614   1.358 -1.5613  0.0017  0.7859
11691TIP3    H256489   3.633   6.622   1.388 -1.0669 -0.8249 -1.2600
11692TIP3   OH256490   4.061   1.013   6.198 -0.2299 -0.6484  0.0512
11692TIP3    H156491   3.991   1.027   6.261  0.2303  1.4508  0.1388
11692TIP3    H256492   4.096   1.100   6.179  1.6732 -1.5156 -0.7882
11693TIP3   OH256493   6.185   6.098   2.688  0.4645  0.1683 -0.4428
11693TIP3    H156494   6.233   6.051   2.619  1.1707 -0.3335  0.3751
11693TIP3    H256495   6.253   6.134   2.744 -0.1071 -0.2216  0.5195
11694TIP3   OH256496   5.733   2.222  13.437  0.3031  0.5318  0.4011
11694TIP3    H156497   5.651   2.237  13.389  1.2888  0.7409 -1.2960
11694TIP3    H256498   5.767   2.311  13.453 -0.6962  0.5480  2.8255
11695TIP3   OH256499   0.829   0.075  13.413  0.4645  0.0494 -0.0659
11695TIP3    H156500   0.919   0.104  13.395  1.0353 -1.4104  0.2650
11695TIP3    H256501   0.788   0.073  13.326  0.0493  2.7226 -0.0253
11696TIP3   OH256502   3.466   4.085  11.631 -0.4010 -0.2209  0.4106
11696TIP3    H156503   3.392   4.132  11.669 -1.1799 -0.7091 -0.4596
11696TIP3    H256504   3.517   4.153  11.586 -2.1209 -0.2864 -1.8077
11697TIP3   OH256505   3.820   1.042  13.147 -0.2913 -0.5011 -0.3346
11697TIP3    H156506   3.748   1.092  13.109  0.4341  0.3302 -0.6465
11697TIP3    H256507   3.844   1.090  13.226 -0.6863 -1.3005  0.2907
11698TIP3   OH256508   3.202   4.363   0.352 -0.5567  0.4865 -0.6142
11698TIP3    H156509   3.257   4.412   0.290 -0.9172  0.4694 -0.9545
11698TIP3    H256510   3.134   4.425   0.378 -0.2909  0.5541 -0.0773
11699TIP3   OH256511   4.101   2.705  11.035 -0.3640 -0.1764 -0.2655
11699TIP3    H156512   4.030   2.655  10.995 -0.0348 -0.6193 -0.3123
11699TIP3    H256513   4.158   2.729  10.962 -1.1647  1.3643 -0.4133
11700TIP3   OH256514   3.489   1.307   1.180 -0.0081 -0.5689 -0.4528
11700TIP3    H156515   3.540   1.278   1.255 -0.4804 -0.7618 -0.2086
11700TIP3    H256516   3.554   1.348   1.122  0.6702 -2.0652 -0.7971
11701TIP3   OH256517   2.784   5.519  16.103 -0.1552  0.1083  0.4005
11701TIP3    H156518   2.793   5.448  16.166  2.2632  1.5378  1.8494
11701TIP3    H256519   2.868   5.522  16.057 -0.1932  1.9123  0.3495
11702TIP3   OH256520   2.576   3.413  12.740  0.0122  0.0166  0.3020
11702TIP3    H156521   2.574   3.322  12.710 -1.2101 -0.3419  1.3839
11702TIP3    H256522   2.516   3.459  12.682  0.7402  0.1812 -0.3378
11703TIP3   OH256523   4.552   1.110  17.218 -0.3264 -0.2243  0.4385
11703TIP3    H156524   4.505   1.179  17.266  0.2559 -0.4217  1.3181
11703TIP3    H256525   4.615   1.158  17.164  1.4637 -0.0880  2.5285
11704TIP3   OH256526   5.523   2.358  14.509  0.6256 -0.3405  0.4053
11704TIP3    H156527   5.472   2.415  14.565  0.9271 -0.1483  0.4879
11704TIP3    H256528   5.460   2.324  14.445  0.4491  0.1072  0.3349
11705TIP3   OH256529   3.087   6.547   1.215 -0.0032  0.1974 -0.3522
11705TIP3    H156530   3.043   6.475   1.169  0.7262 -0.0898 -0.6185
11705TIP3    H256531   3.181   6.527   1.206  0.1840  0.8326  0.1426
11706TIP3   OH256532   2.189   6.613  14.866 -0.4518 -0.7972  0.6047
11706TIP3    H156533   2.262   6.557  14.893  1.4066  1.1270 -0.1042
11706TIP3    H256534   2.200   6.693  14.918 -2.1323 -0.4939  0.5408
11707TIP3   OH256535   0.918   6.137  11.839 -0.0709  0.1906  0.2852
11707TIP3    H156536   0.987   6.158  11.901 -0.5229  0.9538  0.5386
11707TIP3    H256537   0.960   6.146  11.753 -0.3135  2.5215  0.3543
11708TIP3   OH256538   0.231   4.663  12.662  0.3495 -0.3519 -0.1706
11708TIP3    H156539   0.301   4.599  12.647  0.2889 -0.1795 -1.3021
11708TIP3    H256540   0.181   4.627  12.735  0.1958 -1.7335 -0.9005
11709TIP3   OH256541   6.023   2.544  15.178 -0.2063  0.5701 -0.2939
11709TIP3    H156542   6.065   2.614  15.227  0.3426 -0.6952  1.1318
11709TIP3    H256543   6.094   2.505  15.127 -0.2448  0.3076 -0.1530
11710TIP3   OH256544   0.452   2.769  17.007 -0.1082 -0.5193 -0.1346
11710TIP3    H156545   0.367   2.724  17.013 -0.1477 -0.5926 -1.1003
11710TIP3    H256546   0.429   2.862  16.995 -0.0370 -0.4060  0.5710
11711TIP3   OH256547   3.104   0.327  16.702 -0.3610 -0.8329 -0.1446
11711TIP3    H156548   3.010   0.313  16.689 -0.5200  0.2821 -0.2756
11711TIP3    H256549   3.143   0.240  16.689 -1.3191 -1.2155 -0.5692
11712TIP3   OH256550   2.582   1.184  16.619  0.4816  0.0917  0.2650
11712TIP3    H156551   2.591   1.135  16.538  0.6145  1.3712 -0.5259
11712TIP3    H256552   2.623   1.129  16.686 -1.2435 -1.8180 -0.1681
11713TIP3   OH256553   3.039   5.230   2.931 -0.6129  0.0343  0.0794
11713TIP3    H156554   3.081   5.149   2.904 -1.2025  0.1908 -1.3947
11713TIP3    H256555   3.104   5.298   2.912 -1.0349  0.1466 -1.0473
11714TIP3   OH256556   2.460   6.357  12.825 -0.0425 -0.1047 -0.3720
11714TIP3    H156557   2.462   6.424  12.893 -1.7431  1.8928 -2.1616
11714TIP3    H256558   2.447   6.275  12.873  0.1818  1.0392  1.7626
11715TIP3   OH256559   5.767   5.098   3.067  0.0113  0.7828  0.4727
11715TIP3    H156560   5.781   5.073   2.975  0.8980  0.7317  0.6135
11715TIP3    H256561   5.681   5.139   3.067 -0.3312  0.1065 -0.2458
11716TIP3   OH256562   2.466   2.192  17.040  0.6301 -0.5860 -0.1027
11716TIP3    H156563   2.519   2.199  17.120  0.0666 -0.5960  0.2748
11716TIP3    H256564   2.531   2.181  16.970  1.2078  0.8321  0.1720
11717TIP3   OH256565   5.209   1.689   3.209 -0.2916  0.1714  0.4488
11717TIP3    H156566   5.206   1.603   3.252 -1.4102  0.1920  0.4317
11717TIP3    H256567   5.217   1.751   3.281  1.0813  0.0346  0.4323
11718TIP3   OH256568   2.826   1.258   0.014  0.1445 -0.1524 -0.3668
11718TIP3    H156569   2.800   1.332  -0.041  0.4155 -0.5217 -1.0149
11718TIP3    H256570   2.748   1.237   0.066  0.0524  0.5460 -0.2217
11719TIP3   OH256571   1.966   4.186   4.461  0.1089  0.7369  0.1012
11719TIP3    H156572   1.888   4.134   4.439  1.8510 -0.7463 -3.1850
11719TIP3    H256573   2.008   4.137   4.532 -1.0870  0.7163  0.8273
11720TIP3   OH256574   1.384   5.827  12.970  0.2336  0.4063  0.5851
11720TIP3    H156575   1.344   5.740  12.966 -0.7629  0.8988 -1.5292
11720TIP3    H256576   1.478   5.811  12.964  0.0382 -0.5097 -0.1142
11721TIP3   OH256577   3.485   2.137  13.989  0.4505  0.0327  0.0020
11721TIP3    H156578   3.403   2.173  14.023  0.5227 -0.4193  0.6799
11721TIP3    H256579   3.550   2.157  14.057  0.4762 -1.4305  0.4478
11722TIP3   OH256580   5.145   0.582   3.811  0.3007 -0.1470 -0.1795
11722TIP3    H156581   5.191   0.502   3.783  0.0729 -0.3047 -0.1060
11722TIP3    H256582   5.059   0.576   3.768 -0.3874 -0.8165  1.2032
11723TIP3   OH256583   4.539   5.104  13.781 -0.3894 -0.4186 -0.0688
11723TIP3    H156584   4.629   5.130  13.797 -0.8141  0.6952  0.6314
11723TIP3    H256585   4.490   5.136  13.857 -1.6992  0.8256 -1.3513
11724TIP3   OH256586   5.044   5.248   4.812  0.9195 -0.8132  0.2045
11724TIP3    H156587   5.031   5.342   4.823  0.4418 -1.1563  3.5068
11724TIP3    H256588   4.956   5.211   4.814  1.2016 -1.5731  3.1779
11725TIP3   OH256589   4.914   0.148  15.150 -0.4168  0.0082 -0.1725
11725TIP3    H156590   4.921   0.216  15.217  0.0502  0.6739 -0.8898
11725TIP3    H256591   4.889   0.069  15.199  0.0069  0.4600  0.8001
11726TIP3   OH256592   0.020   4.420  13.529  0.0404  0.1040 -0.1896
11726TIP3    H156593  -0.025   4.387  13.451  0.5250  0.0024 -0.4261
11726TIP3    H256594  -0.043   4.481  13.568 -1.5003 -2.1963  1.1229
11727TIP3   OH256595   4.341   4.335   5.559 -0.3542 -0.6126 -0.1982
11727TIP3    H156596   4.405   4.283   5.511 -0.5660 -0.6418 -0.4542
11727TIP3    H256597   4.357   4.314   5.651  0.6092  0.0755 -0.1906
11728TIP3   OH256598   6.076   4.481  16.498 -0.4368  0.3992 -0.6240
11728TIP3    H156599   5.982   4.465  16.490 -0.2467 -0.7397 -0.8461
11728TIP3    H256600   6.115   4.420  16.435  0.5234 -0.4494  0.7536
11729TIP3   OH256601   3.184   6.231  13.997 -0.2597 -0.2531 -0.1301
11729TIP3    H156602   3.214   6.184  14.075  0.3043  2.4484  1.3967
11729TIP3    H256603   3.253   6.215  13.932  1.1555  0.4132  1.1447
11730TIP3   OH256604   2.059   4.667  11.578  0.1408 -0.4149  0.8787
11730TIP3    H156605   2.020   4.677  11.491  0.2060  0.7598  0.9664
11730TIP3    H256606   2.151   4.648  11.561  0.0969 -0.4675  0.6944
11731TIP3   OH256607   0.025   3.167  12.368 -0.2793 -0.3704 -0.6569
11731TIP3    H156608  -0.007   3.144  12.455 -0.8396 -1.2245 -1.0732
11731TIP3    H256609   0.114   3.199  12.382 -1.0599  1.4088  0.4493
11732TIP3   OH256610   1.376   3.085   4.022 -0.1438 -0.1047 -0.1029
11732TIP3    H156611   1.453   3.141   4.033  2.3047 -3.2487  0.2742
11732TIP3    H256612   1.347   3.102   3.932  0.1939  2.0284  0.1481
11733TIP3   OH256613   2.815   0.138   0.677  0.0396  0.5957 -0.1761
11733TIP3    H156614   2.737   0.121   0.729  0.8654  1.7046  1.5370
11733TIP3    H256615   2.888   0.108   0.732  1.0018  2.5229 -0.2987
11734TIP3   OH256616   0.572   6.706  14.510 -0.0523 -0.9117 -0.3841
11734TIP3    H156617   0.542   6.679  14.597  1.3989 -3.2499 -0.5417
11734TIP3    H256618   0.495   6.695  14.454 -0.1788 -2.4315  0.0476
11735TIP3   OH256619   0.914   0.618   3.822 -0.4519  0.1503 -0.5582
11735TIP3    H156620   0.975   0.691   3.830  0.5333 -0.8235  1.5976
11735TIP3    H256621   0.864   0.637   3.743 -0.5802  3.3996  0.1702
11736TIP3   OH256622   1.325   1.357   1.635 -0.5191  0.1354  0.0030
11736TIP3    H156623   1.287   1.397   1.557 -0.5568 -1.3459 -0.7670
11736TIP3    H256624   1.275   1.276   1.648  0.5192 -0.4307  0.6280
11737TIP3   OH256625   2.495   3.691  15.960 -0.2048  0.0078  0.0307
11737TIP3    H156626   2.586   3.715  15.944 -0.3443  0.3797 -0.2221
11737TIP3    H256627   2.482   3.611  15.908  0.1969 -0.4960  0.6924
11738TIP3   OH256628   6.519   1.583  10.387  0.7232  0.1019 -0.2343
11738TIP3    H156629   6.459   1.532  10.334  0.3000  0.3063  0.0366
11738TIP3    H256630   6.475   1.668  10.397  1.3941  0.5064 -0.6490
11739TIP3   OH256631   5.754   2.478   3.776  0.1363 -0.8529 -0.0781
11739TIP3    H156632   5.776   2.426   3.698  1.3998 -1.4519  0.6431
11739TIP3    H256633   5.834   2.527   3.795  0.4252 -1.9408  1.7634
11740TIP3   OH256634   0.599   0.884  13.500  0.4055  0.5755  0.0513
11740TIP3    H156635   0.629   0.931  13.577  1.4994 -1.3788  0.8952
11740TIP3    H256636   0.507   0.867  13.516  0.1272  1.9124 -0.0282
11741TIP3   OH256637   1.938   3.835  17.022  0.0521  0.0748  0.1111
11741TIP3    H156638   1.988   3.797  16.949 -3.1823 -0.9722 -1.7864
11741TIP3    H256639   1.937   3.766  17.088 -0.2225 -0.5337 -0.5107
11742TIP3   OH256640   5.651   4.151  12.663  0.5212 -0.3095  0.6719
11742TIP3    H156641   5.588   4.078  12.662  0.2650 -0.0857 -0.3321
11742TIP3    H256642   5.606   4.222  12.616  1.2171  0.1204  0.6457
11743TIP3   OH256643   3.978   0.503   0.486  0.1771  0.2773 -0.3873
11743TIP3    H156644   3.894   0.457   0.484  0.6697 -0.6503 -1.1338
11743TIP3    H256645   4.039   0.438   0.520  0.8543  0.4428 -1.2417
11744TIP3   OH256646   5.961   3.423   1.750 -0.4296 -0.5332 -0.3891
11744TIP3    H156647   5.873   3.460   1.763  0.0190  0.6139 -0.4289
11744TIP3    H256648   5.996   3.471   1.675 -0.1464 -1.7204 -1.0376
11745TIP3   OH256649   2.205   6.052   3.020  0.2122 -0.1915 -0.3828
11745TIP3    H156650   2.143   6.106   3.068  0.9705  0.9189 -0.6242
11745TIP3    H256651   2.153   5.978   2.989 -1.0465  0.8472 -0.8173
11746TIP3   OH256652   0.132   0.563  16.175 -0.5846  0.1357  0.3797
11746TIP3    H156653   0.202   0.612  16.133 -2.3958  1.5922 -1.1180
11746TIP3    H256654   0.146   0.577  16.269  0.9723  0.5666  0.1065
11747TIP3   OH256655   2.341   5.829  17.346 -0.3963 -0.3508 -0.0200
11747TIP3    H156656   2.334   5.752  17.289 -2.3998 -0.5350  0.3905
11747TIP3    H256657   2.272   5.887  17.316  1.0914  1.3450 -0.3247
11748TIP3   OH256658   3.678   4.962   3.295  0.0534 -0.0356 -0.0344
11748TIP3    H156659   3.619   4.996   3.228  2.0165  0.0140 -1.8289
11748TIP3    H256660   3.655   4.869   3.302  0.0368 -0.1128 -1.0209
11749TIP3   OH256661   6.030   6.667   4.381 -0.6463 -0.2145  0.6006
11749TIP3    H156662   5.946   6.620   4.382 -1.5259  1.2128 -0.6823
11749TIP3    H256663   6.080   6.626   4.310 -1.2621  0.4773 -0.2636
11750TIP3   OH256664   6.695   2.906  15.500 -0.4909 -0.0325  0.1057
11750TIP3    H156665   6.668   2.988  15.459 -1.5840  0.2297  1.2832
11750TIP3    H256666   6.688   2.841  15.430  0.7583  0.9025 -0.9407
11751TIP3   OH256667   1.252   3.244   3.590  0.7208 -0.6695  0.4699
11751TIP3    H156668   1.185   3.312   3.590  1.7901  0.4002  0.9676
11751TIP3    H256669   1.303   3.260   3.510  1.5446 -0.2978  1.0611
11752TIP3   OH256670   2.424   4.513  14.221  0.8706 -0.9074  0.0790
11752TIP3    H156671   2.333   4.524  14.248  0.5179  0.0370 -1.3612
11752TIP3    H256672   2.441   4.588  14.165  1.5736 -2.6603 -2.1930
11753TIP3   OH256673   4.244   5.026  15.348 -0.0760  0.0840 -0.2031
11753TIP3    H156674   4.172   5.076  15.384 -0.2729  1.9237 -2.8572
11753TIP3    H256675   4.208   4.985  15.269  1.5719  0.6117 -1.2918
11754TIP3   OH256676   6.649   4.968  15.848 -0.2250  0.3782 -0.0112
11754TIP3    H156677   6.570   5.013  15.819 -0.6811  0.7309  1.6912
11754TIP3    H256678   6.691   5.029  15.908 -0.1382 -0.8754  1.2611
11755TIP3   OH256679   2.512   0.377   0.157  0.1000 -0.2473  0.3154
11755TIP3    H156680   2.484   0.456   0.112 -1.0557 -1.6372 -1.5948
11755TIP3    H256681   2.606   0.369   0.137 -0.1412 -0.2074 -0.9265
11756TIP3   OH256682   3.226   4.553   3.457  0.4839 -0.0909  0.0772
11756TIP3    H156683   3.272   4.627   3.419 -1.3227  0.8194 -0.4214
11756TIP3    H256684   3.271   4.476   3.422  2.6155  0.7107  0.8959
11757TIP3   OH256685   6.308   5.878   1.758  0.3993  0.4413  0.1414
11757TIP3    H156686   6.260   5.958   1.777  1.1466  0.6507  1.2394
11757TIP3    H256687   6.322   5.837   1.844 -1.4356 -1.7575 -0.5113
11758TIP3   OH256688   5.589   6.136   5.319  0.0122  0.1338 -0.1337
11758TIP3    H156689   5.658   6.165   5.379 -0.7202  1.0007  0.3346
11758TIP3    H256690   5.596   6.041   5.318  0.6856  0.1641  0.5496
11759TIP3   OH256691   6.057   4.268   6.129  0.5825 -0.1484 -0.3416
11759TIP3    H156692   6.060   4.173   6.117  1.9045 -0.2840  0.8034
11759TIP3    H256693   6.131   4.300   6.078  0.0184  0.2978 -0.8874
11760TIP3   OH256694   4.900   0.368  11.416  0.2482 -0.0311 -0.1284
11760TIP3    H156695   4.956   0.437  11.453 -0.6065  0.7014 -0.1428
11760TIP3    H256696   4.894   0.390  11.322  1.6769 -1.3594 -0.5605
11761TIP3   OH256697   1.968   1.590  16.674 -0.3207 -0.1870  0.5635
11761TIP3    H156698   1.908   1.662  16.690  1.8458  1.9859 -0.4508
11761TIP3    H256699   2.055   1.629  16.683  0.9858 -3.1048  1.6749
11762TIP3   OH256700   2.351   4.314  16.041  0.3788 -0.2396 -0.3216
11762TIP3    H156701   2.384   4.283  15.957 -0.4733 -1.4169 -0.2504
11762TIP3    H256702   2.403   4.392  16.060 -0.0428  0.6171 -2.3876
11763TIP3   OH256703   5.700   5.301   4.477  0.0432 -0.5397 -0.1492
11763TIP3    H156704   5.786   5.268   4.505  0.3935  0.0083 -0.5522
11763TIP3    H256705   5.694   5.278   4.384  0.6213  1.1202 -0.6483
11764TIP3   OH256706   6.271   4.603  16.664 -0.3668 -0.4683 -0.5169
11764TIP3    H156707   6.205   4.542  16.631 -0.6807 -0.7394  0.5566
11764TIP3    H256708   6.354   4.566  16.635 -0.5593 -1.3823  0.0227
11765TIP3   OH256709   5.609   3.942   4.541  0.3421  0.1623 -0.3426
11765TIP3    H156710   5.624   3.898   4.457  3.3477  0.8480 -0.2867
11765TIP3    H256711   5.639   3.879   4.606  1.4600  0.9621 -0.0566
11766TIP3   OH256712   0.851   5.036   3.009 -0.0408  0.0466  0.1656
11766TIP3    H156713   0.917   4.978   2.972  0.7164  0.8614  0.2136
11766TIP3    H256714   0.898   5.116   3.030 -0.9529  0.4781  0.6359
11767TIP3   OH256715   0.493   5.537  11.355 -0.4432 -0.3732  0.1734
11767TIP3    H156716   0.564   5.478  11.329 -0.6013 -0.3499 -0.3212
11767TIP3    H256717   0.521   5.573  11.439  0.6813  0.5470 -0.5757
11768TIP3   OH256718   5.963   3.307   0.838  0.1877  0.0159 -0.2433
11768TIP3    H156719   5.895   3.301   0.905  0.1107  0.0036 -0.3219
11768TIP3    H256720   6.034   3.252   0.871  0.8277  1.3079  0.6204
11769TIP3   OH256721   1.653   1.713   2.739 -0.6948  0.4991  0.6934
11769TIP3    H156722   1.623   1.755   2.820  0.2512  1.5213  0.5357
11769TIP3    H256723   1.717   1.774   2.702  0.1272 -0.7121  0.0305
11770TIP3   OH256724   6.020   0.550  16.879 -0.2916  0.2464 -0.1496
11770TIP3    H156725   6.089   0.485  16.891 -0.7379 -0.0747  0.6997
11770TIP3    H256726   5.948   0.521  16.935 -1.1110  0.5977 -0.9979
11771TIP3   OH256727   1.181   6.176  13.965  0.4218 -0.4888  0.0865
11771TIP3    H156728   1.169   6.268  13.941 -0.1231 -0.4795  0.3656
11771TIP3    H256729   1.263   6.150  13.922  0.0662 -0.1602 -0.8084
11772TIP3   OH256730   0.340   0.434   4.298 -0.6640  0.0209  0.2126
11772TIP3    H156731   0.352   0.524   4.266  0.8926 -0.4857 -0.6946
11772TIP3    H256732   0.245   0.425   4.308 -0.8455  1.7766  0.3778
11773TIP3   OH256733   2.412   3.439   6.056  0.4318  0.1908 -0.4012
11773TIP3    H156734   2.508   3.443   6.058  0.5137 -1.2837 -0.5006
11773TIP3    H256735   2.390   3.366   6.115 -0.8011  2.2861  1.9459
11774TIP3   OH256736   3.700   1.843   1.895 -1.1617 -0.1958 -0.3193
11774TIP3    H156737   3.704   1.748   1.885 -2.1424 -0.2180 -0.5657
11774TIP3    H256738   3.666   1.875   1.812 -0.8428  0.3784 -0.2362
11775TIP3   OH256739   5.347   0.855  14.434 -0.0720  0.3712  0.0310
11775TIP3    H156740   5.301   0.938  14.426  1.2174  1.0688 -0.5159
11775TIP3    H256741   5.427   0.867  14.384  0.5648 -0.8997  0.6805
11776TIP3   OH256742   1.645   2.682   5.948 -0.1342  0.6366 -0.1302
11776TIP3    H156743   1.589   2.673   6.025 -0.1756  1.7385 -0.0048
11776TIP3    H256744   1.719   2.625   5.965 -0.7561 -0.1072  0.1419
11777TIP3   OH256745   0.939   1.338  15.087  0.2636  0.2760  0.0426
11777TIP3    H156746   0.889   1.334  15.006  0.9532 -0.3931 -0.3696
11777TIP3    H256747   0.873   1.351  15.155 -0.2968  1.1827 -0.6436
11778TIP3   OH256748   5.504   1.104   2.753 -0.5925 -0.2913 -0.1452
11778TIP3    H156749   5.455   1.110   2.671 -0.4372 -1.4700 -0.3376
11778TIP3    H256750   5.472   1.025   2.795 -0.8937  0.4717  1.1025
11779TIP3   OH256751   5.873   6.013  16.014 -0.2921 -0.0261  0.5584
11779TIP3    H156752   5.846   5.931  15.972  1.7645 -0.4228 -0.0977
11779TIP3    H256753   5.816   6.080  15.976  0.6895 -0.5506 -2.0169
11780TIP3   OH256754   5.689   4.680  13.629 -0.6585  0.2556 -0.6241
11780TIP3    H156755   5.647   4.612  13.575 -2.9903  0.4625  0.7842
11780TIP3    H256756   5.670   4.653  13.719 -1.7952  2.7892 -0.0158
11781TIP3   OH256757   0.808   6.266   6.644  0.2813  0.1497  0.0692
11781TIP3    H156758   0.791   6.183   6.601  2.1991 -0.0996 -0.3247
11781TIP3    H256759   0.860   6.243   6.721 -0.6221  0.8484  0.9083
11782TIP3   OH256760   3.659   4.681   3.289 -0.1900  0.3607 -0.4711
11782TIP3    H156761   3.667   4.679   3.193 -1.5744  2.6595 -0.7225
11782TIP3    H256762   3.727   4.622   3.320 -0.9591 -1.9919 -2.9058
11783TIP3   OH256763   2.088   1.918  16.641  0.0557  0.1008  0.8304
11783TIP3    H156764   2.132   1.835  16.625  2.9172  1.2090  2.1132
11783TIP3    H256765   2.156   1.984  16.626 -1.7384  2.1266  1.1344
11784TIP3   OH256766   2.839   6.320   5.289  0.2337  0.2662  0.2923
11784TIP3    H156767   2.901   6.370   5.342  0.1223 -0.1690  0.8391
11784TIP3    H256768   2.875   6.232   5.288 -0.3453  0.0198  0.5737
11785TIP3   OH256769   3.686   1.443   0.424 -0.2199 -0.0157 -0.0979
11785TIP3    H156770   3.635   1.368   0.393 -1.9341  0.9626  0.1690
11785TIP3    H256771   3.777   1.416   0.416 -0.7411 -3.3104  2.9374
11786TIP3   OH256772   3.542   4.689   0.595  0.1250  0.3263  0.2002
11786TIP3    H156773   3.621   4.635   0.601 -0.3375 -0.3997 -0.1591
11786TIP3    H256774   3.477   4.641   0.647  0.1501  1.3634  1.2280
11787TIP3   OH256775   6.053   2.913   1.890  0.8450 -0.3961  0.5829
11787TIP3    H156776   5.995   2.975   1.847  0.1184 -1.9206 -0.7633
11787TIP3    H256777   6.083   2.958   1.969  0.0310  1.4685 -0.1163
11788TIP3   OH256778   3.881   1.898  16.371 -0.0545  0.0062  0.2894
11788TIP3    H156779   3.929   1.815  16.373  0.5884  0.3141 -1.0650
11788TIP3    H256780   3.936   1.956  16.319 -1.5684  0.5865 -0.7227
11789TIP3   OH256781   5.151   2.413  14.160 -0.2900 -0.3333  0.3275
11789TIP3    H156782   5.074   2.365  14.128 -1.2817 -0.1111  2.2043
11789TIP3    H256783   5.165   2.481  14.095 -3.6217  1.5390  1.3108
11790TIP3   OH256784   4.055   5.969   6.040  0.6478 -0.0257  0.6460
11790TIP3    H156785   4.025   6.034   6.103  1.2248  0.6393  0.2497
11790TIP3    H256786   4.002   5.891   6.059 -0.0176  0.5348  1.1614
11791TIP3   OH256787   4.190   1.126   0.268  0.3965 -0.2485 -0.4700
11791TIP3    H156788   4.278   1.094   0.287  0.3163  0.3663  1.0842
11791TIP3    H256789   4.163   1.172   0.347 -1.5625 -0.9110 -0.6707
11792TIP3   OH256790   5.997   4.984   1.750  0.1323 -0.2910  0.6257
11792TIP3    H156791   6.032   4.896   1.767 -0.7523 -0.3604  2.4254
11792TIP3    H256792   6.022   5.034   1.828 -2.9355 -0.1397  1.6485
11793TIP3   OH256793   4.378   0.397   5.431 -0.4117  0.2964  0.3795
11793TIP3    H156794   4.357   0.478   5.385  0.3995  0.2716 -0.0544
11793TIP3    H256795   4.472   0.384   5.415 -1.0420 -2.2330 -2.0256
11794TIP3   OH256796   4.935   3.937  14.417 -0.0494 -0.0700  0.4167
11794TIP3    H156797   4.986   3.964  14.494 -0.6067 -0.6681  1.0053
11794TIP3    H256798   4.849   3.976  14.431  0.0121  0.3150 -0.2112
11795TIP3   OH256799   2.884   1.320   2.937 -0.0351 -0.0159  0.0630
11795TIP3    H156800   2.838   1.330   3.020 -1.8515 -0.4230 -0.8469
11795TIP3    H256801   2.818   1.339   2.870  1.9174  2.5289 -1.3050
11796TIP3   OH256802   4.312   4.899  14.289 -0.3161  0.4640  0.2729
11796TIP3    H156803   4.236   4.951  14.316 -1.0620 -0.3779 -0.1599
11796TIP3    H256804   4.283   4.853  14.210  0.2089 -0.8699  0.8250
11797TIP3   OH256805   0.155   4.739   6.493 -0.0141  0.2938  0.3317
11797TIP3    H156806   0.225   4.793   6.530 -0.0864  0.7541 -0.1929
11797TIP3    H256807   0.185   4.649   6.507 -0.1981  0.4284  1.8147
11798TIP3   OH256808   2.930   2.414  11.796  0.1060 -0.5231 -0.2422
11798TIP3    H156809   2.881   2.381  11.722 -1.3878  1.1293 -0.0440
11798TIP3    H256810   3.013   2.445  11.759  0.0869 -1.2754 -0.9243
11799TIP3   OH256811   3.194   3.371  13.117 -0.5766  0.0690  0.2148
11799TIP3    H156812   3.230   3.398  13.201  0.8683 -1.0233 -0.0276
11799TIP3    H256813   3.243   3.293  13.093 -1.3790  0.0049 -1.3630
11800TIP3   OH256814   2.393   2.381   2.801  0.3336 -0.2797 -0.6362
11800TIP3    H156815   2.481   2.418   2.813  0.0376 -0.0069  0.8447
11800TIP3    H256816   2.353   2.386   2.888 -0.2340 -2.7724 -0.6985
11801TIP3   OH256817   4.378   2.236  12.638 -0.1019  0.6608  0.1008
11801TIP3    H156818   4.371   2.162  12.578 -0.7814  1.0493 -0.3051
11801TIP3    H256819   4.471   2.242  12.657 -0.0742 -0.5889  0.5089
11802TIP3   OH256820   3.429   3.434  11.864  0.4163 -0.0635 -0.2797
11802TIP3    H156821   3.416   3.523  11.832  1.2876  0.4001  0.5938
11802TIP3    H256822   3.388   3.378  11.798 -1.3849  1.0364 -0.1390
11803TIP3   OH256823   5.319   1.404   0.421 -0.0884 -0.6424 -0.8083
11803TIP3    H156824   5.260   1.332   0.401  0.9417 -1.6051 -0.5372
11803TIP3    H256825   5.376   1.368   0.490  1.4504 -0.1170 -1.7726
11804TIP3   OH256826   0.309   0.482  13.291 -0.5280 -0.1599  0.3144
11804TIP3    H156827   0.327   0.468  13.384 -0.7303  0.7825  0.5117
11804TIP3    H256828   0.386   0.446  13.246 -1.1157 -2.0279  0.7295
11805TIP3   OH256829   4.644   0.404   2.975 -0.2613  0.1291  0.1230
11805TIP3    H156830   4.623   0.487   2.933 -0.3850 -0.7067 -1.5782
11805TIP3    H256831   4.559   0.366   2.997 -0.2640 -0.0421 -0.1656
11806TIP3   OH256832   3.360   0.942   3.629  0.6382 -0.0646 -0.2326
11806TIP3    H156833   3.394   0.923   3.541  1.8165 -1.5751  0.4999
11806TIP3    H256834   3.424   1.003   3.666  0.8873 -0.4909  0.0463
11807TIP3   OH256835   5.345   4.083  13.883  0.3348 -0.0873  0.6083
11807TIP3    H156836   5.379   4.027  13.814  2.8104  0.9300  0.8962
11807TIP3    H256837   5.297   4.023  13.941 -0.3257 -1.2226 -1.0482
11808TIP3   OH256838   0.965   2.561  16.686 -0.0617  0.5342 -0.3956
11808TIP3    H156839   0.933   2.479  16.723  0.2537  0.1324 -0.9832
11808TIP3    H256840   1.030   2.534  16.621  0.0050  1.2481 -0.6379
11809TIP3   OH256841   4.347   4.592  16.451  0.0503 -0.5543 -0.8174
11809TIP3    H156842   4.403   4.641  16.511  0.3273 -0.9817 -0.7233
11809TIP3    H256843   4.351   4.502  16.483 -0.8830 -0.5515 -0.6613
11810TIP3   OH256844   5.162   1.209   2.495 -0.2119  0.0065 -0.5201
11810TIP3    H156845   5.117   1.226   2.412  0.4339  3.0637 -0.3764
11810TIP3    H256846   5.093   1.190   2.557 -0.8504 -0.4182 -1.3382
11811TIP3   OH256847   0.792   2.614   2.229 -0.0241 -0.0654  0.1274
11811TIP3    H156848   0.887   2.616   2.223  0.1213 -1.8232  1.2959
11811TIP3    H256849   0.771   2.670   2.304  0.1696 -0.5445  0.5390
11812TIP3   OH256850   4.874   3.070   5.923  0.3029  0.0435  0.0589
11812TIP3    H156851   4.827   3.066   6.007  0.8610  3.7220  0.7373
11812TIP3    H256852   4.806   3.093   5.859  0.1655 -1.0214 -0.1867
11813TIP3   OH256853   3.227   6.356   0.595  0.4830  0.3120  0.2283
11813TIP3    H156854   3.164   6.402   0.649  0.0484  0.5887 -0.5033
11813TIP3    H256855   3.301   6.416   0.588  0.9570 -0.1193  1.3051
11814TIP3   OH256856   4.700   1.485   4.079  0.4272 -0.3321 -0.1018
11814TIP3    H156857   4.703   1.510   3.986  3.7327 -0.2295 -0.0764
11814TIP3    H256858   4.672   1.565   4.124 -0.6122 -0.2059 -0.9272
11815TIP3   OH256859   0.127   5.737  13.877 -0.0406 -0.2182  0.5551
11815TIP3    H156860   0.105   5.645  13.890  0.9783 -0.4816  0.4989
11815TIP3    H256861   0.061   5.768  13.815  0.2296 -1.2018 -0.2634
11816TIP3   OH256862   3.481   1.103  12.109  0.4255 -0.2671  0.1962
11816TIP3    H156863   3.487   1.054  12.191 -0.7250 -1.2977 -0.2941
11816TIP3    H256864   3.389   1.129  12.103  0.5920  0.1928 -0.5493
11817TIP3   OH256865   2.777   5.230  11.384 -0.4544 -0.0787  0.2944
11817TIP3    H156866   2.800   5.138  11.393 -0.3180  0.0365  1.2246
11817TIP3    H256867   2.686   5.235  11.413 -0.1971  0.2101  1.0717
11818TIP3   OH256868   6.505   5.633  15.656  0.0997  0.3568  0.3776
11818TIP3    H156869   6.415   5.663  15.658  0.2008  0.6798  0.1854
11818TIP3    H256870   6.553   5.696  15.710  0.7168  1.9458 -1.8420
11819TIP3   OH256871   4.205   1.919  10.363  0.0596 -0.0044  0.4971
11819TIP3    H156872   4.269   1.986  10.338  0.7994 -0.4614  1.1032
11819TIP3    H256873   4.238   1.884  10.446 -0.0822 -1.4021 -0.0081
11820TIP3   OH256874   6.281   1.502   3.051  0.2807 -0.5269  0.4395
11820TIP3    H156875   6.251   1.476   2.964  0.3523  3.0797 -0.8744
11820TIP3    H256876   6.376   1.503   3.044  0.2631  1.0040  0.0576
11821TIP3   OH256877   3.562   2.627   4.625  0.3058 -0.4163 -0.0077
11821TIP3    H156878   3.471   2.647   4.648  0.5362 -0.6393  1.1500
11821TIP3    H256879   3.556   2.548   4.572 -0.1741 -0.4445  0.0818
11822TIP3   OH256880   3.726   3.580  12.039  0.4121  0.1534 -0.1836
11822TIP3    H156881   3.641   3.537  12.037  0.0998  0.7546 -2.1510
11822TIP3    H256882   3.788   3.510  12.061 -0.5513 -0.2977  1.2259
11823TIP3   OH256883   5.288   2.684  13.181 -0.2176 -0.0124 -0.2851
11823TIP3    H156884   5.270   2.595  13.153 -0.9200 -0.0373  0.1939
11823TIP3    H256885   5.368   2.678  13.233  0.3974 -0.1614 -1.2312
11824TIP3   OH256886   2.738   3.009  15.270  0.5885 -0.3029 -0.3406
11824TIP3    H156887   2.743   2.915  15.255 -1.2370 -0.2990 -1.3984
11824TIP3    H256888   2.692   3.018  15.353  0.7164 -0.3506 -0.2652
11825TIP3   OH256889   4.254   0.932  13.588  0.5075  0.0948 -0.6221
11825TIP3    H156890   4.183   0.873  13.565 -1.3640  1.3273  1.4949
11825TIP3    H256891   4.305   0.884  13.653  0.5122 -0.1161 -0.7810
11826TIP3   OH256892   1.663   2.301  14.937 -0.1179  0.0384 -0.5742
11826TIP3    H156893   1.634   2.247  15.011 -2.8977  0.0117 -1.5667
11826TIP3    H256894   1.614   2.383  14.946 -0.0916  0.2508 -2.0488
11827TIP3   OH256895   2.079   5.816  11.847 -0.3405 -0.4687 -0.6292
11827TIP3    H156896   2.004   5.875  11.849  0.5586  0.7429 -0.8288
11827TIP3    H256897   2.099   5.798  11.939 -1.1110 -1.1451 -0.5815
11828TIP3   OH256898   4.705   5.770  13.487 -0.2975 -1.0753  0.4054
11828TIP3    H156899   4.676   5.733  13.571 -1.2346 -2.3645 -0.4381
11828TIP3    H256900   4.663   5.856  13.482  1.9002  0.2352  2.4060
11829TIP3   OH256901   3.984   6.263  14.258  0.4302  0.3966 -0.1511
11829TIP3    H156902   4.055   6.326  14.274 -1.0592  1.6075  2.1203
11829TIP3    H256903   4.028   6.188  14.217  3.0159  1.1531  1.0232
11830TIP3   OH256904   3.848   1.632  16.857 -0.1122  0.5803  1.0396
11830TIP3    H156905   3.867   1.666  16.769  1.1418  2.8226  2.0864
11830TIP3    H256906   3.769   1.579  16.845  1.0784 -0.7607 -1.7426
11831TIP3   OH256907   3.092   0.286   4.686 -0.3187 -0.5856 -0.4055
11831TIP3    H156908   3.146   0.208   4.698 -0.8638 -1.0370 -0.7937
11831TIP3    H256909   3.058   0.278   4.597 -1.7844 -0.8092  0.1411
11832TIP3   OH256910   5.932   4.342   1.763 -0.5478 -0.1975 -0.0655
11832TIP3    H156911   5.839   4.327   1.782 -0.7354  1.1120  0.1777
11832TIP3    H256912   5.944   4.308   1.675 -1.3962  0.0670 -0.2966
11833TIP3   OH256913   1.836   6.469   2.156 -0.3196  0.1384 -0.0660
11833TIP3    H156914   1.819   6.537   2.091  2.4708 -1.9157 -3.3473
11833TIP3    H256915   1.770   6.402   2.138  0.8395 -0.7129 -1.4071
11834TIP3   OH256916   5.627   1.283  15.587 -0.5300 -0.3696 -0.0993
11834TIP3    H156917   5.667   1.305  15.503 -2.2360 -0.3433 -0.9511
11834TIP3    H256918   5.617   1.367  15.632 -0.1342 -0.3186 -0.1012
11835TIP3   OH256919   5.627   2.368  14.944  0.1837 -0.3844 -0.2190
11835TIP3    H156920   5.685   2.382  14.869 -0.3984  0.4080 -0.5376
11835TIP3    H256921   5.561   2.438  14.937 -0.8010 -1.2452  0.1372
11836TIP3   OH256922   5.714   1.994   1.680  0.4663 -0.1449 -0.6036
11836TIP3    H156923   5.657   2.016   1.753 -2.4324 -1.7638 -2.1728
11836TIP3    H256924   5.729   2.077   1.635  1.3614  0.6744  1.1297
11837TIP3   OH256925   2.743   0.898  12.382  0.3014  0.4268 -0.0276
11837TIP3    H156926   2.761   0.850  12.301  0.1618  0.6779 -0.2121
11837TIP3    H256927   2.826   0.940  12.404 -0.5273  3.6714 -2.2699
11838TIP3   OH256928   0.147   2.944  14.579 -0.2690 -0.3457 -0.1384
11838TIP3    H156929   0.069   2.984  14.618 -0.3001  0.3501 -0.8883
11838TIP3    H256930   0.217   2.961  14.642 -0.5865 -0.3903  0.2288
11839TIP3   OH256931   2.807   5.378   5.370  0.6977  0.5506  0.5658
11839TIP3    H156932   2.889   5.386   5.321  0.8288 -2.8926 -0.0549
11839TIP3    H256933   2.741   5.357   5.303  0.3550 -1.5729  1.4634
11840TIP3   OH256934   2.443   4.670   0.174 -0.0736 -0.1464 -0.0260
11840TIP3    H156935   2.411   4.672   0.083  1.8789 -1.1699 -0.7795
11840TIP3    H256936   2.395   4.598   0.214  0.7287 -1.2299 -0.9514
11841TIP3   OH256937   5.759   1.538   3.995 -0.3129 -0.4618 -0.2113
11841TIP3    H156938   5.825   1.592   4.037  0.0894 -1.3695  0.3457
11841TIP3    H256939   5.774   1.549   3.901 -0.5021  0.6994 -0.1157
11842TIP3   OH256940   0.717   1.007  16.646  0.1967  0.2464  0.0264
11842TIP3    H156941   0.771   0.928  16.635  1.1454  1.1281 -2.2235
11842TIP3    H256942   0.763   1.058  16.712 -0.2020 -0.8374  1.1996
11843TIP3   OH256943   0.794   4.753  13.693  0.4177  0.3150 -0.0146
11843TIP3    H156944   0.840   4.741  13.777  0.9776 -0.6803 -0.4347
11843TIP3    H256945   0.813   4.672  13.644 -0.1386  0.7558 -0.9900
11844TIP3   OH256946   6.769   4.888   5.333  0.0955 -0.1701 -0.5910
11844TIP3    H156947   6.728   4.953   5.276  0.0517  0.4889  0.1841
11844TIP3    H256948   6.700   4.860   5.392  0.7913  1.2024  0.9545
11845TIP3   OH256949   0.747   4.330   1.255  0.5342  0.1734  0.5173
11845TIP3    H156950   0.723   4.371   1.338  0.5945 -0.6559  0.9554
11845TIP3    H256951   0.820   4.272   1.277  0.3897 -0.2405 -0.0709
11846TIP3   OH256952   6.686   6.145   6.512 -0.1998  0.1758 -0.4095
11846TIP3    H156953   6.692   6.236   6.542 -0.9239 -0.3467  1.5333
11846TIP3    H256954   6.748   6.097   6.567 -1.5638 -0.8481  0.3052
11847TIP3   OH256955   1.743   6.675  14.235 -0.2130  0.2042  0.3314
11847TIP3    H156956   1.740   6.671  14.140  1.0111 -0.6007  0.3067
11847TIP3    H256957   1.786   6.758  14.254  1.6305 -0.6409  0.0936
11848TIP3   OH256958   4.362   4.981  16.869  0.4828  0.2522 -0.6458
11848TIP3    H156959   4.424   5.038  16.914  0.7349  0.9405 -1.8095
11848TIP3    H256960   4.407   4.897  16.863  0.3140  0.0499  0.6403
11849TIP3   OH256961   2.169   5.300  14.634 -0.0627  0.2539  0.0333
11849TIP3    H156962   2.171   5.278  14.541  0.0730 -2.5067  0.6148
11849TIP3    H256963   2.077   5.321  14.652 -0.0034  1.3025 -0.7720
11850TIP3   OH256964   6.333   4.064  12.103  0.3168 -0.0774  0.0905
11850TIP3    H156965   6.306   3.975  12.078 -0.0920  0.1556 -0.2953
11850TIP3    H256966   6.397   4.050  12.174 -0.9740 -0.6143  1.1820
11851TIP3   OH256967   1.011   3.013   6.015  0.4441 -0.1564 -0.0145
11851TIP3    H156968   1.072   2.946   6.043  3.5399  2.7009  0.6891
11851TIP3    H256969   0.958   3.033   6.092  0.2274 -0.9927  0.0606
11852TIP3   OH256970   0.808   2.728   3.888  0.8243  0.0720  0.2928
11852TIP3    H156971   0.827   2.736   3.795 -1.8508  2.4317 -0.1940
11852TIP3    H256972   0.734   2.667   3.892  0.8065  0.1204  0.8418
11853TIP3   OH256973   4.642   4.635  12.079 -0.0071 -0.2844  0.2631
11853TIP3    H156974   4.586   4.675  12.013  0.8491  0.5825  0.0465
11853TIP3    H256975   4.657   4.705  12.143 -0.2498 -0.9024  1.0204
11854TIP3   OH256976   2.032   2.991   4.729  0.0295 -0.1543  0.2163
11854TIP3    H156977   1.982   3.066   4.697 -0.8048 -0.6974  0.2394
11854TIP3    H256978   2.082   3.026   4.803  2.4835  1.2939 -1.9598
11855TIP3   OH256979   1.639   2.581   1.864 -0.4669 -0.1406  0.1147
11855TIP3    H156980   1.649   2.670   1.899 -0.6131  0.2307 -0.7504
11855TIP3    H256981   1.550   2.579   1.830 -0.4104 -0.5649 -0.0134
11856TIP3   OH256982   2.032   3.306   3.580 -0.0544 -0.2425 -0.1939
11856TIP3    H156983   2.123   3.332   3.590  0.2241 -1.7665  1.9862
11856TIP3    H256984   2.026   3.222   3.626 -2.7402  0.2131  0.4540
11857TIP3   OH256985   4.178   0.060   5.844  0.4952  0.7288  0.5645
11857TIP3    H156986   4.168   0.132   5.783 -2.4536 -1.6051 -2.0121
11857TIP3    H256987   4.253   0.010   5.810 -0.6971 -0.1714 -0.8602
11858TIP3   OH256988   4.285   2.169  10.998 -0.0443 -0.2971  0.7490
11858TIP3    H156989   4.273   2.112  10.922 -0.6805  0.7071  0.0572
11858TIP3    H256990   4.378   2.162  11.019  0.5274  0.6222 -1.1843
11859TIP3   OH256991   5.261   5.407   1.187  0.1929  0.8419 -0.3150
11859TIP3    H156992   5.261   5.355   1.268 -1.3024  0.8408 -0.2979
11859TIP3    H256993   5.249   5.342   1.118 -0.3812  1.0295 -0.3934
11860TIP3   OH256994   4.573   5.684   2.289  0.1911  0.1637  0.2007
11860TIP3    H156995   4.649   5.635   2.258  0.0962 -0.4449  0.9038
11860TIP3    H256996   4.510   5.617   2.314 -0.3388  0.6626  0.2125
11861TIP3   OH256997   3.833   3.644  15.686 -0.6074  0.1562  0.0927
11861TIP3    H156998   3.763   3.693  15.729 -0.2018  1.0505 -0.2371
11861TIP3    H256999   3.889   3.614  15.757 -0.7404  0.3652  0.2842
11862TIP3   OH257000   4.965   4.903  11.402  0.2814  0.8486  0.1142
11862TIP3    H157001   4.905   4.835  11.373  1.1122 -0.7169  1.8965
11862TIP3    H257002   5.031   4.908  11.333 -0.0756  0.2276 -0.2765
11863TIP3   OH257003   0.101   3.588  16.625  0.4463 -0.1596  0.3510
11863TIP3    H157004   0.179   3.642  16.636  1.0115 -1.0224  0.7023
11863TIP3    H257005   0.093   3.540  16.707 -1.1503  0.7656  0.7848
11864TIP3   OH257006   4.113   3.920   4.826 -0.4470 -0.0919  0.0412
11864TIP3    H157007   4.128   3.894   4.735 -4.3262  0.2108 -0.8520
11864TIP3    H257008   4.155   4.005   4.834  0.8240 -0.5777 -1.1383
11865TIP3   OH257009   5.739   6.158   2.450  0.1544 -0.2173  0.1289
11865TIP3    H157010   5.821   6.157   2.400 -0.4346  1.2586 -0.9185
11865TIP3    H257011   5.732   6.247   2.483 -1.5579 -0.0028 -0.7348
11866TIP3   OH257012   1.904   5.930   2.881 -0.5316  0.1335 -0.2434
11866TIP3    H157013   1.848   6.006   2.866 -0.8957  0.1100  0.8547
11866TIP3    H257014   1.979   5.944   2.824 -0.2374  1.7131  0.4670
11867TIP3   OH257015   6.507   0.818  13.537 -0.0498 -0.0574  0.1073
11867TIP3    H157016   6.596   0.832  13.571 -0.2032 -2.0051  1.5307
11867TIP3    H257017   6.514   0.833  13.443  1.3918  1.4562  0.4119
11868TIP3   OH257018   6.502   6.476  16.373  0.7050  0.3297  0.1355
11868TIP3    H157019   6.494   6.400  16.316  1.1350  0.1950  0.2527
11868TIP3    H257020   6.570   6.530  16.333 -0.5367  1.3278 -0.6963
11869TIP3   OH257021   6.341   4.482   2.819 -0.0585  0.7191  0.2640
11869TIP3    H157022   6.407   4.479   2.750  0.2829  1.3540  0.5599
11869TIP3    H257023   6.307   4.571   2.816  1.3206  1.3695  2.1673
11870TIP3   OH257024   1.376   4.305   3.731  0.0361  0.5278 -0.5983
11870TIP3    H157025   1.400   4.353   3.652  0.0727 -0.8001 -1.4394
11870TIP3    H257026   1.362   4.372   3.798 -1.6123  1.8101 -2.1430
11871TIP3   OH257027   5.140   5.772  15.972 -0.1771  0.3130  0.0440
11871TIP3    H157028   5.128   5.677  15.975  2.7831 -0.1110  2.1540
11871TIP3    H257029   5.205   5.786  15.903 -0.7979  0.8931 -0.4457
11872TIP3   OH257030   0.789   0.765  14.203  0.1233  0.3587 -0.1396
11872TIP3    H157031   0.839   0.800  14.277  1.1597 -1.5668  0.1480
11872TIP3    H257032   0.847   0.775  14.128 -0.3724  1.0362 -0.4413
11873TIP3   OH257033   4.920   1.136   4.510 -0.1469 -0.2602  0.2966
11873TIP3    H157034   4.825   1.120   4.512 -0.2649  0.4378  0.4907
11873TIP3    H257035   4.942   1.160   4.599  0.8386 -3.7080  1.1265
11874TIP3   OH257036   2.005   6.600  13.144 -0.6614 -0.2637  1.0969
11874TIP3    H157037   1.970   6.614  13.232 -1.0450 -0.9676  1.0591
11874TIP3    H257038   1.929   6.580  13.090 -0.6526  1.8561  0.2211
11875TIP3   OH257039   0.718   2.980  15.922 -0.3051  0.5456  0.0721
11875TIP3    H157040   0.669   3.024  15.853 -1.2877 -1.5083 -0.6275
11875TIP3    H257041   0.650   2.941  15.977  0.4942 -1.2189 -0.1319
11876TIP3   OH257042   4.648   0.615  16.551  0.8242 -0.1903  0.4501
11876TIP3    H157043   4.598   0.533  16.551 -0.3740  0.5091 -0.4148
11876TIP3    H257044   4.601   0.671  16.613  0.0700  0.7148 -0.8903
11877TIP3   OH257045   2.182   0.377   5.602 -0.1472 -0.1205  0.2281
11877TIP3    H157046   2.275   0.367   5.578 -0.7196  0.6484 -2.8128
11877TIP3    H257047   2.184   0.408   5.692  2.5791  0.0354  0.2166
11878TIP3   OH257048   0.484   0.766  16.968 -0.2131 -0.2608  0.9274
11878TIP3    H157049   0.441   0.850  16.951 -0.5918 -0.8211 -1.2505
11878TIP3    H257050   0.568   0.773  16.923 -0.5953 -1.3076 -0.0043
11879TIP3   OH257051   0.910   4.780  16.432 -0.3099 -0.5096  0.4697
11879TIP3    H157052   0.999   4.772  16.396 -0.5049 -0.7734  0.0374
11879TIP3    H257053   0.874   4.692  16.423 -0.5924 -0.4169  0.7083
11880TIP3   OH257054   3.191   1.610   2.281 -0.5800 -0.2486  0.5010
11880TIP3    H157055   3.239   1.685   2.244  1.6503 -1.0044  1.6728
11880TIP3    H257056   3.168   1.557   2.204 -0.7082  0.7782 -0.1980
11881TIP3   OH257057   0.705   6.517   1.900 -0.1268 -0.2159  0.2647
11881TIP3    H157058   0.723   6.533   1.993 -0.3204  0.3949  0.2073
11881TIP3    H257059   0.782   6.471   1.868  0.6255  0.9098  0.3849
11882TIP3   OH257060   1.013   3.142   4.231 -0.4981  0.3402 -0.2870
11882TIP3    H157061   1.062   3.067   4.198 -0.6131 -0.2234  0.7881
11882TIP3    H257062   0.939   3.104   4.278  0.8539  1.0028  2.5654
11883TIP3   OH257063   1.241   2.871   0.965  0.1104  0.1045  0.2224
11883TIP3    H157064   1.183   2.945   0.984 -0.8042 -0.5726  0.1795
11883TIP3    H257065   1.294   2.862   1.044  0.4311  0.9814  0.1124
11884TIP3   OH257066   0.220   6.725   4.267  0.1130  0.0241 -0.5179
11884TIP3    H157067   0.196   6.746   4.357 -0.7964 -2.4266 -0.1109
11884TIP3    H257068   0.316   6.735   4.265  0.0442  0.9979  0.4519
11885TIP3   OH257069   0.858   1.682   2.117 -0.5384 -0.2816 -0.1387
11885TIP3    H157070   0.813   1.766   2.120  0.5249  0.3613 -1.3870
11885TIP3    H257071   0.912   1.681   2.196  0.3683  0.7673 -0.7183
11886TIP3   OH257072   2.543   5.221   2.788 -0.0744  0.4684  0.2502
11886TIP3    H157073   2.500   5.167   2.720 -0.7300  1.2406  0.0314
11886TIP3    H257074   2.478   5.226   2.858  0.5194 -0.1457  0.8521
11887TIP3   OH257075   6.390   6.516  12.460 -0.1390 -0.7620 -0.3086
11887TIP3    H157076   6.417   6.523  12.368 -0.6246 -1.2137 -0.4900
11887TIP3    H257077   6.396   6.423  12.480  0.3292 -0.6211  0.2403
11888TIP3   OH257078   5.971   4.252  12.946 -0.2600  0.4615 -0.0344
11888TIP3    H157079   6.055   4.288  12.918 -0.6460  0.8730 -0.6675
11888TIP3    H257080   5.905   4.310  12.908 -0.9078 -1.0176 -1.3154
11889TIP3   OH257081   5.010   6.090   3.153  0.0781  0.0687  0.2856
11889TIP3    H157082   5.043   6.146   3.082 -0.8412  1.5174  0.9587
11889TIP3    H257083   4.918   6.116   3.163  0.0192 -0.5763  1.5783
11890TIP3   OH257084   2.998   2.867   5.686 -0.3371  0.5305  0.2422
11890TIP3    H157085   3.034   2.903   5.605  2.3345 -2.2946  0.0065
11890TIP3    H257086   2.940   2.797   5.656  2.0443 -1.7532  0.6061
11891TIP3   OH257087   2.802   2.388  15.494 -0.1434 -0.1337  0.1732
11891TIP3    H157088   2.820   2.298  15.467 -0.5984 -0.2571  0.2714
11891TIP3    H257089   2.706   2.392  15.504 -0.0980  0.2626  0.5114
11892TIP3   OH257090   2.793   0.205  17.179  0.5708  0.4756 -0.7034
11892TIP3    H157091   2.732   0.252  17.121  0.9747  0.2953 -1.2889
11892TIP3    H257092   2.847   0.273  17.218 -1.1296  0.8204  1.2127
11893TIP3   OH257093   4.567   6.251  12.290 -0.3130  0.0900  0.4021
11893TIP3    H157094   4.645   6.304  12.274  1.6000 -2.5014  0.5740
11893TIP3    H257095   4.538   6.278  12.377  1.0557  0.3651  0.8014
11894TIP3   OH257096   1.299   4.682   0.038 -0.0955  0.0830  0.5576
11894TIP3    H157097   1.242   4.639   0.101  2.1277 -2.7394  0.8667
11894TIP3    H257098   1.292   4.628  -0.041  1.2005  0.3437  0.2394
11895TIP3   OH257099   1.796   4.041   3.056 -0.1488  0.1943  0.3230
11895TIP3    H157100   1.856   4.111   3.084  1.1644 -1.2035  1.1706
11895TIP3    H257101   1.727   4.041   3.123  0.1224  0.3486  0.6078
11896TIP3   OH257102   4.798   3.609  14.349 -0.2960 -0.6684 -0.2604
11896TIP3    H157103   4.743   3.687  14.352  1.0485  0.2985  0.1440
11896TIP3    H257104   4.736   3.536  14.348 -1.5726  0.3699  0.3552
11897TIP3   OH257105   1.685   6.508  12.157 -0.1164 -0.2189 -0.0116
11897TIP3    H157106   1.592   6.532  12.153 -0.2269 -0.7243 -0.5166
11897TIP3    H257107   1.718   6.555  12.234 -1.1504 -1.2781  1.1136
11898TIP3   OH257108   3.744   6.543  16.063  0.2031 -0.0185  0.7361
11898TIP3    H157109   3.793   6.603  16.120 -0.7502  1.1854  0.3218
11898TIP3    H257110   3.711   6.476  16.122 -0.1072  0.7807  1.4959
11899TIP3   OH257111   5.991   3.630  11.797 -0.3599  0.0467 -0.4840
11899TIP3    H157112   5.978   3.658  11.706  1.2026 -1.3044 -1.1954
11899TIP3    H257113   6.084   3.647  11.813 -0.9124  1.5361  1.3640
11900TIP3   OH257114   3.843   2.749   2.371 -0.2706 -0.3822 -0.2279
11900TIP3    H157115   3.837   2.745   2.275  1.1569  0.0473 -0.3655
11900TIP3    H257116   3.818   2.661   2.400  0.1797 -0.8022 -1.0584
11901TIP3   OH257117   1.496   3.571  12.536 -0.0650 -0.0105 -0.2927
11901TIP3    H157118   1.406   3.537  12.538 -0.0624 -0.2751 -2.6047
11901TIP3    H257119   1.547   3.504  12.582 -0.8028 -0.6790 -0.4151
11902TIP3   OH257120   0.562   4.616  13.267  0.4833 -0.5566  0.4132
11902TIP3    H157121   0.606   4.671  13.331  0.7151  0.1826 -0.3547
11902TIP3    H257122   0.543   4.675  13.194 -0.3301 -1.2342  0.0574
11903TIP3   OH257123   4.877   6.581  13.389 -0.2185 -0.0969 -0.2637
11903TIP3    H157124   4.902   6.670  13.364 -3.4955  0.3149 -2.7800
11903TIP3    H257125   4.796   6.593  13.440 -0.2288 -1.6039  0.0974
11904TIP3   OH257126   3.667   3.577   5.708 -0.4494 -0.2993  0.5873
11904TIP3    H157127   3.636   3.643   5.647  1.1863 -1.9434 -2.2602
11904TIP3    H257128   3.651   3.493   5.664  0.8467 -1.6013  2.4013
11905TIP3   OH257129   2.401   1.215  11.435  0.1616  0.2580  0.1522
11905TIP3    H157130   2.436   1.239  11.350 -1.3203 -0.5286 -0.7238
11905TIP3    H257131   2.375   1.123  11.425  0.8471 -0.1456  1.7588
11906TIP3   OH257132   2.645   0.704   0.608  0.4789 -0.2648  0.2501
11906TIP3    H157133   2.608   0.777   0.559 -0.5684 -0.6354  0.4720
11906TIP3    H257134   2.691   0.652   0.542 -1.4442 -1.0978 -0.4806
11907TIP3   OH257135   1.293   6.416   4.737 -0.4389  0.0526 -0.2847
11907TIP3    H157136   1.361   6.372   4.788 -0.1176 -0.0991 -0.8293
11907TIP3    H257137   1.212   6.372   4.762 -0.5296  1.0170  1.2599
11908TIP3   OH257138   1.594   3.415   2.396 -0.4940  0.3508  0.0245
11908TIP3    H157139   1.571   3.342   2.454  0.9925  0.9499  1.4438
11908TIP3    H257140   1.574   3.382   2.308  1.4202 -2.3463  0.4657
11909TIP3   OH257141   4.851   6.618   6.236 -0.2053  0.1502 -0.2530
11909TIP3    H157142   4.810   6.701   6.257 -1.9275 -0.5578 -0.6913
11909TIP3    H257143   4.886   6.587   6.320 -0.1926  0.9463  0.0505
11910TIP3   OH257144   2.572   6.413   4.186 -0.7032  0.0641 -1.0183
11910TIP3    H157145   2.634   6.464   4.238 -2.8362  0.9294  0.9045
11910TIP3    H257146   2.589   6.322   4.211 -0.5855  0.3371 -0.0348
11911TIP3   OH257147   0.987   4.116   0.623  0.5210 -0.3084 -0.8332
11911TIP3    H157148   0.985   4.024   0.595  2.1300 -0.7075  0.2527
11911TIP3    H257149   1.015   4.113   0.714 -0.4023  1.2241 -0.4681
11912TIP3   OH257150   5.300   1.356  11.473  0.7195 -0.2896 -0.3828
11912TIP3    H157151   5.370   1.292  11.481  1.2860  0.2246 -1.0511
11912TIP3    H257152   5.337   1.437  11.508 -0.2255 -0.4727  1.1159
11913TIP3   OH257153   0.506   2.504  11.516  0.7521 -0.2075 -0.0723
11913TIP3    H157154   0.434   2.497  11.579  0.6764  1.0748  0.0146
11913TIP3    H257155   0.464   2.523  11.433  0.9580 -0.0616 -0.1430
11914TIP3   OH257156   6.190   1.420   2.809  0.4857  0.0378 -0.2682
11914TIP3    H157157   6.112   1.367   2.794 -0.5436  1.0532  1.1276
11914TIP3    H257158   6.189   1.486   2.740  1.0495 -0.9579 -1.2382
11915TIP3   OH257159   0.020   3.087  12.624 -0.6296 -0.1528  0.1383
11915TIP3    H157160  -0.033   3.021  12.668  0.0864  0.0362  1.3472
11915TIP3    H257161   0.049   3.145  12.695  0.5321  0.2015 -0.5982
11916TIP3   OH257162   5.818   1.653  12.986 -0.6009  0.1188 -0.1539
11916TIP3    H157163   5.801   1.655  13.080  0.0291  1.6910 -0.0585
11916TIP3    H257164   5.767   1.578  12.955 -1.3052 -0.0570  1.3348
11917TIP3   OH257165   3.993   5.061  12.047  0.6518 -0.0603 -0.0150
11917TIP3    H157166   4.059   5.088  11.984 -0.9398  0.6291 -1.4452
11917TIP3    H257167   4.027   4.979  12.083  2.4218  0.4380 -0.4459
11918TIP3   OH257168   3.341   6.021  11.388  0.7957 -0.0791  0.7322
11918TIP3    H157169   3.356   5.943  11.335 -2.2072  0.3074 -0.8992
11918TIP3    H257170   3.319   6.089  11.324 -0.4252  1.0827  2.3063
11919TIP3   OH257171   4.391   5.042  13.575 -0.5559  0.1422  0.0985
11919TIP3    H157172   4.322   5.108  13.574  0.0719  0.8077 -1.6225
11919TIP3    H257173   4.453   5.074  13.641  0.4892  2.1282 -1.7409
11920TIP3   OH257174   2.407   2.690  12.350  0.5630  0.1717  0.2410
11920TIP3    H157175   2.336   2.738  12.392  0.0809 -1.0281  0.8177
11920TIP3    H257176   2.386   2.694  12.256 -0.7858 -0.9479  0.4619
11921TIP3   OH257177   0.656   6.599  17.132 -0.1574  0.0846 -0.4485
11921TIP3    H157178   0.641   6.524  17.190  0.8899  0.2103  0.0034
11921TIP3    H257179   0.604   6.670  17.171  0.4275  0.1298  0.2810
11922TIP3   OH257180   1.282   0.316  16.630  0.2136 -0.0095 -0.2561
11922TIP3    H157181   1.351   0.361  16.581  1.1420 -1.1480 -0.0191
11922TIP3    H257182   1.285   0.225  16.601 -1.4507 -0.0297 -0.5082
11923TIP3   OH257183   1.004   1.306   3.847  0.1987  0.0713  0.1847
11923TIP3    H157184   1.011   1.249   3.923  1.6993 -0.0970 -0.0460
11923TIP3    H257185   1.074   1.276   3.788  0.1424  1.2735 -0.5225
11924TIP3   OH257186   1.702   1.654  16.146  0.0868 -0.3138  0.1264
11924TIP3    H157187   1.715   1.587  16.079 -0.2566 -1.5435  1.2429
11924TIP3    H257188   1.745   1.732  16.112  2.2504 -1.6486 -0.3388
11925TIP3   OH257189   0.168   3.412  12.081  0.7292  0.1421  0.0986
11925TIP3    H157190   0.210   3.494  12.055  0.6469  0.3331  0.5529
11925TIP3    H257191   0.150   3.367  11.998  2.2307 -0.1588 -0.0816
11926TIP3   OH257192   3.354   1.935  12.370  0.2597  0.5228 -0.0023
11926TIP3    H157193   3.316   1.853  12.338 -0.4068  0.6076  0.5380
11926TIP3    H257194   3.445   1.913  12.390 -0.0429 -0.2413  0.6335
11927TIP3   OH257195   0.101   1.937  13.663  0.8211  0.0368 -0.1943
11927TIP3    H157196   0.127   2.017  13.708 -0.4764  0.4796 -0.1965
11927TIP3    H257197   0.111   1.958  13.570 -2.0668  1.1932 -0.3391
11928TIP3   OH257198   1.632   0.395   1.731  0.3486 -0.1797 -0.0876
11928TIP3    H157199   1.718   0.396   1.688  0.2919  0.0793 -0.1948
11928TIP3    H257200   1.634   0.470   1.790  0.4641 -0.5940  0.4426
11929TIP3   OH257201   4.934   2.526  16.945  0.5571  0.4573  0.1701
11929TIP3    H157202   4.842   2.512  16.925  0.6192  0.5251 -0.1668
11929TIP3    H257203   4.935   2.546  17.038 -0.0631  2.9033 -0.2793
11930TIP3   OH257204   5.797   0.756  12.896  0.4418 -0.1981  0.4270
11930TIP3    H157205   5.826   0.666  12.883  0.9592 -0.4948  3.1786
11930TIP3    H257206   5.757   0.780  12.812  0.6539 -2.8139 -0.5153
11931TIP3   OH257207   5.221   1.823  14.170  0.0835 -0.0695 -0.2162
11931TIP3    H157208   5.186   1.756  14.110 -0.8387  0.5750 -0.4139
11931TIP3    H257209   5.249   1.894  14.112  0.4131  0.0012  0.0344
11932TIP3   OH257210   6.106   2.616  11.745 -0.6114 -0.4064  0.3013
11932TIP3    H157211   6.087   2.536  11.695 -0.1245  0.1241 -0.7580
11932TIP3    H257212   6.064   2.686  11.696  0.5067  0.2263  0.2008
11933TIP3   OH257213   4.377   6.635   5.872 -0.6500  0.3159 -0.2899
11933TIP3    H157214   4.390   6.671   5.960 -0.7558 -0.6221  0.1235
11933TIP3    H257215   4.386   6.540   5.884 -1.8389  0.0871 -1.0702
11934TIP3   OH257216   5.832   1.746   2.429  0.6329 -0.1055  0.6976
11934TIP3    H157217   5.878   1.823   2.463 -0.1266  1.4292 -1.4815
11934TIP3    H257218   5.787   1.778   2.350 -1.0375 -2.4273  0.5971
11935TIP3   OH257219   5.898   0.394   3.266  0.3784  0.0071  0.0667
11935TIP3    H157220   5.869   0.369   3.178 -2.0670  2.9073 -0.1192
11935TIP3    H257221   5.954   0.470   3.252  0.4654  0.1169  0.9680
11936TIP3   OH257222   2.054   4.057  17.334  0.4225  0.0591  0.4511
11936TIP3    H157223   1.991   4.090  17.397 -1.0486 -1.3624 -0.2020
11936TIP3    H257224   2.064   3.964  17.357 -0.0872 -0.4684 -1.3436
11937TIP3   OH257225   2.693   6.611  12.241 -0.3617  0.1164 -0.0457
11937TIP3    H157226   2.609   6.631  12.282 -0.0602  0.9385  0.1977
11937TIP3    H257227   2.758   6.653  12.297  0.1962 -0.3095 -0.3618
11938TIP3   OH257228   5.548   3.195  14.871  0.3075 -0.3555  0.4737
11938TIP3    H157229   5.545   3.274  14.925 -0.1758  0.1306 -0.2503
11938TIP3    H257230   5.615   3.140  14.912  0.2210  0.1663  1.3362
11939TIP3   OH257231   5.395   3.269  11.660 -0.1479 -0.0805 -0.2525
11939TIP3    H157232   5.478   3.289  11.703 -0.2333 -1.4871  0.6167
11939TIP3    H257233   5.389   3.173  11.662 -1.5771 -0.0218 -0.7096
11940TIP3   OH257234   2.933   3.764   5.043  0.1563  0.4120  0.6012
11940TIP3    H157235   2.985   3.694   5.081 -0.8431 -0.3904  0.5316
11940TIP3    H257236   2.976   3.784   4.960  0.7922  0.3092  0.9000
11941TIP3   OH257237   0.042   3.483   5.922  0.0216 -0.0449  0.1307
11941TIP3    H157238  -0.007   3.402   5.910  0.7667 -0.4513 -0.2082
11941TIP3    H257239   0.003   3.523   6.000 -0.4952 -0.6135  0.1714
11942TIP3   OH257240   0.472   4.211   2.488  0.6833 -0.5944 -0.0457
11942TIP3    H157241   0.506   4.299   2.504 -0.3873 -0.3253  0.8302
11942TIP3    H257242   0.495   4.193   2.397  1.6087  0.2662 -0.0045
11943TIP3   OH257243   5.637   2.283  15.190  0.0776 -0.1225  0.0636
11943TIP3    H157244   5.626   2.301  15.096 -0.0540  0.3903  0.1694
11943TIP3    H257245   5.580   2.208  15.207 -0.1979  0.0248 -0.1955
11944TIP3   OH257246   5.377   0.604   1.595 -0.1661  0.2660  0.9121
11944TIP3    H157247   5.325   0.576   1.520 -0.5011 -2.5375  2.0555
11944TIP3    H257248   5.466   0.575   1.575  0.4443  2.4020  0.2660
11945TIP3   OH257249   3.169   0.379   6.644 -0.2611 -0.1415 -0.2654
11945TIP3    H157250   3.088   0.331   6.661 -0.5687  1.2771  3.0283
11945TIP3    H257251   3.149   0.469   6.668  1.5207  0.8482 -2.1593
11946TIP3   OH257252   1.646   5.456   2.413  0.6745  0.4171  0.9586
11946TIP3    H157253   1.615   5.541   2.443 -0.1195  0.6632 -0.5016
11946TIP3    H257254   1.741   5.460   2.423  0.5733  1.1128  1.7761
11947TIP3   OH257255   1.159   3.831   1.568  0.2844  0.1769  0.2591
11947TIP3    H157256   1.158   3.890   1.493  0.5323 -0.1457 -0.0036
11947TIP3    H257257   1.082   3.856   1.620  0.1330  0.4257 -0.0819
11948TIP3   OH257258   5.769   2.739   3.416 -0.6680  0.1629 -0.2360
11948TIP3    H157259   5.852   2.705   3.383  0.4694  1.6492  0.9371
11948TIP3    H257260   5.774   2.726   3.511 -1.3761  1.0659 -0.0547
11949TIP3   OH257261   6.591   0.146  15.615  0.1553 -0.2212 -0.1601
11949TIP3    H157262   6.513   0.169  15.566 -0.0659  0.8352  0.6503
11949TIP3    H257263   6.648   0.223  15.607  0.1229 -0.0270  1.1718
11950TIP3   OH257264   2.513   2.223   3.623  0.7256  0.6726 -0.1905
11950TIP3    H157265   2.493   2.193   3.534  1.3421 -0.8267  0.1540
11950TIP3    H257266   2.526   2.143   3.673 -0.2786  1.4759  1.4298
11951TIP3   OH257267   5.083   2.874   1.178  0.4319  0.0172  0.5351
11951TIP3    H157268   5.125   2.953   1.144 -1.9406  0.8507 -0.6566
11951TIP3    H257269   5.096   2.878   1.272  1.7455  0.9506  0.3350
11952TIP3   OH257270   5.632   0.119  11.001 -0.0069  0.2376 -0.3951
11952TIP3    H157271   5.706   0.178  10.985  2.3743 -2.0509  1.3205
11952TIP3    H257272   5.607   0.135  11.091  1.1533 -1.7001  0.3422
11953TIP3   OH257273   0.117   3.385  16.198  0.1208  0.2918 -0.3063
11953TIP3    H157274   0.199   3.377  16.246 -0.2559 -0.1246  0.2675
11953TIP3    H257275   0.053   3.414  16.263 -0.2413  0.4085 -0.7043
11954TIP3   OH257276   1.508   6.148  14.270  0.1756  0.7158  0.0886
11954TIP3    H157277   1.513   6.198  14.189  1.1541  0.1144 -0.2407
11954TIP3    H257278   1.589   6.097  14.272 -0.2679  0.0161  0.9804
11955TIP3   OH257279   0.423   6.058   1.529  0.8289  0.2904 -0.5191
11955TIP3    H157280   0.432   6.098   1.443  0.4826 -1.3077 -1.3336
11955TIP3    H257281   0.332   6.029   1.532  1.0868 -0.4868  0.0119
11956TIP3   OH257282   5.713   5.636  12.784  0.1055  0.0517  0.1307
11956TIP3    H157283   5.689   5.723  12.752  0.1118  0.4721  1.2344
11956TIP3    H257284   5.800   5.621  12.747 -0.4223 -0.0399 -1.1142
11957TIP3   OH257285   1.481   1.974  11.993 -0.4958  1.1095 -0.7252
11957TIP3    H157286   1.559   1.979  11.937 -1.5508  0.4374 -2.3127
11957TIP3    H257287   1.495   1.897  12.048 -0.7770 -0.0353 -2.2143
11958TIP3   OH257288   3.814   1.526   5.922 -0.3971  0.1271 -0.1514
11958TIP3    H157289   3.754   1.583   5.970  1.1764  0.4401  1.5525
11958TIP3    H257290   3.821   1.448   5.976  0.5706  0.0216 -0.4194
11959TIP3   OH257291   2.428   3.448  11.908  0.0320 -0.3112  0.1429
11959TIP3    H157292   2.452   3.470  11.817  0.5599  2.2155  0.8068
11959TIP3    H257293   2.501   3.394  11.939  0.3227 -0.3971 -0.6614
11960TIP3   OH257294   3.013   6.623  13.957 -0.2347 -0.3193  0.3187
11960TIP3    H157295   2.999   6.547  13.901 -0.9061  0.5658 -0.7712
11960TIP3    H257296   3.088   6.600  14.013  0.2407 -1.3543 -0.7239
11961TIP3   OH257297   3.697   1.243   3.562 -0.3059  0.1007 -0.2357
11961TIP3    H157298   3.722   1.333   3.582  1.0803 -0.1508 -0.7183
11961TIP3    H257299   3.637   1.251   3.487  1.4540  0.5369 -1.6636
11962TIP3   OH257300   3.596   5.905  16.647  0.0286 -0.4734 -0.0972
11962TIP3    H157301   3.632   5.936  16.564  0.1535 -1.4570 -0.4143
11962TIP3    H257302   3.525   5.966  16.666  1.3409  1.0420  0.1566
11963TIP3   OH257303   2.546   4.126   3.467 -0.1762 -0.1130  0.7862
11963TIP3    H157304   2.503   4.196   3.517 -2.3110  0.3864 -1.5684
11963TIP3    H257305   2.633   4.162   3.448 -0.4490  0.9861  1.4708
11964TIP3   OH257306   1.136   1.178  16.364 -0.7681 -0.4051  0.1429
11964TIP3    H157307   1.214   1.165  16.417 -0.5449  0.0459 -0.0715
11964TIP3    H257308   1.079   1.233  16.418 -0.4933  0.1498 -0.1236
11965TIP3   OH257309   0.370   3.927  16.530 -0.2261 -0.1493  0.1027
11965TIP3    H157310   0.415   3.984  16.592 -1.1594  1.4783 -0.6348
11965TIP3    H257311   0.355   3.846  16.578  0.4209  0.5207  1.4874
11966TIP3   OH257312   5.339   1.389   0.905 -0.2762 -0.5432  0.0469
11966TIP3    H157313   5.368   1.310   0.860 -0.1711 -0.6880  0.3655
11966TIP3    H257314   5.288   1.357   0.979  0.9794 -0.3699  1.0274
11967TIP3   OH257315   2.869   2.063   5.889 -0.0125  0.2720  0.0835
11967TIP3    H157316   2.791   2.035   5.840  0.9783  0.7300 -1.8601
11967TIP3    H257317   2.938   2.004   5.859  0.4278 -0.1806  1.8428
11968TIP3   OH257318   1.863   0.701  15.418 -0.0884  0.5039  0.3665
11968TIP3    H157319   1.842   0.715  15.325 -1.3610 -1.6952  0.2411
11968TIP3    H257320   1.958   0.707  15.422 -0.1280  2.9612 -0.6002
11969TIP3   OH257321   4.215   1.493  15.766  0.5568  0.3479  0.1905
11969TIP3    H157322   4.231   1.424  15.702  0.4172 -0.7358  1.2789
11969TIP3    H257323   4.176   1.564  15.716 -0.1074 -0.7024 -0.8166
11970TIP3   OH257324   1.262   2.804  13.349  0.0340  0.1610  0.0277
11970TIP3    H157325   1.274   2.709  13.339 -1.7817 -0.2171  0.9195
11970TIP3    H257326   1.350   2.840  13.343  0.6901 -1.4895 -1.1841
11971TIP3   OH257327   0.194   0.836   6.243 -0.0952 -0.2019  0.3391
11971TIP3    H157328   0.124   0.772   6.254 -1.0356  0.8450  0.5825
11971TIP3    H257329   0.255   0.817   6.314 -2.5042  1.8732  3.2258
11972TIP3   OH257330   2.555   4.107   6.709 -0.1137  0.5910 -0.2947
11972TIP3    H157331   2.580   4.058   6.630  0.7093 -0.0571  0.3503
11972TIP3    H257332   2.585   4.196   6.693 -1.0515  0.7678 -1.2134
11973TIP3   OH257333   3.803   1.154   5.131  0.4480  0.3206  0.2406
11973TIP3    H157334   3.875   1.198   5.177  0.2353 -0.1928  1.0840
11973TIP3    H257335   3.764   1.096   5.197 -1.7914  1.7657  0.2825
11974TIP3   OH257336   4.996   0.968  13.381  0.2314 -0.0955  0.2920
11974TIP3    H157337   5.037   1.007  13.303 -0.1668 -1.8072 -0.8385
11974TIP3    H257338   5.043   1.007  13.455  0.1644  2.1107 -0.7417
11975TIP3   OH257339   2.133   2.069  15.864  0.1302  0.2853  0.3920
11975TIP3    H157340   2.166   1.984  15.836 -1.7670  0.0823 -1.5088
11975TIP3    H257341   2.115   2.059  15.957 -2.8051 -2.4407 -0.3078
11976TIP3   OH257342   2.683   4.278  16.412  0.2881  0.0489  0.1567
11976TIP3    H157343   2.745   4.350  16.412  1.4272 -0.8598  2.1838
11976TIP3    H257344   2.693   4.238  16.325  3.4741 -0.7919  0.8093
11977TIP3   OH257345   4.890   2.302  11.791 -0.4924  0.1161  0.1528
11977TIP3    H157346   4.915   2.283  11.881  0.7976 -1.1875 -0.4536
11977TIP3    H257347   4.965   2.350  11.755 -0.1468 -1.0790 -0.7728
11978TIP3   OH257348   0.204   3.761   4.890  0.1687 -0.0507  0.1641
11978TIP3    H157349   0.135   3.825   4.903  1.3247  1.2798  0.0234
11978TIP3    H257350   0.280   3.799   4.934  0.6057 -1.8722  1.0578
11979TIP3   OH257351   5.658   0.005   3.821  0.5032  0.0528  0.1537
11979TIP3    H157352   5.607  -0.043   3.756  0.9957 -1.5176  0.8666
11979TIP3    H257353   5.742  -0.040   3.824  0.6760  0.4200  1.4798
11980TIP3   OH257354   0.222   2.956   5.695  0.4937 -0.1120  0.2068
11980TIP3    H157355   0.311   2.931   5.671  0.8433  1.1352  0.1259
11980TIP3    H257356   0.198   2.897   5.767  0.8109 -1.4509 -0.7394
11981TIP3   OH257357   4.964   5.275   1.787  0.0741 -0.1949  0.2841
11981TIP3    H157358   4.943   5.206   1.850 -4.2140  1.4431  1.0423
11981TIP3    H257359   4.913   5.253   1.709  3.1682 -0.7378 -1.7711
11982TIP3   OH257360   0.163   1.979   1.674  0.0782  0.5966 -0.5807
11982TIP3    H157361   0.076   2.006   1.704 -0.3548  0.8141 -1.9456
11982TIP3    H257362   0.212   2.061   1.663  0.6496  0.4483  0.6664
11983TIP3   OH257363   4.204   2.424   5.812  0.2732 -0.0476 -0.4715
11983TIP3    H157364   4.188   2.333   5.837  0.2694 -0.3231 -1.4225
11983TIP3    H257365   4.171   2.430   5.722  2.0409  0.3659 -1.1350
11984TIP3   OH257366   0.518   0.810   0.709  0.0192 -0.4428  0.0524
11984TIP3    H157367   0.590   0.823   0.770  0.5833  1.2762 -0.9018
11984TIP3    H257368   0.478   0.896   0.701 -0.7477 -0.8872 -1.1220
11985TIP3   OH257369   0.171   4.392  16.333 -0.4629  0.2364  0.3948
11985TIP3    H157370   0.130   4.428  16.412  0.1554 -1.3440  1.5057
11985TIP3    H257371   0.265   4.399  16.350 -0.2772  1.3868 -0.9557
11986TIP3   OH257372   1.400   5.074   4.309  0.3232 -0.0636 -0.2184
11986TIP3    H157373   1.490   5.071   4.340  0.4260 -2.9821 -0.6030
11986TIP3    H257374   1.377   4.984   4.289 -2.5590  0.6327 -0.5940
11987TIP3   OH257375   1.394   5.521  15.558 -0.1257 -0.0689  0.0354
11987TIP3    H157376   1.394   5.598  15.502 -1.5195  1.6148  2.1900
11987TIP3    H257377   1.331   5.462  15.518 -0.3535  0.6611 -0.7141
11988TIP3   OH257378   0.006   0.611   6.088 -0.6674  0.1967 -0.3918
11988TIP3    H157379  -0.082   0.597   6.052 -0.8746  0.0814  0.1415
11988TIP3    H257380  -0.010   0.637   6.179 -0.1634  0.7240 -0.4540
11989TIP3   OH257381   0.301   1.824   0.158 -0.6484 -0.1022  0.6015
11989TIP3    H157382   0.259   1.748   0.198 -0.5714 -0.2683  0.3693
11989TIP3    H257383   0.228   1.876   0.124 -0.6864 -0.2283  0.4871
11990TIP3   OH257384   2.894   3.112  14.780  0.1153 -0.0178 -0.4595
11990TIP3    H157385   2.882   3.185  14.840  1.0475 -0.4828  0.3200
11990TIP3    H257386   2.832   3.129  14.709 -1.3238  0.3130  0.8316
11991TIP3   OH257387   3.131   3.324   6.272  0.3474  0.5319 -0.5481
11991TIP3    H157388   3.094   3.413   6.278 -0.8059  0.0447 -0.1070
11991TIP3    H257389   3.180   3.324   6.190  0.6279  1.6703 -0.3972
11992TIP3   OH257390   0.340   5.044  11.333  0.2574  0.3787  0.7476
11992TIP3    H157391   0.397   4.981  11.288 -2.6192 -0.3877 -2.2389
11992TIP3    H257392   0.356   5.127  11.289  0.5899  0.6839  1.4220
11993TIP3   OH257393   5.381   0.202   2.164 -0.2686 -0.0855 -0.3875
11993TIP3    H157394   5.288   0.218   2.154 -0.3615  0.2929  0.9326
11993TIP3    H257395   5.423   0.275   2.119 -0.6305  0.5056  0.2224
11994TIP3   OH257396   3.358   4.746   3.349 -0.0603 -0.4150  0.3746
11994TIP3    H157397   3.352   4.792   3.432 -0.2220 -1.0211  0.7049
11994TIP3    H257398   3.449   4.756   3.322 -0.0627 -0.0257  0.5084
11995TIP3   OH257399   3.067   6.196  14.805  0.2867 -0.2912 -0.3639
11995TIP3    H157400   3.027   6.192  14.719 -0.0010 -2.2117 -0.1766
11995TIP3    H257401   2.994   6.203  14.866  0.2587 -2.3515 -0.1085
11996TIP3   OH257402   0.991   5.212   4.957 -0.6255 -0.0301 -0.8120
11996TIP3    H157403   0.967   5.301   4.985  0.4461 -0.4364  1.6561
11996TIP3    H257404   1.086   5.211   4.960 -0.6087 -2.0925  2.4197
11997TIP3   OH257405   2.827   3.097  11.435 -0.2141 -0.0812  0.2133
11997TIP3    H157406   2.760   3.043  11.392  1.1400 -0.3910 -1.5960
11997TIP3    H257407   2.809   3.086  11.529 -1.4588 -1.7487 -0.1650
11998TIP3   OH257408   3.904   0.819   0.793 -0.4262 -0.3402 -0.4707
11998TIP3    H157409   3.966   0.825   0.865  0.9787 -0.5608 -1.6077
11998TIP3    H257410   3.890   0.725   0.780  0.3785 -0.3675 -1.3015
11999TIP3   OH257411   1.065   3.815   3.652 -0.2795  0.1116 -0.3556
11999TIP3    H157412   1.157   3.790   3.639 -0.1192  1.0005 -1.0281
11999TIP3    H257413   1.069   3.891   3.710 -0.7010 -0.7828  0.8735
12000TIP3   OH257414   2.540   1.673  13.815 -0.7982  0.2761  0.3824
12000TIP3    H157415   2.556   1.756  13.769 -1.4164 -0.1673 -0.6441
12000TIP3    H257416   2.452   1.682  13.852 -0.5976  0.3334  0.8594
12001TIP3   OH257417   4.465   2.858   0.343 -0.0369  0.2342 -0.1419
12001TIP3    H157418   4.525   2.932   0.351  0.7493 -0.2769 -1.1675
12001TIP3    H257419   4.518   2.781   0.367 -0.9106 -0.0044  1.1794
12002TIP3   OH257420   0.538   0.903   1.689 -0.1205 -0.1957  0.0781
12002TIP3    H157421   0.622   0.859   1.674  0.0210  0.1229 -0.0605
12002TIP3    H257422   0.496   0.903   1.603 -0.1890 -0.1956  0.1113
12003TIP3   OH257423   3.228   6.083   1.598 -0.0347 -0.3122  0.2023
12003TIP3    H157424   3.187   6.077   1.684 -2.1174 -0.0654 -0.7199
12003TIP3    H257425   3.215   5.996   1.559 -0.0900 -0.0954 -0.2753
12004TIP3   OH257426   5.819   6.506  13.716  0.0091 -0.4793  0.3147
12004TIP3    H157427   5.871   6.583  13.694  0.5579 -0.8365  0.3441
12004TIP3    H257428   5.769   6.486  13.637 -1.1758  0.7036  0.7135
12005TIP3   OH257429   0.983   1.227  12.332 -0.1069 -0.5151  0.1993
12005TIP3    H157430   0.981   1.207  12.239  1.5406 -0.6850  0.1732
12005TIP3    H257431   1.042   1.303  12.339 -0.6139 -0.1860  1.0491
12006TIP3   OH257432   5.838   5.046   4.664  0.3333 -0.1180 -0.5271
12006TIP3    H157433   5.902   4.977   4.678  0.0124 -0.2279  0.4930
12006TIP3    H257434   5.756   4.999   4.645  0.3243  0.0012 -0.7870
12007TIP3   OH257435   3.629   0.469  11.581 -0.8559  0.0338  0.1423
12007TIP3    H157436   3.601   0.560  11.585 -0.7843  0.0387  0.4814
12007TIP3    H257437   3.549   0.421  11.557 -0.8813  0.1873 -0.0890
12008TIP3   OH257438   2.016   4.191   3.950  0.2547  0.4344  0.2032
12008TIP3    H157439   2.035   4.129   4.021 -0.5183  1.6570  1.5084
12008TIP3    H257440   2.044   4.144   3.871  2.3752 -0.4674  1.3850
12009TIP3   OH257441   0.321   1.697   2.095  0.0697  0.0661  0.1068
12009TIP3    H157442   0.284   1.785   2.104 -2.2507 -0.9218  1.3274
12009TIP3    H257443   0.276   1.660   2.020  0.4047 -0.3513  0.1077
12010TIP3   OH257444   5.840   0.770   0.202  0.0445 -0.9109 -0.2580
12010TIP3    H157445   5.926   0.753   0.242  0.1175  1.0369  0.5360
12010TIP3    H257446   5.792   0.688   0.214  1.9987 -2.3279 -1.3961
12011TIP3   OH257447   5.074   4.455  13.716  0.6130 -0.5694 -0.1332
12011TIP3    H157448   4.984   4.472  13.689  0.5006 -1.2787 -0.2394
12011TIP3    H257449   5.127   4.508  13.656  0.2746 -0.3615 -0.2518
12012TIP3   OH257450   1.814   6.252  11.847 -0.7275 -0.0623 -0.1207
12012TIP3    H157451   1.855   6.229  11.765 -0.4337 -2.1824  0.5776
12012TIP3    H257452   1.735   6.198  11.851  0.3950 -1.7003  1.9278
12013TIP3   OH257453   1.074   1.939  16.971  0.6421 -0.2379  0.1613
12013TIP3    H157454   1.050   1.876  17.040  0.8674 -0.3717  0.1176
12013TIP3    H257455   1.156   1.977  17.002  0.3233  0.3021  0.3665
12014TIP3   OH257456   4.204   6.492  15.833  0.1677  0.3220 -0.1156
12014TIP3    H157457   4.124   6.545  15.835 -0.0340  0.0750 -0.9887
12014TIP3    H257458   4.251   6.516  15.913  0.0961  1.8331 -0.4873
12015TIP3   OH257459   3.720   4.129  16.229 -0.0013  0.1634 -0.4473
12015TIP3    H157460   3.813   4.122  16.249 -0.1231 -0.7376 -0.1586
12015TIP3    H257461   3.713   4.207  16.173  0.6415  1.4746  1.2167
12016TIP3   OH257462   0.109   0.212   5.348  0.0793 -0.4818 -0.0895
12016TIP3    H157463   0.062   0.138   5.387 -1.8257 -0.3415 -1.9203
12016TIP3    H257464   0.127   0.271   5.421 -0.6858 -1.5656  1.0125
12017TIP3   OH257465   1.863   0.709   5.607 -0.7428  0.4656 -0.2742
12017TIP3    H157466   1.911   0.743   5.683 -2.6668 -0.8427  1.6557
12017TIP3    H257467   1.931   0.691   5.542  1.0094  1.5305  1.1567
12018TIP3   OH257468   1.313   2.230  15.098 -0.9642 -0.0180 -0.6121
12018TIP3    H157469   1.339   2.255  15.010 -1.1488  0.8904 -0.4175
12018TIP3    H257470   1.327   2.309  15.151 -0.2919 -0.7072  0.2939
12019TIP3   OH257471   2.169   2.084  16.929  0.3167 -0.3602 -0.3105
12019TIP3    H157472   2.111   2.036  16.870 -0.2691  0.6898 -0.6357
12019TIP3    H257473   2.226   2.134  16.871  0.4737 -0.1643  0.0069
12020TIP3   OH257474   4.263   2.403   1.781  0.6571  0.4885  0.5283
12020TIP3    H157475   4.327   2.359   1.836  0.6520 -1.4237 -0.9074
12020TIP3    H257476   4.304   2.486   1.757  1.9693 -0.0579  0.8394
12021TIP3   OH257477   3.978   2.209   5.986 -0.3085  0.4748 -0.2783
12021TIP3    H157478   3.962   2.164   6.069  0.8653 -0.3393 -0.4749
12021TIP3    H257479   3.925   2.160   5.923 -0.2276  0.3203 -0.2273
12022TIP3   OH257480   4.515   3.257   1.728 -0.2415 -0.4606  0.0090
12022TIP3    H157481   4.498   3.347   1.757  0.7584 -0.4966  0.7760
12022TIP3    H257482   4.611   3.250   1.728 -0.1787 -0.6604 -2.8211
12023TIP3   OH257483   6.481   3.429   0.523 -0.1248 -0.7849 -0.0706
12023TIP3    H157484   6.413   3.495   0.509 -2.5437 -3.4945 -2.3947
12023TIP3    H257485   6.481   3.414   0.618 -1.1390  0.8750  0.2193
12024TIP3   OH257486   6.248   6.716   1.234 -0.5005  0.1408 -0.7489
12024TIP3    H157487   6.189   6.726   1.308  1.0165  0.5877  0.4664
12024TIP3    H257488   6.191   6.696   1.160 -2.2142  1.3349  0.1817
12025TIP3   OH257489   2.434   5.034   2.546 -0.1883 -0.3928  0.4951
12025TIP3    H157490   2.422   5.112   2.492 -2.3938 -0.8597  0.1970
12025TIP3    H257491   2.434   4.962   2.484 -1.6848 -0.8512  0.9724
12026TIP3   OH257492   3.810   0.625   4.663 -0.3490 -0.3053 -0.4653
12026TIP3    H157493   3.833   0.705   4.616 -1.0306  0.2423  0.1149
12026TIP3    H257494   3.884   0.609   4.722 -0.6392  0.4295  0.0986
12027TIP3   OH257495   4.704   5.843   3.071  0.2459  0.0319  0.1981
12027TIP3    H157496   4.711   5.863   3.164  0.9372 -1.3495  0.4640
12027TIP3    H257497   4.786   5.798   3.050 -0.0539  0.0098 -0.9997
12028TIP3   OH257498   2.372   1.959  12.012  0.0995 -0.5003 -0.0407
12028TIP3    H157499   2.352   1.867  11.998  0.2391 -0.5342 -0.0235
12028TIP3    H257500   2.408   1.988  11.929 -0.4575 -0.3189 -0.2229
12029TIP3   OH257501   0.358   3.185   4.519  0.2552  0.1102  0.5120
12029TIP3    H157502   0.357   3.165   4.613  2.3831 -2.4411  0.1233
12029TIP3    H257503   0.448   3.168   4.492 -0.6999 -1.1075 -2.3264
12030TIP3   OH257504   4.258   1.536   4.086 -0.7476  0.3701  0.4189
12030TIP3    H157505   4.177   1.566   4.127 -0.2807  0.2535  1.4469
12030TIP3    H257506   4.318   1.520   4.159 -0.3256 -1.1128 -0.2145
12031TIP3   OH257507   2.810   3.542   3.614  0.2701  0.1615 -0.1362
12031TIP3    H157508   2.867   3.586   3.551  0.8986 -1.2225 -0.5759
12031TIP3    H257509   2.791   3.609   3.680  1.5580  0.9605 -0.5370
12032TIP3   OH257510   5.287   6.122   2.427 -1.0992 -0.3020  0.1474
12032TIP3    H157511   5.229   6.061   2.382 -1.2054 -1.0152  1.2104
12032TIP3    H257512   5.375   6.099   2.396 -1.3220  0.6663 -1.3320
12033TIP3   OH257513   3.834   2.026  15.604 -0.1477 -0.3088  0.3359
12033TIP3    H157514   3.843   1.932  15.585  0.3190  0.2459 -2.6665
12033TIP3    H257515   3.920   2.063  15.585 -0.7122  0.9146  0.0583
12034TIP3   OH257516   1.692   5.361  11.463  0.3422  0.6643  0.1681
12034TIP3    H157517   1.625   5.294  11.471 -1.5804  1.9108 -3.2778
12034TIP3    H257518   1.735   5.342  11.379  2.3537  1.6248  0.9068
12035TIP3   OH257519   0.389   4.983  12.062 -0.5877 -0.2459 -0.2810
12035TIP3    H157520   0.387   4.948  12.151 -2.5409  0.6307  0.0768
12035TIP3    H257521   0.431   5.069  12.071  1.6504 -1.2423 -0.6949
12036TIP3   OH257522   3.677   0.909   5.261  0.1353 -0.2765  0.1780
12036TIP3    H157523   3.603   0.965   5.284 -1.0643 -1.6853 -0.1097
12036TIP3    H257524   3.656   0.824   5.300  0.4473 -1.3629 -1.8752
12037TIP3   OH257525   6.650   5.530   0.740  0.1762  0.0551  0.0697
12037TIP3    H157526   6.624   5.595   0.805 -0.8388 -1.4512  1.2305
12037TIP3    H257527   6.603   5.450   0.764  0.8724 -0.9643 -1.6841
12038TIP3   OH257528   3.120   1.839  15.049 -0.3744  0.4688 -0.1784
12038TIP3    H157529   3.126   1.819  14.955  0.9289  1.3885 -0.3128
12038TIP3    H257530   3.145   1.757  15.092 -0.3773  0.2147 -0.6491
12039TIP3   OH257531   2.183   2.197   0.076  0.4697  0.7142  0.5704
12039TIP3    H157532   2.258   2.251   0.048  1.2271 -1.5803 -2.3253
12039TIP3    H257533   2.106   2.247   0.047  1.1561  0.3042 -2.2461
12040TIP3   OH257534   6.710   4.473  16.495 -0.3129 -0.2295 -0.4450
12040TIP3    H157535   6.677   4.469  16.585  0.4473  0.1534 -0.1428
12040TIP3    H257536   6.761   4.554  16.492  1.3755 -1.2582 -0.6227
12041TIP3   OH257537   6.200   1.573   1.829  0.2494  0.1828  0.1736
12041TIP3    H157538   6.132   1.636   1.850 -0.9766 -0.4091 -1.7936
12041TIP3    H257539   6.274   1.597   1.886 -1.0102  1.8432  1.1825
12042TIP3   OH257540   0.172   5.578   2.715 -0.3654 -0.1077 -0.5711
12042TIP3    H157541   0.191   5.642   2.646  1.1854 -1.3507 -1.3370
12042TIP3    H257542   0.166   5.494   2.670  0.2028 -0.8847  0.7466
12043TIP3   OH257543   4.587   0.519   1.968  0.6167  0.4157  0.1872
12043TIP3    H157544   4.509   0.530   1.915  2.5613  1.8982 -2.6417
12043TIP3    H257545   4.572   0.573   2.046 -0.6676  1.6467 -0.8843
12044TIP3   OH257546   4.998   0.239   2.574 -0.0828 -0.2040 -0.3804
12044TIP3    H157547   4.954   0.279   2.499 -2.0328 -0.4888  0.5571
12044TIP3    H257548   4.972   0.292   2.649 -0.1990 -1.3702  0.4317
12045TIP3   OH257549   5.854   1.961  17.158  0.7041  0.6333 -0.0147
12045TIP3    H157550   5.817   1.903  17.091 -2.6213  1.5704  0.7792
12045TIP3    H257551   5.797   1.947  17.234  3.1242  1.0518  1.9755
12046TIP3   OH257552   1.518   4.607   1.215 -0.2084  0.1949  0.1920
12046TIP3    H157553   1.537   4.556   1.136 -0.2683  1.3887 -0.6191
12046TIP3    H257554   1.437   4.653   1.195  0.1515  1.0550  0.6788
12047TIP3   OH257555   2.907   5.410   0.659  0.3815 -0.3823 -0.4312
12047TIP3    H157556   2.845   5.457   0.603 -0.0141  0.4460  0.6494
12047TIP3    H257557   2.969   5.369   0.599 -0.6312 -0.3939 -1.4968
12048TIP3   OH257558   2.301   1.774  13.034  0.2333  0.1925 -0.0945
12048TIP3    H157559   2.295   1.811  12.946 -0.8084  1.1569  0.3605
12048TIP3    H257560   2.318   1.681  13.020  0.8395  0.4662 -1.2959
12049TIP3   OH257561   3.456   3.322   3.340  1.0510  0.5416  0.2453
12049TIP3    H157562   3.480   3.374   3.417  0.1610  0.3278  0.6879
12049TIP3    H257563   3.416   3.385   3.280  0.7788  0.5289  0.4104
12050TIP3   OH257564   0.087   0.090   0.792 -0.4778 -0.2738  0.1307
12050TIP3    H157565   0.117   0.109   0.881 -2.6293 -1.6685  1.2479
12050TIP3    H257566   0.149   0.023   0.760  1.9910  2.1695 -0.6076
12051TIP3   OH257567   2.194   0.819   1.416 -0.1935 -0.4483  0.0320
12051TIP3    H157568   2.175   0.728   1.437 -0.8043 -0.3240  0.0369
12051TIP3    H257569   2.197   0.822   1.321  0.7368 -0.6463  0.0428
12052TIP3   OH257570   6.565   6.525   3.042 -0.0707  0.3095  0.4394
12052TIP3    H157571   6.642   6.551   2.990  0.4657 -0.5810  0.7465
12052TIP3    H257572   6.601   6.500   3.127 -0.5177 -1.3110  0.1972
12053TIP3   OH257573   5.573   6.616   3.625 -0.1138 -0.1058 -0.8988
12053TIP3    H157574   5.563   6.603   3.530  3.0550  0.4405 -1.4428
12053TIP3    H257575   5.640   6.552   3.650  0.2769  0.8561  0.6337
12054TIP3   OH257576   2.634   2.728   2.251 -0.1318  0.1495  0.2444
12054TIP3    H157577   2.713   2.779   2.232 -0.7338  1.2933  0.7077
12054TIP3    H257578   2.564   2.793   2.253 -0.6731 -0.4350  2.6487
12055TIP3   OH257579   3.369   1.572   1.334 -0.3690  0.0415  0.6435
12055TIP3    H157580   3.439   1.531   1.282 -0.5884 -0.0468  0.4172
12055TIP3    H257581   3.330   1.499   1.382 -2.2092 -0.4302 -1.4008
12056TIP3   OH257582   5.302   3.061  12.610  0.0456  0.7730  0.2425
12056TIP3    H157583   5.360   3.023  12.676  1.4454 -0.3411 -1.5451
12056TIP3    H257584   5.234   2.994  12.597  0.5504  0.3875 -0.4255
12057TIP3   OH257585   6.559   3.074  16.822 -0.2682 -0.0218  0.1985
12057TIP3    H157586   6.486   3.109  16.771  0.3671  0.1677 -0.6083
12057TIP3    H257587   6.569   2.984  16.791  0.2077  0.1370 -0.1242
12058TIP3   OH257588   5.406   4.897  11.084 -0.1585 -0.3437 -0.1605
12058TIP3    H157589   5.411   4.821  11.026 -1.1991  1.7648 -3.2071
12058TIP3    H257590   5.484   4.949  11.064  1.3324 -1.1209  2.9403
12059TIP3   OH257591   4.965   5.669  16.782 -0.3480 -0.3272  0.3335
12059TIP3    H157592   4.965   5.614  16.703 -0.3858 -0.1891  0.2371
12059TIP3    H257593   5.047   5.647  16.826 -1.1277 -1.6732  1.1504
12060TIP3   OH257594   2.762   1.598   0.904  0.1153 -0.1403 -0.0767
12060TIP3    H157595   2.702   1.663   0.941 -0.8524 -0.2427 -1.3940
12060TIP3    H257596   2.758   1.524   0.965 -3.0316 -1.1350 -1.3189
12061TIP3   OH257597   1.278   3.600  16.527 -0.2087  0.3348 -0.8093
12061TIP3    H157598   1.278   3.692  16.502 -2.2630  0.5622 -0.1688
12061TIP3    H257599   1.337   3.558  16.465 -0.1051  1.8946 -1.8171
12062TIP3   OH257600   0.525   1.119   1.822 -0.2629 -0.4531 -0.0080
12062TIP3    H157601   0.576   1.176   1.765  0.0780 -1.6349 -0.9237
12062TIP3    H257602   0.540   1.031   1.787  0.4607 -1.3025  2.2534
12063TIP3   OH257603   0.110   3.332   3.099  0.2564  0.0260  0.2237
12063TIP3    H157604   0.131   3.344   3.007 -1.8657  1.7753 -0.1232
12063TIP3    H257605   0.181   3.375   3.146 -0.3324  2.1414 -0.7303
12064TIP3   OH257606   4.157   2.479  14.280 -0.0366  0.1300 -0.6172
12064TIP3    H157607   4.226   2.542  14.257 -0.1574  0.6750  0.4663
12064TIP3    H257608   4.184   2.445  14.365 -1.4001  0.7797  0.0948
12065TIP3   OH257609   6.662   2.806  14.949  0.1820  0.1625 -0.4400
12065TIP3    H157610   6.651   2.775  14.859  0.1430  0.2694 -0.4721
12065TIP3    H257611   6.672   2.901  14.941 -1.8094  0.4383 -0.1852
12066TIP3   OH257612   0.554   3.029   2.811 -0.1418  0.2573 -0.0840
12066TIP3    H157613   0.464   3.011   2.840 -0.5963  1.5020 -0.6029
12066TIP3    H257614   0.601   2.947   2.823 -1.2279 -0.2735  0.6801
12067TIP3   OH257615   5.131   0.843   2.696  0.1706  0.1290  0.2874
12067TIP3    H157616   5.175   0.803   2.771  1.6183  1.4673  0.1926
12067TIP3    H257617   5.041   0.857   2.727  0.9820  1.6330  2.2308
12068TIP3   OH257618   4.110   5.598  12.779 -0.3491 -0.3521 -0.3313
12068TIP3    H157619   4.136   5.591  12.687  1.4417  1.1815 -0.0097
12068TIP3    H257620   4.056   5.677  12.782 -0.0522 -0.1577 -0.0145
12069TIP3   OH257621   5.134   3.947  12.834 -0.3609  0.1965 -0.7940
12069TIP3    H157622   5.207   3.911  12.884 -0.0711  0.7197 -0.8436
12069TIP3    H257623   5.094   3.870  12.793  1.4680  0.0966 -2.5185
12070TIP3   OH257624   5.154   2.135  11.932 -0.1281 -0.0243  0.4245
12070TIP3    H157625   5.140   2.040  11.926  0.2918 -0.0431 -0.3837
12070TIP3    H257626   5.234   2.151  11.882 -1.7192  1.1077 -1.9489
12071TIP3   OH257627   3.103   2.441  13.773 -0.2258  0.0077 -0.8020
12071TIP3    H157628   3.072   2.509  13.714  1.0077  0.3458 -1.0992
12071TIP3    H257629   3.172   2.396  13.724  1.4847  0.8955  0.6760
12072TIP3   OH257630   4.000   4.907   5.602  0.2779 -0.0281 -0.4702
12072TIP3    H157631   3.963   4.987   5.638  0.9770  0.2625 -0.3933
12072TIP3    H257632   3.935   4.840   5.622  0.1274  0.3382  0.3034
12073TIP3   OH257633   3.368   3.476   0.256  0.2984 -0.3233 -0.1041
12073TIP3    H157634   3.316   3.519   0.189 -0.0330  1.0046  0.9601
12073TIP3    H257635   3.444   3.440   0.209 -0.4839 -0.4109 -1.3314
12074TIP3   OH257636   3.401   2.692   0.141  0.2009  0.4048  0.0966
12074TIP3    H157637   3.394   2.728   0.229 -0.6748  0.5331 -0.0166
12074TIP3    H257638   3.350   2.612   0.144 -2.0058  1.6961 -0.9548
12075TIP3   OH257639   4.636   1.864   0.307 -0.2820 -0.0337  0.2279
12075TIP3    H157640   4.607   1.951   0.281  1.7506  0.4102 -0.7367
12075TIP3    H257641   4.562   1.807   0.284 -1.9965  1.4750  1.6776
12076TIP3   OH257642   6.366   0.582  12.920  0.5903  0.0502  0.4995
12076TIP3    H157643   6.422   0.547  12.989  1.7578 -2.2954 -1.4639
12076TIP3    H257644   6.282   0.536  12.932  0.2921  0.7800  1.2378
12077TIP3   OH257645   6.655   5.297  14.051  0.6415  0.1123  0.2423
12077TIP3    H157646   6.721   5.322  14.116  0.6963 -0.4931  0.4260
12077TIP3    H257647   6.647   5.202  14.061  0.5885  0.0224 -0.5726
12078TIP3   OH257648   2.157   0.485   0.794 -0.0471  0.1893 -0.0766
12078TIP3    H157649   2.243   0.511   0.759 -0.0064  1.1703  0.7112
12078TIP3    H257650   2.175   0.466   0.886 -0.2870 -1.6698 -0.3824
12079TIP3   OH257651   4.836   2.436  13.763  0.2732  0.3820 -0.7674
12079TIP3    H157652   4.889   2.434  13.843 -1.2536 -1.2329  0.2857
12079TIP3    H257653   4.897   2.411  13.693  0.9636 -1.3834  0.3827
12080TIP3   OH257654   0.657   0.132   4.567  0.1630  0.5751 -0.1886
12080TIP3    H157655   0.729   0.111   4.509  0.8278  0.0625  0.7879
12080TIP3    H257656   0.617   0.211   4.530  0.8215  0.4909 -1.0880
12081TIP3   OH257657   5.209   3.728   1.318 -0.1652 -0.0347 -0.0314
12081TIP3    H157658   5.261   3.675   1.258  0.2424  1.3820 -0.9734
12081TIP3    H257659   5.165   3.664   1.375  1.0946 -1.3200 -0.4566
12082TIP3   OH257660   0.023   0.013  17.226  0.9990 -0.0839 -0.3937
12082TIP3    H157661   0.109   0.024  17.187  2.2093 -0.4426  2.0237
12082TIP3    H257662   0.020   0.075  17.298 -1.0827  0.4419 -0.8425
12083TIP3   OH257663   3.795   3.048   5.644 -0.5108  0.6173  0.3220
12083TIP3    H157664   3.886   3.019   5.647  0.0519  2.3366  0.6566
12083TIP3    H257665   3.749   2.987   5.702  0.4073 -0.2831  0.1335
12084TIP3   OH257666   6.054   1.848  17.292  0.1993 -0.4580  0.2778
12084TIP3    H157667   6.032   1.765  17.251 -1.6189 -0.9697  2.1502
12084TIP3    H257668   5.981   1.906  17.270  0.6242  0.1305  0.3935
12085TIP3   OH257669   2.840   0.090   5.632 -0.1289 -0.3312 -0.4013
12085TIP3    H157670   2.851   0.136   5.548 -1.1925 -0.5898 -0.6912
12085TIP3    H257671   2.778   0.020   5.613 -1.2370  0.2712  0.8452
12086TIP3   OH257672   2.601   1.579  11.727 -0.1210  0.3688 -0.0060
12086TIP3    H157673   2.638   1.664  11.703  1.1855 -0.0238  0.5397
12086TIP3    H257674   2.615   1.573  11.822 -0.1360 -0.4798 -0.0511
12087TIP3   OH257675   6.260   5.728  10.787 -0.1836  0.4847  0.1214
12087TIP3    H157676   6.316   5.674  10.732  0.5922 -0.0194  1.3809
12087TIP3    H257677   6.187   5.671  10.811  0.3420  0.1625  0.9811
12088TIP3   OH257678   2.719   0.526   6.105  0.7487 -0.1649  0.3297
12088TIP3    H157679   2.812   0.518   6.085  0.5581 -0.7769 -0.3349
12088TIP3    H257680   2.680   0.444   6.075  0.2398 -0.6099  2.0885
12089TIP3   OH257681   5.549   0.396  11.155  0.0687  0.2976 -0.2581
12089TIP3    H157682   5.625   0.405  11.098  1.2057  0.6827  1.2272
12089TIP3    H257683   5.565   0.315  11.204 -1.9895 -1.2457 -1.9880
12090TIP3   OH257684   3.193   1.572  13.385 -0.2828 -0.2289  0.0979
12090TIP3    H157685   3.120   1.527  13.428  0.3137 -0.6973  0.6658
12090TIP3    H257686   3.210   1.648  13.441 -0.0738 -0.3495  0.1995
12091TIP3   OH257687   2.515   1.307  14.776  0.1047  0.0654 -0.4528
12091TIP3    H157688   2.438   1.256  14.751  0.2864 -0.1579 -0.5666
12091TIP3    H257689   2.483   1.396  14.786 -0.7049 -0.3945  1.8892
12092TIP3   OH257690   2.786   4.418  15.577  0.1385 -0.1418 -0.0401
12092TIP3    H157691   2.805   4.439  15.486 -1.1573  0.4575 -0.1883
12092TIP3    H257692   2.711   4.359  15.574 -1.3871  1.6619  0.6750
12093TIP3   OH257693   6.604   4.955   0.186 -0.3373  0.6401 -0.2280
12093TIP3    H157694   6.674   4.900   0.221  0.8661  1.8725 -0.6072
12093TIP3    H257695   6.550   4.895   0.134  0.3823 -0.3561  0.1549
12094TIP3   OH257696   4.573   5.555   1.534  0.2382 -0.4192 -0.5523
12094TIP3    H157697   4.583   5.613   1.609  1.6724 -1.6226  0.2508
12094TIP3    H257698   4.582   5.612   1.458  0.8306  0.5232  0.2048
12095TIP3   OH257699   0.581   2.533   3.197  0.2098 -0.3901 -0.1606
12095TIP3    H157700   0.532   2.614   3.183  0.8978 -0.2779 -2.1638
12095TIP3    H257701   0.631   2.549   3.278  0.0155  1.0266 -0.2947
12096TIP3   OH257702   2.797   5.007   3.320  0.3727 -0.0353 -0.2704
12096TIP3    H157703   2.780   5.030   3.229 -3.5866  2.3881  0.8591
12096TIP3    H257704   2.841   5.084   3.357 -0.8377  0.3099  0.5105
12097TIP3   OH257705   0.036   2.374  16.346  0.0647  0.0296  0.5147
12097TIP3    H157706   0.000   2.335  16.426  0.9066 -1.8866  0.0324
12097TIP3    H257707   0.126   2.397  16.369  0.0131  0.3616  0.3839
12098TIP3   OH257708   0.417   3.074   0.102  0.1401 -0.5444  0.2597
12098TIP3    H157709   0.341   3.018   0.116 -0.3059 -0.0596 -0.2205
12098TIP3    H257710   0.383   3.163   0.105  0.8638 -0.2752  1.1182
12099TIP3   OH257711   1.001   0.510  13.853  0.0391 -0.6226  0.1462
12099TIP3    H157712   1.087   0.552  13.862 -0.9860  1.5572  0.5503
12099TIP3    H257713   1.009   0.429  13.902  1.9664 -0.6446 -0.1256
12100TIP3   OH257714   2.966   5.287  15.510 -0.2583 -0.1737 -0.2589
12100TIP3    H157715   3.038   5.244  15.557  0.9544  1.2180 -0.7557
12100TIP3    H257716   3.010   5.351  15.454 -1.9052  0.6436 -0.6565
12101TIP3   OH257717   1.992   1.188   0.197  0.2169 -0.1242  1.1320
12101TIP3    H157718   2.061   1.130   0.230  0.7165  0.3386  0.9217
12101TIP3    H257719   1.990   1.260   0.261  0.0733 -0.0353  1.0264
12102TIP3   OH257720   2.677   5.554   4.921  0.0198  0.1961 -0.1682
12102TIP3    H157721   2.696   5.597   5.004  0.6149 -0.9273  0.3067
12102TIP3    H257722   2.601   5.600   4.886  1.6631  2.7806 -0.5698
12103TIP3   OH257723   1.781   5.376  16.318 -0.7607 -0.9249 -0.2409
12103TIP3    H157724   1.870   5.359  16.349 -0.9490  1.6307  2.0323
12103TIP3    H257725   1.729   5.306  16.357 -0.0779 -1.1716  0.2659
12104TIP3   OH257726   3.419   1.615  17.278  0.2763  0.0855 -0.0118
12104TIP3    H157727   3.428   1.567  17.360  0.7579  1.7060  0.9349
12104TIP3    H257728   3.331   1.594  17.246 -0.0512 -0.2845  1.1224
12105TIP3   OH257729   2.728   2.139   1.537 -0.1730 -0.3655 -0.2900
12105TIP3    H157730   2.784   2.154   1.461 -0.1385  0.1516 -0.1663
12105TIP3    H257731   2.643   2.114   1.501  0.3132 -1.8052 -0.4703
12106TIP3   OH257732   1.679   5.508  15.627 -0.0126  0.6527  0.2629
12106TIP3    H157733   1.717   5.453  15.559  0.3600  0.9911  0.1937
12106TIP3    H257734   1.592   5.530  15.594  0.4888  1.5400 -0.5293
12107TIP3   OH257735   0.176   0.102  15.881  0.8966  0.6572  0.2385
12107TIP3    H157736   0.254   0.140  15.923  0.9558 -0.3140  1.0218
12107TIP3    H257737   0.193   0.113  15.787  1.0850  2.2139  0.4277
12108TIP3   OH257738   1.012   0.759  15.251  0.1917 -0.5012 -0.7032
12108TIP3    H157739   1.100   0.781  15.223  0.2795  0.2204  0.1165
12108TIP3    H257740   0.958   0.832  15.221  0.0470 -0.4466 -0.3182
12109TIP3   OH257741   1.355   6.490   0.418  0.0444  0.1229  0.0947
12109TIP3    H157742   1.429   6.459   0.365  1.1593  0.4996  1.3414
12109TIP3    H257743   1.358   6.434   0.496 -1.3863 -0.2489 -0.1036
12110TIP3   OH257744   0.152   1.505   2.423  0.0345  0.2935  0.2026
12110TIP3    H157745   0.174   1.468   2.338  0.5711 -2.0857  1.2955
12110TIP3    H257746   0.223   1.568   2.441 -1.0399  2.2048 -1.8101
12111TIP3   OH257747   6.464   3.920   0.759 -0.1432 -0.2748 -0.0630
12111TIP3    H157748   6.375   3.884   0.755 -0.7954  1.3350 -2.0048
12111TIP3    H257749   6.521   3.844   0.748 -1.3721 -1.0337 -1.6420
12112TIP3   OH257750   0.766   2.099  16.271 -0.8003  0.0313 -0.1868
12112TIP3    H157751   0.717   2.074  16.350 -0.8447 -1.3511 -0.6108
12112TIP3    H257752   0.725   2.180  16.242 -1.9357 -0.3545  0.2592
12113TIP3   OH257753   4.729   1.356  12.570  0.7660  0.2436 -0.2583
12113TIP3    H157754   4.725   1.264  12.546 -0.0017  0.2729 -0.2804
12113TIP3    H257755   4.709   1.403  12.488  1.2078  0.4304 -0.2614
12114TIP3   OH257756   0.094   0.715   1.942  0.4715  0.3267 -0.4686
12114TIP3    H157757   0.126   0.803   1.922  0.2167  0.4696 -0.2559
12114TIP3    H257758   0.171   0.666   1.968  0.4250  0.8398  0.6611
12115TIP3   OH257759   2.591   4.159  15.614 -0.0205  0.1710 -0.0865
12115TIP3    H157760   2.616   4.212  15.539  1.2081  0.2859  0.3757
12115TIP3    H257761   2.659   4.092  15.620 -1.5870 -1.5742 -0.7376
12116TIP3   OH257762   5.089   0.841  16.787  0.2697  0.1115  0.2473
12116TIP3    H157763   5.094   0.816  16.880 -1.1619  0.6383  0.4906
12116TIP3    H257764   5.116   0.932  16.786  1.3560 -0.2079 -0.0218
12117TIP3   OH257765   5.760   3.157   5.563 -0.2349  0.4428  0.1557
12117TIP3    H157766   5.792   3.247   5.564  1.6866 -0.1850  0.7113
12117TIP3    H257767   5.693   3.156   5.495  0.9878  1.8892 -1.1673
12118TIP3   OH257768   2.156   1.637   5.582  0.4605  0.3264 -0.1599
12118TIP3    H157769   2.248   1.640   5.608  0.5148 -0.0258 -0.3132
12118TIP3    H257770   2.111   1.688   5.650  0.4812 -1.3535  1.1831
12119TIP3   OH257771   4.027   3.774  11.303 -0.1004 -0.0043 -0.1774
12119TIP3    H157772   4.058   3.814  11.222 -1.8522  0.4358 -0.6849
12119TIP3    H257773   4.102   3.777  11.362  0.8548  0.7855 -1.3920
12120TIP3   OH257774   6.180   5.107  11.935  0.2126  0.3902 -0.4317
12120TIP3    H157775   6.168   5.025  11.888 -2.0196  0.8385 -0.7399
12120TIP3    H257776   6.120   5.169  11.892  0.2188  1.5835  1.1714
12121TIP3   OH257777   1.757   1.958  11.841  0.1615 -0.1705 -0.2661
12121TIP3    H157778   1.767   1.900  11.916 -0.2486 -0.2667 -0.2820
12121TIP3    H257779   1.761   1.900  11.765 -1.0377 -0.2899 -0.2518
12122TIP3   OH257780   2.859   5.875  17.211  0.0049  0.2791  0.0535
12122TIP3    H157781   2.834   5.955  17.258 -0.8410  0.4794 -0.7078
12122TIP3    H257782   2.775   5.834  17.188  0.4251 -0.4044 -0.2919
12123TIP3   OH257783   5.933   1.233   4.190 -0.0149 -0.0818  0.5041
12123TIP3    H157784   5.987   1.312   4.186 -0.7512  0.4290 -3.6988
12123TIP3    H257785   5.851   1.263   4.229  0.5365  0.6091  1.1865
12124TIP3   OH257786   5.437   5.573   2.970 -0.2187 -0.2701 -0.1799
12124TIP3    H157787   5.394   5.650   2.932 -0.4964  0.1545  0.9438
12124TIP3    H257788   5.524   5.604   2.994 -0.4509 -0.1905  0.5948
12125TIP3   OH257789   1.271   6.491   5.646  0.4082  0.0351 -0.4970
12125TIP3    H157790   1.187   6.506   5.690  0.2331 -1.0339 -0.4228
12125TIP3    H257791   1.322   6.569   5.664 -0.5511  0.6710 -0.4842
12126TIP3   OH257792   2.819   4.799   4.264  0.4888 -0.2897 -0.0066
12126TIP3    H157793   2.836   4.782   4.356  1.2655 -0.3714 -0.1598
12126TIP3    H257794   2.727   4.773   4.251  0.6123 -1.0267  0.5567
12127TIP3   OH257795   4.865   1.706   3.080 -0.8309 -0.0981  0.1649
12127TIP3    H157796   4.885   1.710   3.174  2.6024  0.5516 -0.4476
12127TIP3    H257797   4.871   1.613   3.058 -1.6506 -0.2528  0.5501
12128TIP3   OH257798   1.455   4.834   4.516  0.3713 -0.1673 -0.1410
12128TIP3    H157799   1.424   4.830   4.425 -0.1622 -0.2444  0.0401
12128TIP3    H257800   1.399   4.773   4.563  1.5067 -1.1222  0.0063
12129TIP3   OH257801   0.383   3.722  13.733 -0.6022 -0.3134 -0.3342
12129TIP3    H157802   0.326   3.779  13.785 -0.8665  1.9217 -2.8453
12129TIP3    H257803   0.348   3.634  13.748 -3.4309  0.7136 -0.1457
12130TIP3   OH257804   0.731   3.661   3.487 -0.1947  0.3914  0.4751
12130TIP3    H157805   0.796   3.594   3.508 -0.2376 -0.2801 -1.4233
12130TIP3    H257806   0.769   3.742   3.522  0.6793 -0.3218  1.2360
12131TIP3   OH257807   3.769   0.385  13.130  0.4468 -0.0334  0.3156
12131TIP3    H157808   3.814   0.305  13.105  0.5929  0.4510 -1.0154
12131TIP3    H257809   3.698   0.395  13.066 -0.4860  0.1423  1.3371
12132TIP3   OH257810   0.820   2.366  11.673 -0.2652 -0.4084 -0.2414
12132TIP3    H157811   0.827   2.377  11.768  2.1311 -3.5896  0.1258
12132TIP3    H257812   0.749   2.304  11.661 -0.9720  0.4493 -0.6476
12133TIP3   OH257813   0.378   1.846   2.889 -0.1048  0.4698  0.4803
12133TIP3    H157814   0.287   1.819   2.879  0.4309 -0.8194 -1.6181
12133TIP3    H257815   0.428   1.764   2.886  1.2115  1.2461  0.0490
12134TIP3   OH257816   2.372   4.658  11.648 -0.4694  0.6229 -0.0240
12134TIP3    H157817   2.338   4.571  11.629  0.0963  0.3436  0.2164
12134TIP3    H257818   2.417   4.684  11.568 -2.2795  1.5221 -0.8064
12135TIP3   OH257819   1.903   3.464   2.048  0.2900 -0.3706  0.3110
12135TIP3    H157820   1.985   3.433   2.010  1.4193  1.4692  1.0919
12135TIP3    H257821   1.841   3.461   1.976  0.5990 -3.2200  0.0777
12136TIP3   OH257822   1.440   2.627  11.682  0.1241  0.6581 -0.2482
12136TIP3    H157823   1.534   2.619  11.697  0.2184 -0.9790 -1.4312
12136TIP3    H257824   1.431   2.702  11.623  0.6833  0.7722 -0.1877
12137TIP3   OH257825   4.863   1.366  13.400 -0.4035 -0.5946 -0.1440
12137TIP3    H157826   4.817   1.450  13.409 -0.3098 -0.6466  0.8563
12137TIP3    H257827   4.955   1.389  13.408 -0.3332 -0.7120 -0.5673
12138TIP3   OH257828   1.234   1.672  13.798 -0.1387 -0.2902  0.5001
12138TIP3    H157829   1.186   1.681  13.715 -0.3148  0.0936  0.6367
12138TIP3    H257830   1.167   1.647  13.862 -0.1039 -0.0619  0.6290
12139TIP3   OH257831   5.928   4.139  15.889 -0.2777  0.0500  0.0917
12139TIP3    H157832   5.852   4.143  15.948  0.5877 -2.7850  1.5839
12139TIP3    H257833   6.003   4.149  15.948  0.5691 -0.1738 -0.9387
12140TIP3   OH257834   6.566   5.983  14.570 -0.0313  0.1469  0.0174
12140TIP3    H157835   6.538   5.929  14.496 -0.2432 -0.6369  0.6546
12140TIP3    H257836   6.652   5.949  14.594  0.1431  0.5565 -0.0228
12141TIP3   OH257837   1.043   1.604   2.845 -0.0308 -0.0700  0.1969
12141TIP3    H157838   1.103   1.572   2.912  1.7562 -0.5974 -1.5611
12141TIP3    H257839   1.039   1.699   2.860 -1.4830 -0.3974  2.3916
12142TIP3   OH257840   0.485   2.416  17.033 -0.6635  0.2168  0.5844
12142TIP3    H157841   0.532   2.397  17.115  0.8003  2.1187  0.2517
12142TIP3    H257842   0.403   2.454  17.061 -0.2036  0.7935  1.1851
12143TIP3   OH257843   3.547   3.349   1.696 -0.4215 -0.0767  0.0947
12143TIP3    H157844   3.518   3.259   1.682 -1.9487  0.5172 -0.8279
12143TIP3    H257845   3.511   3.398   1.622  1.9829  0.9889 -0.4628
12144TIP3   OH257846   2.669   1.871   0.501 -0.3826 -0.5038  0.2157
12144TIP3    H157847   2.724   1.907   0.571 -0.5668 -0.1708  0.1910
12144TIP3    H257848   2.579   1.886   0.531 -0.4816 -2.0128  0.7560
12145TIP3   OH257849   2.239   4.434   0.404 -0.0833  0.2040 -0.2452
12145TIP3    H157850   2.207   4.503   0.347 -1.2294  0.0017  0.1328
12145TIP3    H257851   2.177   4.362   0.392 -0.6147  0.3021  1.5374
12146TIP3   OH257852   6.507   1.988  13.270 -0.3341  0.5817 -0.2305
12146TIP3    H157853   6.558   1.968  13.349 -1.5087  0.8722  0.6268
12146TIP3    H257854   6.420   1.952  13.288 -1.3703  2.9005 -0.2821
12147TIP3   OH257855   6.128   1.707   1.466 -0.1126 -0.3056  0.1842
12147TIP3    H157856   6.156   1.697   1.375 -0.3343 -1.1347  0.1952
12147TIP3    H257857   6.193   1.657   1.516  1.4400  2.1205  0.7547
12148TIP3   OH257858   6.626   4.232  16.962  0.0323 -0.6779 -0.2710
12148TIP3    H157859   6.699   4.192  16.915 -0.2004 -0.5119 -0.7873
12148TIP3    H257860   6.663   4.263  17.044  0.5856 -0.4180 -0.6136
12149TIP3   OH257861   2.083   5.470  16.036  0.0890  0.4585  0.2875
12149TIP3    H157862   2.129   5.403  15.985 -0.6646 -2.5252  3.2252
12149TIP3    H257863   2.026   5.514  15.972  1.3800 -0.9279 -1.9575
12150TIP3   OH257864   6.562   0.449   0.528 -0.2196  0.2128  0.0293
12150TIP3    H157865   6.568   0.539   0.561 -0.0564  0.0266  0.5040
12150TIP3    H257866   6.520   0.400   0.598  0.3721 -0.2388  0.0741
12151TIP3   OH257867   4.053   0.327  12.047 -0.6642  0.2844  0.1437
12151TIP3    H157868   4.119   0.322  11.979  0.1966  0.4579  0.9427
12151TIP3    H257869   4.035   0.421  12.055  0.0316  0.3660  0.8808
12152TIP3   OH257870   5.386   5.829  15.297  0.5070  0.5837  0.3652
12152TIP3    H157871   5.414   5.907  15.344  2.1806  0.4162 -0.2807
12152TIP3    H257872   5.446   5.823  15.223 -0.7010 -0.3537 -0.5751
12153TIP3   OH257873   2.890   6.497  16.597 -0.6882 -0.7337 -0.0396
12153TIP3    H157874   2.886   6.568  16.661  1.1565  0.5998 -1.2967
12153TIP3    H257875   2.832   6.525  16.526  0.7133 -0.0064 -0.9338
12154TIP3   OH257876   6.157   4.451   1.058  0.0728  0.4908 -0.0207
12154TIP3    H157877   6.153   4.371   1.110  1.4372  1.6685  2.0116
12154TIP3    H257878   6.066   4.465   1.030 -0.3662 -1.1940  0.4276
12155TIP3   OH257879   5.256   3.531  13.282 -0.5276 -0.1936  0.1375
12155TIP3    H157880   5.314   3.455  13.272  0.0639  0.2816 -0.1211
12155TIP3    H257881   5.205   3.533  13.201 -0.7780 -0.5094  0.2886
12156TIP3   OH257882   1.380   1.959   2.871 -0.9007  0.2688 -0.0092
12156TIP3    H157883   1.475   1.964   2.863 -0.8762 -0.2196 -0.0371
12156TIP3    H257884   1.363   1.873   2.909 -1.3287  0.3751  0.0485
12157TIP3   OH257885   0.179   0.917  14.069 -0.4015  0.4033 -0.7414
12157TIP3    H157886   0.223   0.890  14.150 -1.8562 -0.4090 -0.1792
12157TIP3    H257887   0.224   0.867  14.000 -1.3608 -1.6172 -0.0005
12158TIP3   OH257888   4.278   5.961   3.509  0.0150  0.3416  0.1151
12158TIP3    H157889   4.368   5.969   3.479  1.1187 -3.3438  1.8872
12158TIP3    H257890   4.272   6.022   3.583  0.8232  1.0163 -0.3513
12159TIP3   OH257891   4.906   0.483   4.823 -0.2523 -0.1788  0.4379
12159TIP3    H157892   4.859   0.447   4.898  0.6693  0.7014  1.4668
12159TIP3    H257893   4.838   0.528   4.772 -1.0054 -1.3706  0.3504
12160TIP3   OH257894   3.039   3.431   1.258  0.1633  0.5029  0.3018
12160TIP3    H157895   3.066   3.364   1.322  1.2893  1.9633  1.4159
12160TIP3    H257896   2.959   3.395   1.219  0.7766 -1.5305  0.7848
12161TIP3   OH257897   2.029   3.119   1.970 -0.1023  0.3665 -0.1001
12161TIP3    H157898   2.119   3.094   1.990  0.0509  0.4338 -0.6822
12161TIP3    H257899   2.034   3.211   1.947 -0.0153 -0.0632 -1.9243
12162TIP3   OH257900   4.784   0.296  10.429  0.0337  0.3167  0.3094
12162TIP3    H157901   4.699   0.340  10.433  0.2458  0.7757 -0.0776
12162TIP3    H257902   4.814   0.293  10.520  0.0990  1.1525  0.3239
12163TIP3   OH257903   3.544   6.383  11.964 -0.5359 -0.1677 -0.0593
12163TIP3    H157904   3.583   6.342  11.887 -0.7188  0.7269 -0.6492
12163TIP3    H257905   3.609   6.448  11.992 -0.8812  0.1683 -0.0341
12164TIP3   OH257906   5.715   1.907  16.041  0.1792 -0.3707  0.2684
12164TIP3    H157907   5.735   1.883  16.131  0.4267 -0.4420  0.1961
12164TIP3    H257908   5.679   1.996  16.047  0.1649 -0.3883  0.4398
12165TIP3   OH257909   1.218   3.839   3.042 -0.0924 -0.1782 -0.2689
12165TIP3    H157910   1.215   3.759   2.990  0.4543 -0.2697 -0.1705
12165TIP3    H257911   1.224   3.809   3.133  0.4044 -0.0325 -0.2502
12166TIP3   OH257912   0.796   1.967  12.413  0.6232 -0.2214 -0.3487
12166TIP3    H157913   0.825   2.003  12.329  0.7017  1.4761  0.3577
12166TIP3    H257914   0.797   2.042  12.472 -0.6849 -1.1050  0.8572
12167TIP3   OH257915   6.234   3.255   0.519 -0.0909 -0.0070  0.0107
12167TIP3    H157916   6.243   3.350   0.529 -0.6560  0.0840 -0.3023
12167TIP3    H257917   6.302   3.218   0.575 -0.9841  0.5366  1.5057
12168TIP3   OH257918   0.688   5.192  16.073  0.0557  0.3112  0.0688
12168TIP3    H157919   0.668   5.100  16.092  0.5095  0.3873  0.9519
12168TIP3    H257920   0.613   5.222  16.021 -0.0694 -0.5677 -0.2758
12169TIP3   OH257921   5.161   4.185  17.220 -0.7350  0.4212  0.1237
12169TIP3    H157922   5.086   4.234  17.254 -0.0894  0.4213  1.6281
12169TIP3    H257923   5.176   4.116  17.284  1.3309  1.2160  0.5897
12170TIP3   OH257924   0.312   3.004  12.598  0.3537 -0.0164 -0.0462
12170TIP3    H157925   0.370   3.044  12.664 -1.4770  1.2638  0.8929
12170TIP3    H257926   0.273   3.079  12.552 -1.6527 -0.7281  0.3824
12171TIP3   OH257927   1.456   4.316   3.324 -0.3356  0.4992 -0.0554
12171TIP3    H157928   1.458   4.401   3.280 -0.4798  0.3735 -0.3028
12171TIP3    H257929   1.541   4.277   3.306 -0.5409  0.2738 -0.5694
12172TIP3   OH257930   4.484   0.977   0.995  0.0261  0.5165 -0.6235
12172TIP3    H157931   4.459   0.949   0.907 -0.8156  0.3587 -0.3480
12172TIP3    H257932   4.576   1.000   0.988  0.0792  0.0859 -1.4445
12173TIP3   OH257933   1.707   6.273   0.747 -0.0438 -0.4963  0.3025
12173TIP3    H157934   1.671   6.191   0.712 -0.2821 -0.2426 -0.0434
12173TIP3    H257935   1.774   6.299   0.685  0.3575 -0.6681  0.6548
12174TIP3   OH257936   5.807   5.748   4.397 -0.1087  0.2875 -0.3236
12174TIP3    H157937   5.724   5.720   4.435  0.7190 -0.3022  1.1116
12174TIP3    H257938   5.874   5.721   4.460  1.0178  2.6776 -0.3729
12175TIP3   OH257939   4.422   0.493  15.585  0.2006  0.6184  0.0092
12175TIP3    H157940   4.378   0.479  15.501  1.2202  1.4003 -0.6939
12175TIP3    H257941   4.363   0.549  15.634  0.1241  1.1691 -0.6871
12176TIP3   OH257942   5.074   3.020  15.791  0.4198  0.1599 -0.5664
12176TIP3    H157943   5.070   3.057  15.703  0.6656  0.0994 -0.6030
12176TIP3    H257944   5.133   3.077  15.839  1.3018 -0.5335 -0.7969
12177TIP3   OH257945   4.180   6.362   5.561 -0.2844  0.0509  0.5023
12177TIP3    H157946   4.215   6.350   5.649  3.1867  2.3725 -0.3569
12177TIP3    H257947   4.227   6.298   5.507 -0.0112  0.7968 -0.1588
12178TIP3   OH257948   1.834   5.141   4.660  0.3245  0.2576  0.4405
12178TIP3    H157949   1.760   5.082   4.674 -1.0734  0.6004 -3.9235
12178TIP3    H257950   1.903   5.084   4.625  1.2742  0.3339  2.1236
12179TIP3   OH257951   6.450   0.222  14.183 -0.1585  0.2064  0.4066
12179TIP3    H157952   6.371   0.254  14.139 -0.2728  1.0058  1.1571
12179TIP3    H257953   6.476   0.146  14.133  0.6754  2.0190 -2.1054
12180TIP3   OH257954   6.368   2.273  16.558  0.8528  0.4870  0.1694
12180TIP3    H157955   6.417   2.251  16.637  1.4738  1.4201  0.0705
12180TIP3    H257956   6.435   2.279  16.489  0.2797 -0.6226 -0.4996
12181TIP3   OH257957   3.962   5.038  15.064  0.4597  0.3249 -0.1641
12181TIP3    H157958   3.945   5.100  15.134  0.5520 -2.1768  2.2535
12181TIP3    H257959   4.047   5.063  15.029  1.9931 -0.2323  2.9165
12182TIP3   OH257960   5.533   5.025  16.128  0.5345 -0.3460  0.2322
12182TIP3    H157961   5.597   5.094  16.112 -1.1881  1.1478 -0.4255
12182TIP3    H257962   5.579   4.944  16.103  2.3458  0.5992  0.3380
12183TIP3   OH257963   2.747   2.162  12.186 -0.1527  0.0972 -0.3230
12183TIP3    H157964   2.781   2.074  12.172 -0.8049 -0.4764  1.3975
12183TIP3    H257965   2.797   2.217  12.126 -0.0874 -1.4939 -1.8210
12184TIP3   OH257966   0.592   3.823   4.056  0.0902 -0.5425  0.0085
12184TIP3    H157967   0.641   3.832   4.138 -0.8422 -1.9873  0.7635
12184TIP3    H257968   0.599   3.730   4.034 -1.3993 -0.5785 -0.4287
12185TIP3   OH257969   3.141   4.255  12.617  0.2182 -0.0819  0.3169
12185TIP3    H157970   3.170   4.337  12.657 -1.3683  0.9470 -0.4893
12185TIP3    H257971   3.172   4.261  12.526  0.3679 -0.5392  0.3345
12186TIP3   OH257972   0.837   4.404  16.105 -0.0108  0.1777  0.2973
12186TIP3    H157973   0.776   4.335  16.130 -0.0772  0.1046 -0.0574
12186TIP3    H257974   0.912   4.356  16.068 -0.5737  0.3301 -1.0843
12187TIP3   OH257975   2.576   1.532   4.194  0.3836 -0.2307 -0.0096
12187TIP3    H157976   2.583   1.627   4.197 -0.6894 -0.1113 -0.6507
12187TIP3    H257977   2.641   1.501   4.257  2.4649  0.8322 -1.5084
12188TIP3   OH257978   0.157   3.967  11.354  0.2454 -0.1335  0.7103
12188TIP3    H157979   0.126   3.967  11.444 -2.3528 -1.6216 -0.0826
12188TIP3    H257980   0.136   4.055  11.321 -1.8824 -0.6049  0.6695
12189TIP3   OH257981   5.259   1.025  15.217 -0.2079 -0.4117  0.1586
12189TIP3    H157982   5.353   1.036  15.229 -0.3238 -0.7910  1.5260
12189TIP3    H257983   5.246   0.930  15.215 -0.6520 -0.3706  0.8076
12190TIP3   OH257984   6.598   5.328   4.605  0.0372  0.5920 -0.3036
12190TIP3    H157985   6.538   5.400   4.626 -0.1402  0.4914 -0.4676
12190TIP3    H257986   6.624   5.344   4.515 -0.1110  0.3707 -0.3843
12191TIP3   OH257987   6.000   6.036   1.226  0.4129 -0.1248  0.5260
12191TIP3    H157988   5.919   5.998   1.191 -0.7542  1.6122  1.1815
12191TIP3    H257989   5.988   6.034   1.321  0.5643  1.2843  0.5908
12192TIP3   OH257990   2.161   5.299   5.351 -0.2070 -0.1124 -0.1838
12192TIP3    H157991   2.209   5.217   5.357 -2.1845 -1.5043 -2.0080
12192TIP3    H257992   2.210   5.351   5.287 -0.6166 -1.1860 -1.4112
12193TIP3   OH257993   2.680   6.352  13.972 -0.3054  0.0713  0.1540
12193TIP3    H157994   2.706   6.367  13.881 -0.1304  1.5774  0.4319
12193TIP3    H257995   2.685   6.438  14.013 -0.7059 -0.5297  1.5162
12194TIP3   OH257996   2.017   3.985  16.005 -0.0180  0.3170 -0.2983
12194TIP3    H157997   2.008   4.054  15.939 -0.8671 -0.7897 -1.3997
12194TIP3    H257998   2.012   3.903  15.955  0.9879 -0.5534  0.9590
12195TIP3   OH257999   5.464   0.162  15.523  0.6358  0.4243  0.5655
12195TIP3    H158000   5.537   0.220  15.548  0.7056  1.0298 -0.9776
12195TIP3    H258001   5.387   0.201  15.565  0.8008  1.2286  0.1328
12196TIP3   OH258002   4.535   3.237   4.622 -0.0811  0.0763  0.1222
12196TIP3    H158003   4.580   3.310   4.578  0.9907 -1.2363 -1.0626
12196TIP3    H258004   4.468   3.279   4.676  1.6094  2.0478  0.8236
12197TIP3   OH258005   2.313   2.160  15.058  0.2650  0.6975  0.3366
12197TIP3    H158006   2.389   2.192  15.009  0.4781  1.5413  1.1749
12197TIP3    H258007   2.336   2.176  15.150 -1.1512  1.4807  0.5751
12198TIP3   OH258008   1.729   2.939   4.909  0.0698  0.8767  0.3155
12198TIP3    H158009   1.790   2.937   4.834 -1.5326 -0.9681 -1.0254
12198TIP3    H258010   1.671   2.865   4.894 -3.3910  3.2949  0.7567
12199TIP3   OH258011   4.500   5.896   4.847  0.3245  0.4639  0.8447
12199TIP3    H158012   4.557   5.970   4.866  2.7668 -1.4133  1.1997
12199TIP3    H258013   4.494   5.847   4.929 -0.2148 -0.4273  0.2942
12200TIP3   OH258014   6.088   1.952  15.337 -0.4039  0.0797  0.0739
12200TIP3    H158015   6.010   1.983  15.292 -0.4933 -0.3575 -0.0697
12200TIP3    H258016   6.077   1.982  15.428  0.0710  1.5082 -0.3094
12201TIP3   OH258017   3.571   1.418  16.180 -0.3855 -0.1234  0.2198
12201TIP3    H158018   3.583   1.466  16.262  1.6855 -0.3276  0.1065
12201TIP3    H258019   3.484   1.379  16.187 -0.0635 -0.5506  2.5609
12202TIP3   OH258020   1.655   5.548  16.106  0.5417 -0.3054  0.2076
12202TIP3    H158021   1.705   5.513  16.180 -1.1927 -1.1913  1.0097
12202TIP3    H258022   1.708   5.527  16.029  1.1845 -1.6497  0.9757
12203TIP3   OH258023   0.853   4.022  11.583 -0.4320  0.2422 -0.5046
12203TIP3    H158024   0.782   4.066  11.629 -3.1651 -1.8946 -2.3173
12203TIP3    H258025   0.912   3.992  11.652 -1.6437  1.4935  1.1331
12204TIP3   OH258026   2.016   2.768  11.677  0.8197 -0.4229  0.0799
12204TIP3    H158027   2.068   2.812  11.610  1.9208  0.1817  1.2801
12204TIP3    H258028   2.048   2.805  11.760  0.9585 -2.6366  1.0763
12205TIP3   OH258029   5.387   3.070   4.612  0.0188 -0.3641 -0.5534
12205TIP3    H158030   5.351   3.047   4.697 -2.9509  1.5211 -1.1590
12205TIP3    H258031   5.482   3.069   4.625 -0.3097 -0.6797  2.5756
12206TIP3   OH258032   1.440   5.198   3.473 -0.3833 -0.5688  0.0262
12206TIP3    H158033   1.472   5.129   3.530 -1.4446 -0.0797  1.2561
12206TIP3    H258034   1.355   5.222   3.510 -0.2270  1.0986 -0.6425
12207TIP3   OH258035   2.293   5.245   4.061  0.1964  0.4811 -0.2567
12207TIP3    H158036   2.299   5.341   4.056  0.0256  0.4661 -0.9008
12207TIP3    H258037   2.359   5.214   3.998 -0.5333  0.2008 -0.9080
12208TIP3   OH258038   0.329   1.021  16.602  0.0411 -0.0966 -0.1848
12208TIP3    H158039   0.246   1.069  16.610 -0.3645 -0.9303  0.8039
12208TIP3    H258040   0.387   1.082  16.557 -1.0643  0.5539 -0.7865
12209TIP3   OH258041   2.712   6.363  14.651 -0.2694  0.1719  0.2355
12209TIP3    H158042   2.651   6.303  14.694 -0.4559  0.0121 -0.2456
12209TIP3    H258043   2.664   6.395  14.574 -0.3702  1.3438  0.7539
12210TIP3   OH258044   6.616   2.556   4.214 -0.0571  0.0295  0.2049
12210TIP3    H158045   6.702   2.527   4.183  1.5860  2.3602  2.1368
12210TIP3    H258046   6.594   2.495   4.285  1.8642  1.4002  2.1423
12211TIP3   OH258047   2.755   5.927  16.681  0.0767  0.3807 -0.1388
12211TIP3    H158048   2.746   5.834  16.660 -0.4963  0.1568  1.0194
12211TIP3    H258049   2.849   5.939  16.696 -0.0765 -0.4687  1.6516
12212TIP3   OH258050   2.767   3.477  15.657 -0.1904 -0.2248 -0.0264
12212TIP3    H158051   2.713   3.555  15.646 -2.3391 -1.6855 -0.5592
12212TIP3    H258052   2.790   3.477  15.750 -1.3581  0.3411  0.2864
12213TIP3   OH258053   1.743   4.295  13.616 -0.1808  0.2013 -0.0736
12213TIP3    H158054   1.806   4.279  13.547  0.5606 -0.4485  0.7308
12213TIP3    H258055   1.666   4.331  13.571  0.2230 -0.3587 -1.2401
12214TIP3   OH258056   4.394   4.054   4.909  0.5644 -0.1998 -0.2218
12214TIP3    H158057   4.355   4.115   4.846  1.5017  1.3870  0.6741
12214TIP3    H258058   4.470   4.101   4.945  1.2101 -1.8256  0.6547
12215TIP3   OH258059   6.342   4.456   3.360  0.3320  0.3203  0.2852
12215TIP3    H158060   6.408   4.387   3.369  0.4722  0.4081 -0.0531
12215TIP3    H258061   6.344   4.479   3.267 -0.2502  0.2505  0.2548
12216TIP3   OH258062   2.333   4.135   6.885 -0.1749  0.0096 -0.4863
12216TIP3    H158063   2.393   4.141   6.811 -0.2029 -0.4395 -0.5482
12216TIP3    H258064   2.298   4.046   6.880  0.6447 -0.4105  0.6935
12217TIP3   OH258065   3.598   3.003  10.549  0.4023 -0.5595 -0.2369
12217TIP3    H158066   3.565   2.951  10.476  3.0339  0.3273 -2.2240
12217TIP3    H258067   3.663   2.947  10.591 -0.0235 -0.5085  0.5043
12218TIP3   OH258068   3.041   4.717   4.750 -0.3422 -0.4589 -0.5492
12218TIP3    H158069   3.080   4.693   4.834  1.7014 -2.4501 -1.9256
12218TIP3    H258070   2.985   4.642   4.728 -2.6980  1.0418 -0.0174
12219TIP3   OH258071   6.001   3.475   3.528 -0.7325  0.0843 -0.3520
12219TIP3    H158072   6.073   3.444   3.473 -0.4594  1.4319 -0.8086
12219TIP3    H258073   5.995   3.569   3.508 -3.2896 -0.1760 -1.0705
12220TIP3   OH258074   2.965   1.309   4.299  0.0501 -0.2133 -0.0818
12220TIP3    H158075   2.987   1.394   4.260 -0.7825 -0.2486 -0.6477
12220TIP3    H258076   3.020   1.304   4.377  0.9104  0.3707 -0.6259
12221TIP3   OH258077   0.762   5.714  11.711 -0.0454 -0.1199  0.3762
12221TIP3    H158078   0.750   5.796  11.759 -1.5037  0.5946 -1.0924
12221TIP3    H258079   0.827   5.734  11.644 -0.6892 -0.0074 -0.2365
12222TIP3   OH258080   0.765   4.960  12.842  0.1420  0.0517 -0.4489
12222TIP3    H158081   0.806   4.886  12.798 -0.4698 -0.5856  0.0395
12222TIP3    H258082   0.786   4.949  12.934 -1.1048 -0.2881 -0.1864
12223TIP3   OH258083   0.814   1.504  14.669 -0.2251  0.2191  0.2263
12223TIP3    H158084   0.808   1.463  14.583 -1.7603  0.0605  0.3834
12223TIP3    H258085   0.902   1.542  14.672  1.7634 -3.8226  0.4095
12224TIP3   OH258086   3.080   5.894  15.649 -0.0104 -0.3039 -0.3613
12224TIP3    H158087   3.020   5.874  15.721 -0.0205 -2.4655 -0.9037
12224TIP3    H258088   3.023   5.918  15.576 -0.1466 -0.8100 -0.4250
12225TIP3   OH258089   5.637   0.310   0.890 -0.0933 -0.0936 -0.3528
12225TIP3    H158090   5.714   0.281   0.940  0.3867  0.2211 -0.8977
12225TIP3    H258091   5.579   0.348   0.955  0.0807 -0.6057  0.1101
12226TIP3   OH258092   1.939   0.725  15.747  0.5315  0.4475  0.4968
12226TIP3    H158093   1.924   0.704  15.839 -0.0672  1.3282  0.6180
12226TIP3    H258094   2.001   0.798  15.749 -0.5900  1.4373  0.2869
12227TIP3   OH258095   3.542   0.314   6.082 -0.3212  0.5971  0.5562
12227TIP3    H158096   3.510   0.389   6.133 -0.6723 -0.7116  2.3739
12227TIP3    H258097   3.630   0.340   6.056  0.1617  1.0985  2.4798
12228TIP3   OH258098   0.635   6.080   5.522 -0.5004  0.0629  0.2589
12228TIP3    H158099   0.540   6.093   5.523 -0.2540  2.3987 -0.8329
12228TIP3    H258100   0.662   6.107   5.434  1.1940 -0.6472  0.5153
12229TIP3   OH258101   2.716   0.147  12.097 -0.3961 -0.5738 -0.1315
12229TIP3    H158102   2.705   0.235  12.060  0.6088 -0.5284 -0.3518
12229TIP3    H258103   2.718   0.161  12.191  0.2498 -0.2864 -0.1775
12230TIP3   OH258104   1.408   3.352   1.731  0.1217 -0.5502 -0.2762
12230TIP3    H158105   1.342   3.341   1.799  1.2400  0.8051  1.1175
12230TIP3    H258106   1.396   3.442   1.700  0.1767 -0.8750 -1.3025
12231TIP3   OH258107   0.386   0.608  14.970  0.3484  0.4529  0.3507
12231TIP3    H158108   0.394   0.557  14.890 -2.6496  0.2430  0.0881
12231TIP3    H258109   0.464   0.664  14.971  1.6799 -1.2490 -1.4120
12232TIP3   OH258110   1.600   1.234  13.507 -0.1157  0.2707 -0.0196
12232TIP3    H158111   1.519   1.220  13.458 -0.5717  1.7929  0.2503
12232TIP3    H258112   1.571   1.251  13.597  0.4402  1.3618 -0.0269
12233TIP3   OH258113   0.484   2.250  15.705 -0.0939  0.6229  0.3119
12233TIP3    H158114   0.571   2.270  15.670  0.1481 -0.5193  0.2245
12233TIP3    H258115   0.468   2.318  15.770  0.6170  1.1786 -0.0755
12234TIP3   OH258116   2.459   1.916  12.824  0.0525  0.1286  0.0313
12234TIP3    H158117   2.473   1.823  12.807 -0.1523  0.0658  0.1963
12234TIP3    H258118   2.544   1.957  12.807  0.6428 -0.3286  1.6976
12235TIP3   OH258119   2.873   4.091   0.527 -0.0276  0.0339  0.0341
12235TIP3    H158120   2.795   4.114   0.578 -0.1762 -0.1138 -0.1280
12235TIP3    H258121   2.933   4.052   0.591  0.4429  1.3397  0.4315
12236TIP3   OH258122   1.137   5.994   3.230 -0.7704 -0.1350  0.0213
12236TIP3    H158123   1.141   6.081   3.269  0.0110 -0.8274  1.5436
12236TIP3    H258124   1.045   5.983   3.205 -1.2835  0.3869  1.5860
12237TIP3   OH258125   2.614   2.554  10.992  0.0041 -0.1358 -0.1631
12237TIP3    H158126   2.695   2.562  11.042  0.6163 -1.9921 -0.7803
12237TIP3    H258127   2.574   2.473  11.024  0.0093 -0.9383 -2.0595
12238TIP3   OH258128   4.358   3.936  13.779  0.0835 -0.1476 -0.1051
12238TIP3    H158129   4.357   3.869  13.710  1.9328  1.2253 -1.5816
12238TIP3    H258130   4.429   3.995  13.754 -1.2763  2.2387  1.2576
12239TIP3   OH258131   5.768   2.161   2.683  0.2532  0.2067 -0.1369
12239TIP3    H158132   5.748   2.109   2.761  0.0014  0.3884 -0.0760
12239TIP3    H258133   5.858   2.191   2.695  0.6597 -0.8052 -0.5104
12240TIP3   OH258134   4.078   0.038  16.994  0.4729  0.8778 -0.0500
12240TIP3    H158135   4.060   0.104  17.060  0.4822  0.3904  0.4422
12240TIP3    H258136   4.152   0.074  16.944  0.5661  1.1731  0.3001
12241TIP3   OH258137   5.302   0.015  10.733 -0.3282  0.3813  0.4739
12241TIP3    H158138   5.384  -0.031  10.745 -1.7652 -2.1235  1.4705
12241TIP3    H258139   5.293   0.024  10.638  0.9321  0.4452  0.3473
12242TIP3   OH258140   1.128   5.477  11.280  0.6412 -0.1177  0.1973
12242TIP3    H158141   1.130   5.549  11.344  1.7481  1.1149 -1.1691
12242TIP3    H258142   1.214   5.436  11.286 -0.1004 -1.6314  1.2234
12243TIP3   OH258143   6.364   4.558   1.314 -0.0367  0.0027  0.3815
12243TIP3    H158144   6.389   4.590   1.401  0.8329  0.2488  0.0501
12243TIP3    H258145   6.297   4.619   1.284  0.1346  0.2979  0.6029
12244TIP3   OH258146   2.392   2.575   6.064  0.1634 -0.6337 -0.3778
12244TIP3    H158147   2.486   2.569   6.083  0.1677  0.7596  0.1508
12244TIP3    H258148   2.350   2.541   6.143  0.1852 -3.0560 -1.3284
12245TIP3   OH258149   2.661   0.059   1.700  0.5695  0.5260 -0.2473
12245TIP3    H158150   2.627   0.086   1.615  0.5714 -1.0480 -0.7861
12245TIP3    H258151   2.734   0.119   1.717 -0.9580  2.4448 -0.1556
12246TIP3   OH258152   4.037   2.189  14.734  0.2376  0.1820 -0.1980
12246TIP3    H158153   4.124   2.224  14.717  0.7140 -1.1220 -0.5093
12246TIP3    H258154   4.050   2.128  14.807 -0.2436 -0.7214 -0.8628
12247TIP3   OH258155   4.822   2.501  14.278 -0.6317  0.1742 -0.0044
12247TIP3    H158156   4.739   2.500  14.231 -0.1725 -1.4625 -0.8630
12247TIP3    H258157   4.879   2.556  14.225 -1.0278  0.9791  0.3818
12248TIP3   OH258158   6.532   5.815  14.367  0.5092 -0.0641 -0.5948
12248TIP3    H158159   6.596   5.764  14.317  1.1541 -0.9312  1.0540
12248TIP3    H258160   6.450   5.769  14.355  0.7696 -0.5807 -0.4349
12249TIP3   OH258161   5.470   2.311   6.104  0.2711 -0.8063 -0.1154
12249TIP3    H158162   5.458   2.333   6.196 -0.3648  1.5494 -0.6888
12249TIP3    H258163   5.383   2.323   6.065  0.2446 -2.9358 -0.8578
12250TIP3   OH258164   6.695   2.306   0.804 -0.0457  0.8209 -0.0202
12250TIP3    H158165   6.746   2.348   0.873 -1.1744  1.7498  0.2700
12250TIP3    H258166   6.662   2.378   0.751  0.6669  0.1263 -1.4612
12251TIP3   OH258167   3.332   5.024  14.322  0.3150  0.2917 -0.0297
12251TIP3    H158168   3.389   4.950  14.299  0.6628  0.5187  0.0920
12251TIP3    H258169   3.332   5.024  14.418 -0.8974 -0.4746 -0.0053
12252TIP3   OH258170   0.545   0.190  12.707 -0.3692  0.0105 -0.1469
12252TIP3    H158171   0.599   0.248  12.653  0.6456  1.0670  1.8870
12252TIP3    H258172   0.457   0.200  12.672 -0.1309  2.3731 -0.2346
12253TIP3   OH258173   6.251   4.961   3.603  0.5806  0.2207 -0.2280
12253TIP3    H158174   6.305   5.034   3.571  0.7524  0.9693  1.6444
12253TIP3    H258175   6.314   4.891   3.621  0.3996 -0.4944 -2.1682
12254TIP3   OH258176   5.102   2.251  17.181 -0.6386  0.2948 -0.9303
12254TIP3    H158177   5.159   2.304  17.126  0.3568  0.1673 -0.0592
12254TIP3    H258178   5.014   2.268  17.148 -0.1495  0.9208 -1.9544
12255TIP3   OH258179   0.794   0.705   4.863 -0.7269 -0.3409  0.0631
12255TIP3    H158180   0.826   0.750   4.784 -1.4393 -1.2204 -0.7637
12255TIP3    H258181   0.866   0.649   4.889  0.7248  2.1735  1.9339
12256TIP3   OH258182   2.329   4.854  12.323 -0.3803  0.5573 -0.7746
12256TIP3    H158183   2.410   4.811  12.294  0.4845  0.2274  1.8439
12256TIP3    H258184   2.260   4.790  12.308 -0.0366  0.4924 -2.1948
12257TIP3   OH258185   3.618   0.478   3.188 -0.3628 -0.4904  0.4011
12257TIP3    H158186   3.568   0.420   3.245 -0.4116  0.8144  1.7139
12257TIP3    H258187   3.552   0.523   3.135 -0.4181 -0.5069  0.4565
12258TIP3   OH258188   0.991   3.383   0.692 -0.0190 -0.3031 -0.3290
12258TIP3    H158189   0.902   3.392   0.727 -1.6472  2.0055 -4.3131
12258TIP3    H258190   1.044   3.443   0.746 -0.9979 -1.0645  1.5806
12259TIP3   OH258191   3.100   0.971   4.806 -0.4426  0.2807  0.1825
12259TIP3    H158192   3.187   0.989   4.843  0.4812 -0.5190 -1.5136
12259TIP3    H258193   3.084   0.879   4.827 -0.6045  0.2573 -0.0405
12260TIP3   OH258194   2.435   6.091  12.175 -0.7691  0.0354  0.5605
12260TIP3    H158195   2.375   6.093  12.101 -0.4871  3.1128  0.2963
12260TIP3    H258196   2.392   6.142  12.243  0.5467  0.3836  1.1768
12261TIP3   OH258197   5.626   3.968  15.137  0.2732  0.3602 -0.0061
12261TIP3    H158198   5.641   4.057  15.104 -1.0362 -0.0357 -1.8249
12261TIP3    H258199   5.711   3.940  15.169  1.1554  1.5701 -1.1820
12262TIP3   OH258200   1.859   1.616   5.390 -0.0203 -0.0528 -0.3236
12262TIP3    H158201   1.847   1.635   5.483 -0.0582  0.2850 -0.3964
12262TIP3    H258202   1.935   1.668   5.364  0.7495 -1.0806 -0.2026
12263TIP3   OH258203   0.348   0.327   5.245  0.2284 -0.4008 -0.1711
12263TIP3    H158204   0.255   0.306   5.242 -0.1330  0.6087  2.3060
12263TIP3    H258205   0.355   0.410   5.197  0.0921 -1.0324 -1.3417
12264TIP3   OH258206   2.262   2.606  12.650 -0.4983  0.3119  1.1395
12264TIP3    H158207   2.304   2.520  12.642 -1.2823 -0.1073  1.4557
12264TIP3    H258208   2.174   2.594  12.614 -0.4853  1.0846  0.8244
12265TIP3   OH258209   2.147   4.871  15.040 -0.0211  0.3691  0.4082
12265TIP3    H158210   2.216   4.855  15.104  0.5432  1.3523  0.0788
12265TIP3    H258211   2.171   4.955  15.000 -1.7365  1.0463  0.7141
12266TIP3   OH258212   2.431   4.262  12.084 -0.0312 -0.4942 -0.2824
12266TIP3    H158213   2.445   4.238  11.993  0.6178 -2.3633  0.2670
12266TIP3    H258214   2.447   4.182  12.133  0.7099  0.7263  1.5828
12267TIP3   OH258215   0.353   3.199  11.278 -0.2773 -0.0980  0.3527
12267TIP3    H158216   0.334   3.286  11.244 -0.3225 -0.6037 -0.9737
12267TIP3    H258217   0.267   3.160  11.294 -0.3364 -0.6905 -1.2086
12268TIP3   OH258218   5.069   3.518   3.886  0.3396 -0.1787  0.2739
12268TIP3    H158219   5.063   3.477   3.800 -0.4831  1.9414 -0.7517
12268TIP3    H258220   5.003   3.473   3.939  0.1304 -0.8137 -0.5101
12269TIP3   OH258221   2.972   2.680   0.606  0.3388  0.2023  0.1683
12269TIP3    H158222   3.004   2.678   0.696 -2.4099 -0.5755  1.2336
12269TIP3    H258223   3.050   2.673   0.552  2.0331  0.2024  2.4917
12270TIP3   OH258224   0.602   0.581   3.510  0.2324 -0.7975  0.3364
12270TIP3    H158225   0.594   0.549   3.421 -0.8976  0.5103 -0.0664
12270TIP3    H258226   0.536   0.532   3.559 -0.7424  0.0938 -0.0499
12271TIP3   OH258227   4.892   2.618  12.968 -0.5997  0.1980 -0.1797
12271TIP3    H158228   4.842   2.673  12.907 -0.2670  0.8798  0.1482
12271TIP3    H258229   4.928   2.680  13.031 -1.4668 -0.5544  1.1064
12272TIP3   OH258230   2.771   6.089   4.690 -0.3600 -0.2650  0.1363
12272TIP3    H158231   2.828   6.121   4.620 -0.3969  1.9605  1.0429
12272TIP3    H258232   2.719   6.166   4.716 -1.2990 -1.3644  1.6959
12273TIP3   OH258233   0.308   2.223  11.533 -0.5266 -0.3095  0.6206
12273TIP3    H158234   0.292   2.156  11.467 -1.6940  0.6653 -0.1231
12273TIP3    H258235   0.403   2.237  11.531 -0.6264  0.3295 -1.4937
12274TIP3   OH258236   6.330   6.621   0.626  0.1863  0.4807  0.3308
12274TIP3    H158237   6.296   6.681   0.693 -0.4048  0.3789  0.1305
12274TIP3    H258238   6.424   6.640   0.622 -0.0246  1.5649  0.0914
12275TIP3   OH258239   4.405   0.770   6.487  0.8596 -0.2250  0.3021
12275TIP3    H158240   4.402   0.843   6.425  1.7752  0.0059  0.5082
12275TIP3    H258241   4.336   0.711   6.458 -1.3486  1.6726  1.3267
12276TIP3   OH258242   2.863   4.667  14.745 -0.4413  0.0591  0.5364
12276TIP3    H158243   2.835   4.595  14.688  2.8182 -0.1286 -1.0109
12276TIP3    H258244   2.922   4.626  14.808 -0.6519  0.9863  1.3646
12277TIP3   OH258245   4.736   2.237   1.707 -0.0791 -0.4270  0.4717
12277TIP3    H158246   4.685   2.281   1.639  0.6535 -1.4025 -0.7593
12277TIP3    H258247   4.824   2.273   1.699 -0.3100  0.5546  1.9534
12278TIP3   OH258248   5.177   3.227  12.930 -0.1652 -0.9140  0.7442
12278TIP3    H158249   5.271   3.248  12.923  0.1717 -2.8437 -3.1076
12278TIP3    H258250   5.174   3.133  12.946 -1.1240 -1.9528 -3.9414
12279TIP3   OH258251   4.170   5.528   1.447  0.6406  0.0630 -0.0927
12279TIP3    H158252   4.164   5.595   1.379  2.3892 -0.1479 -0.5215
12279TIP3    H258253   4.222   5.569   1.516 -1.8143  0.5700  1.5602
12280TIP3   OH258254   4.228   4.238  11.937 -0.3203 -0.0525  0.1644
12280TIP3    H158255   4.246   4.166  11.877  1.2721  0.9090 -0.5633
12280TIP3    H258256   4.313   4.278  11.954 -1.2524  2.3029 -0.3073
12281TIP3   OH258257   2.118   2.425   2.771  0.2601  0.7968  0.5495
12281TIP3    H158258   2.112   2.351   2.832  0.5141  1.7905  1.8384
12281TIP3    H258259   2.209   2.423   2.741  0.2388  0.5264  0.4930
12282TIP3   OH258260   3.244   0.995   1.646 -0.1204 -0.4976 -0.4281
12282TIP3    H158261   3.208   1.050   1.715  0.6747  1.3887 -1.4358
12282TIP3    H258262   3.262   0.911   1.688 -2.2686 -0.3321  0.9417
12283TIP3   OH258263   3.236   3.444   4.857  0.0577 -0.1825 -0.0856
12283TIP3    H158264   3.249   3.533   4.889  1.5844  0.3609 -2.0676
12283TIP3    H258265   3.186   3.401   4.927  0.1395  1.9143  1.3549
12284TIP3   OH258266   2.840   6.589  15.808 -0.0942 -0.4566  0.2232
12284TIP3    H158267   2.920   6.537  15.796  0.1463 -0.3333  1.2046
12284TIP3    H258268   2.869   6.680  15.797 -0.6202 -0.4939 -2.0708
12285TIP3   OH258269   5.315   2.507  10.658  0.0299  0.5283 -0.1827
12285TIP3    H158270   5.290   2.544  10.743  0.9812 -0.0046  0.3565
12285TIP3    H258271   5.317   2.582  10.598  1.1070  1.2442  0.6894
12286TIP3   OH258272   6.505   4.780  15.956  0.2906 -0.5592 -0.6091
12286TIP3    H158273   6.423   4.828  15.952  0.4842 -0.3408 -2.7209
12286TIP3    H258274   6.572   4.845  15.935  0.7291 -1.3309 -1.6607
12287TIP3   OH258275   5.804   4.599   4.919 -0.1183 -0.2197 -0.5459
12287TIP3    H158276   5.739   4.544   4.963  0.3789  0.0450  0.5629
12287TIP3    H258277   5.861   4.537   4.873 -0.9186 -0.4733 -1.2344
12288TIP3   OH258278   6.425   6.347   1.610  0.0064 -0.2968 -0.1819
12288TIP3    H158279   6.343   6.372   1.652 -1.4065 -1.5588 -2.0367
12288TIP3    H258280   6.436   6.411   1.540  1.1153  0.3830  0.5688
12289TIP3   OH258281   0.285   6.725   2.748  0.2755 -0.5777  0.1328
12289TIP3    H158282   0.301   6.644   2.797  0.6979 -0.5371  0.0635
12289TIP3    H258283   0.247   6.784   2.813 -0.7382 -1.0674  0.0072
12290TIP3   OH258284   4.237   1.314   5.807 -0.3845 -0.7045 -0.4462
12290TIP3    H158285   4.178   1.263   5.753 -0.5965  0.1899 -1.0837
12290TIP3    H258286   4.179   1.366   5.863 -0.1720 -1.3535  0.3923
12291TIP3   OH258287   5.210   5.764  13.833 -0.0655 -0.0252 -0.5568
12291TIP3    H158288   5.211   5.846  13.785  1.5443  0.8795  0.9150
12291TIP3    H258289   5.302   5.742  13.845 -0.3901 -0.2820  1.9259
12292TIP3   OH258290   2.219   5.405  14.224 -0.1344  0.0351 -0.1718
12292TIP3    H158291   2.211   5.443  14.312 -0.6397 -0.1848 -0.1217
12292TIP3    H258292   2.162   5.460  14.169  0.2822  0.2547 -0.3939
12293TIP3   OH258293   2.259   4.153   5.415  0.1307 -0.1809 -0.1612
12293TIP3    H158294   2.178   4.161   5.365 -0.0287 -1.3363 -0.1095
12293TIP3    H258295   2.276   4.059   5.419  2.1899  0.0723 -1.3233
12294TIP3   OH258296   2.073   2.870   0.258 -0.4754  0.2358  0.2816
12294TIP3    H158297   2.101   2.779   0.249 -1.7228 -0.0877 -0.6026
12294TIP3    H258298   2.103   2.912   0.177  0.2221  0.6587  0.7500
12295TIP3   OH258299   5.739   4.305   1.166  0.0072  0.0881  0.0283
12295TIP3    H158300   5.807   4.282   1.230  0.0252  0.4512  0.1435
12295TIP3    H258301   5.657   4.291   1.212  0.0000 -0.3344 -0.1054
12296TIP3   OH258302   2.933   0.773   5.485 -0.6341  0.2781 -0.2530
12296TIP3    H158303   2.876   0.845   5.458 -1.0107  1.1390  2.4997
12296TIP3    H258304   3.002   0.771   5.419 -0.5693  3.2361 -0.4284
12297TIP3   OH258305   1.598   3.138   2.249 -0.0203 -0.3946 -0.4378
12297TIP3    H158306   1.692   3.157   2.245 -0.2132  1.0300  0.9237
12297TIP3    H258307   1.572   3.127   2.158  1.1697  0.7727 -0.9495
12298TIP3   OH258308   4.740   5.813  10.751 -0.4217  0.9314 -0.1287
12298TIP3    H158309   4.679   5.784  10.819 -0.1747 -0.1781 -0.3704
12298TIP3    H258310   4.683   5.848  10.682 -0.7514  0.5528 -0.0520
12299TIP3   OH258311   4.128   2.359   5.511  0.1709 -1.2078  0.0667
12299TIP3    H158312   4.190   2.289   5.529  2.6230  1.3328  2.4886
12299TIP3    H258313   4.163   2.403   5.433 -0.7403 -1.9288 -0.7787
12300TIP3   OH258314   2.367   4.049  14.784  0.2503 -0.2865  0.2006
12300TIP3    H158315   2.406   3.964  14.765 -0.9518 -0.8008 -0.0754
12300TIP3    H258316   2.346   4.086  14.698 -0.0275 -0.1064  0.3427
12301TIP3   OH258317   1.711   5.496  13.830 -0.0550 -0.1603  0.7012
12301TIP3    H158318   1.706   5.493  13.734  0.1976  0.9745  0.6398
12301TIP3    H258319   1.725   5.405  13.856  2.2974 -0.1940 -0.4802
12302TIP3   OH258320   3.996   0.838  16.156 -0.4633  0.1348 -0.2888
12302TIP3    H158321   3.927   0.792  16.108 -0.6331  1.8020 -1.7176
12302TIP3    H258322   3.950   0.896  16.216 -0.2644 -0.4261  0.4172
12303TIP3   OH258323   3.905   2.144   0.948 -0.6486  0.2639  0.4525
12303TIP3    H158324   3.855   2.098   1.015 -0.8750 -0.0432  0.0757
12303TIP3    H258325   3.909   2.235   0.979 -2.2654  0.5184  0.0396
12304TIP3   OH258326   5.340   4.354  13.810 -0.0170  0.5839  0.1340
12304TIP3    H158327   5.278   4.389  13.745 -0.1618  1.0515  0.5172
12304TIP3    H258328   5.341   4.260  13.793 -0.0979  0.6898 -0.5104
12305TIP3   OH258329   6.611   2.370  15.014  0.2279 -0.0035  0.3403
12305TIP3    H158330   6.669   2.298  15.038 -0.4684 -0.8703 -0.4854
12305TIP3    H258331   6.668   2.437  14.978  0.8351 -0.3285  0.6839
12306TIP3   OH258332   6.638   4.119  10.689  0.2049  0.0128 -0.7744
12306TIP3    H158333   6.690   4.154  10.616 -0.8429  0.0118 -1.5395
12306TIP3    H258334   6.701   4.069  10.740  1.2870  1.2123 -0.8527
12307TIP3   OH258335   1.269   4.581   6.182 -0.0174  0.2004 -0.1362
12307TIP3    H158336   1.198   4.621   6.233  3.1429  1.7218  3.6046
12307TIP3    H258337   1.339   4.647   6.182  2.4920 -2.2654 -0.9907
12308TIP3   OH258338   1.848   4.093   1.662 -0.2594  0.6415 -0.1620
12308TIP3    H158339   1.931   4.058   1.628 -1.5374 -1.1093 -1.7196
12308TIP3    H258340   1.864   4.107   1.755  1.9430  0.9091 -0.5282
12309TIP3   OH258341   6.635   5.439   5.462  0.4599 -0.7697  0.7328
12309TIP3    H158342   6.554   5.387   5.467  0.2613 -0.4122  1.3266
12309TIP3    H258343   6.611   5.523   5.501  1.3959 -0.9998  1.8208
12310TIP3   OH258344   0.847   2.112  13.195 -0.0036  0.4314 -0.1334
12310TIP3    H158345   0.916   2.065  13.148  0.4455  1.4163 -0.4752
12310TIP3    H258346   0.766   2.070  13.166  0.3154  0.5473 -1.2393
12311TIP3   OH258347   1.516   4.917  16.355  0.4842 -0.2647 -0.5576
12311TIP3    H158348   1.529   4.850  16.288  1.2113 -0.3033 -0.3890
12311TIP3    H258349   1.478   4.871  16.429 -0.4655 -0.1952 -0.9831
12312TIP3   OH258350   0.285   5.806   3.755  0.5781  0.1069 -0.2966
12312TIP3    H158351   0.209   5.844   3.799 -0.4277 -0.7002 -1.3085
12312TIP3    H258352   0.308   5.730   3.808 -0.5126 -0.7514 -1.0193
12313TIP3   OH258353   0.471   0.565  16.540  0.0347 -0.0638  0.2944
12313TIP3    H158354   0.415   0.544  16.466  0.2182 -0.9751  0.4052
12313TIP3    H258355   0.433   0.644  16.578 -0.6283 -0.1507 -0.1826
12314TIP3   OH258356   3.919   0.392  14.413  0.2377 -0.1833  0.5027
12314TIP3    H158357   3.985   0.450  14.374  1.0485 -2.1514 -1.2241
12314TIP3    H258358   3.841   0.405  14.359  0.4726 -0.7896  0.0050
12315TIP3   OH258359   0.853   0.297   2.426  0.1335 -0.6569  0.2022
12315TIP3    H158360   0.826   0.273   2.514  0.5250  0.3258  0.6054
12315TIP3    H258361   0.943   0.327   2.435  0.1818 -0.5471 -0.5274
12316TIP3   OH258362   5.189   5.816   1.790  0.3258  0.6494  0.3884
12316TIP3    H158363   5.235   5.898   1.772  0.0163  0.4406 -1.5099
12316TIP3    H258364   5.250   5.765   1.843  0.8662  1.7538  0.8581
12317TIP3   OH258365   1.250   3.170   4.546 -0.0827 -0.3397 -0.6163
12317TIP3    H158366   1.279   3.217   4.624 -0.6269  0.8505 -1.1165
12317TIP3    H258367   1.306   3.202   4.476 -0.4124 -0.4953 -0.9542
12318TIP3   OH258368   2.188   0.201  17.146  0.5237  0.3457  0.4973
12318TIP3    H158369   2.123   0.248  17.095 -1.0255 -0.5190  1.5983
12318TIP3    H258370   2.207   0.258  17.221  2.6998  1.5567 -0.8890
12319TIP3   OH258371   6.293   5.840  13.100  0.2269  0.3448 -0.1070
12319TIP3    H158372   6.237   5.854  13.024 -0.1164 -0.1022  0.0609
12319TIP3    H258373   6.308   5.746  13.103  1.2111  0.4816 -0.3018
12320TIP3   OH258374   4.593   2.025   4.387  0.1567 -0.3841  0.9000
12320TIP3    H158375   4.608   2.031   4.293 -1.7905  1.2038  0.6113
12320TIP3    H258376   4.606   1.933   4.408  0.5089 -0.7895 -0.9298
12321TIP3   OH258377   1.606   0.893  12.226 -0.0261  0.0759 -0.6509
12321TIP3    H158378   1.674   0.959  12.208  2.8484 -1.5096  3.1028
12321TIP3    H258379   1.533   0.919  12.169  1.6398  5.1873 -1.0404
12322TIP3   OH258380   4.447   1.590   1.972 -0.1831 -0.3005 -0.5543
12322TIP3    H158381   4.462   1.562   1.881 -0.3894 -0.5886 -0.5024
12322TIP3    H258382   4.353   1.576   1.985 -0.3997  0.9467 -0.7001
12323TIP3   OH258383   0.381   6.297  17.267  0.1229 -0.2454  0.2596
12323TIP3    H158384   0.366   6.272  17.358  1.3135  0.1411  0.5872
12323TIP3    H258385   0.469   6.336  17.268  0.0255  0.0307 -1.0005
12324TIP3   OH258386   6.285   1.245  13.939 -0.1105  0.2934 -0.1779
12324TIP3    H158387   6.352   1.302  13.977  0.6757 -1.3708  1.0609
12324TIP3    H258388   6.332   1.168  13.908 -1.0940  0.4402 -2.1982
12325TIP3   OH258389   4.555   2.388   0.969  0.2189 -0.3737 -0.1323
12325TIP3    H158390   4.645   2.418   0.977  0.5862 -0.4428 -3.1017
12325TIP3    H258391   4.525   2.422   0.885 -2.8776  0.3992  1.1309
12326TIP3   OH258392   0.995   5.781  14.708 -0.1730  0.2470  0.2098
12326TIP3    H158393   0.983   5.730  14.628 -1.2162 -0.7782  0.9774
12326TIP3    H258394   0.937   5.856  14.698  0.7036  0.8443 -0.5482
12327TIP3   OH258395   3.084   1.141   2.845  0.0431  0.0227 -0.2029
12327TIP3    H158396   3.007   1.196   2.859  0.5824  0.7985 -0.1664
12327TIP3    H258397   3.091   1.133   2.750 -1.4015 -2.0078 -0.1891
12328TIP3   OH258398   3.746   0.561  15.510 -0.3263 -0.1704 -0.1928
12328TIP3    H158399   3.717   0.484  15.559 -0.3719 -0.6408 -0.9381
12328TIP3    H258400   3.671   0.585  15.456 -0.1430  0.0932 -0.3332
12329TIP3   OH258401   6.329   6.554   2.411 -0.0756 -0.3704  0.5573
12329TIP3    H158402   6.294   6.533   2.498  1.1135 -0.2217  1.0939
12329TIP3    H258403   6.398   6.617   2.428 -0.9990  1.0236 -0.6899
12330TIP3   OH258404   4.966   0.522   3.250 -0.5917 -0.3454  0.2923
12330TIP3    H158405   4.988   0.574   3.173  0.0887  2.2354  2.1138
12330TIP3    H258406   4.873   0.539   3.265 -0.3364  0.5377  0.9714
12331TIP3   OH258407   6.752   2.643  14.078  0.3475  0.1002 -0.3422
12331TIP3    H158408   6.827   2.701  14.067 -0.1532  0.4655 -2.0713
12331TIP3    H258409   6.788   2.555  14.072  0.7251  0.2669 -0.5103
12332TIP3   OH258410   1.768   2.822   5.700 -0.2701  0.5702 -0.3820
12332TIP3    H158411   1.698   2.775   5.746  0.3130  1.9272  2.1155
12332TIP3    H258412   1.849   2.789   5.739  0.3899  0.4476 -1.8143
12333TIP3   OH258413   1.111   1.105   5.762  0.4934 -0.3522 -0.3629
12333TIP3    H158414   1.126   1.182   5.707 -2.1305  0.4922 -0.0084
12333TIP3    H258415   1.120   1.137   5.852 -0.1916 -0.5569 -0.2168
12334TIP3   OH258416   6.272   3.930   2.833 -0.5854  0.4898  0.2028
12334TIP3    H158417   6.264   4.020   2.801 -1.4340  1.1694  2.2176
12334TIP3    H258418   6.361   3.925   2.867 -0.2603  0.2968 -0.6579
12335TIP3   OH258419   0.469   1.190   2.634  0.4021  0.0422  0.2080
12335TIP3    H158420   0.398   1.253   2.647  0.4330  0.1503 -0.1390
12335TIP3    H258421   0.461   1.163   2.542  0.4694 -0.3607  0.3152
12336TIP3   OH258422   5.087   5.939   2.330 -0.5627 -0.1242 -0.0630
12336TIP3    H158423   4.994   5.927   2.313 -0.3833  0.6473 -1.9049
12336TIP3    H258424   5.128   5.860   2.296 -0.4398  0.2363 -0.7953
12337TIP3   OH258425   0.625   3.328   1.400  0.3684 -0.0244  0.6406
12337TIP3    H158426   0.616   3.353   1.308 -1.2785 -0.2605  0.7117
12337TIP3    H258427   0.660   3.239   1.398  0.4184  0.0031  0.2485
12338TIP3   OH258428   4.827   4.225   4.604 -0.3042  0.1754  0.4741
12338TIP3    H158429   4.892   4.288   4.635 -0.3787  0.8518 -0.6709
12338TIP3    H258430   4.844   4.219   4.510 -1.9607  0.4417  0.1407
12339TIP3   OH258431   2.755   3.185   0.433  0.1562  0.2878 -0.1415
12339TIP3    H158432   2.716   3.187   0.521  1.4901 -0.9372  0.5156
12339TIP3    H258433   2.680   3.182   0.374 -0.7814  1.7877  0.9090
12340TIP3   OH258434   1.951   2.525   0.393  0.0127 -0.7780  0.1193
12340TIP3    H158435   1.954   2.575   0.475  0.0291 -0.1215 -0.2747
12340TIP3    H258436   2.016   2.456   0.405 -1.3156 -1.8914  1.4098
12341TIP3   OH258437   4.072   4.869  15.994  0.2035 -0.3320 -0.4082
12341TIP3    H158438   3.978   4.852  15.996  0.1549 -0.0612 -0.3203
12341TIP3    H258439   4.080   4.964  15.998  0.4733 -0.3382 -0.7334
12342TIP3   OH258440   1.013   1.937   1.097  0.0009 -0.3848 -0.5239
12342TIP3    H158441   0.930   1.984   1.084  1.3783  2.1105 -0.9641
12342TIP3    H258442   1.065   1.959   1.020  1.2138 -1.6066 -0.0785
12343TIP3   OH258443   4.713   5.129  11.808  0.6977  0.2364 -1.0803
12343TIP3    H158444   4.703   5.042  11.846 -0.7582  0.6521 -0.4264
12343TIP3    H258445   4.773   5.117  11.735 -1.1075 -1.7516 -2.3516
12344TIP3   OH258446   6.248   0.555  14.591  0.4081  0.5056  0.1503
12344TIP3    H158447   6.320   0.504  14.552 -0.8136  0.9332 -2.9352
12344TIP3    H258448   6.281   0.580  14.677  2.3014 -2.7664  0.5530
12345TIP3   OH258449   4.320   4.610  16.169 -0.3423 -0.3535 -0.1005
12345TIP3    H158450   4.301   4.590  16.260 -1.9376 -1.3103 -0.6130
12345TIP3    H258451   4.357   4.529  16.133  0.1061 -0.0408 -0.3585
12346TIP3   OH258452   5.249   1.135   5.451 -0.1008 -0.6430  0.3362
12346TIP3    H158453   5.253   1.224   5.486  0.5010 -0.4101 -0.3141
12346TIP3    H258454   5.321   1.089   5.493  2.4019  0.3623 -2.5173
12347TIP3   OH258455   6.604   0.759  14.379 -0.1107  0.2734 -0.5171
12347TIP3    H158456   6.686   0.719  14.407 -1.1943 -1.8037 -0.0999
12347TIP3    H258457   6.585   0.825  14.445  2.4114  2.6465 -1.9373
12348TIP3   OH258458   6.526   5.312   1.273  0.7320  0.4436 -0.3824
12348TIP3    H158459   6.462   5.295   1.343  1.7408 -0.8169  0.2835
12348TIP3    H258460   6.481   5.371   1.213 -0.4134  1.0133  0.9797
12349TIP3   OH258461   4.359   5.158  15.887  0.2405 -0.1638  0.0146
12349TIP3    H158462   4.412   5.085  15.920  0.4844 -0.8658 -1.8381
12349TIP3    H258463   4.400   5.183  15.805 -1.4809  0.2182 -0.7789
12350TIP3   OH258464   5.636   2.932   0.963 -0.1520  0.0117 -0.2270
12350TIP3    H158465   5.645   2.889   1.048 -0.7643  2.3226  1.0752
12350TIP3    H258466   5.576   2.875   0.914  2.1581 -2.7274 -0.1827
12351TIP3   OH258467   4.877   0.657   0.661 -0.4113  0.6385  0.5462
12351TIP3    H158468   4.944   0.718   0.691 -0.0456  0.2432  0.5563
12351TIP3    H258469   4.892   0.578   0.714 -0.8723  0.5398  0.5359
12352TIP3   OH258470   5.564   5.621  13.314 -0.4429  0.1770 -0.5167
12352TIP3    H158471   5.535   5.705  13.351  0.1539  0.5167 -0.8004
12352TIP3    H258472   5.601   5.645  13.229 -1.3082 -0.5236 -1.0938
12353TIP3   OH258473   3.229   1.269   0.086  0.2354 -0.2510  0.5190
12353TIP3    H158474   3.165   1.286   0.155 -0.3569 -0.4176  0.0262
12353TIP3    H258475   3.304   1.324   0.107  0.7602 -1.5187  2.2112
12354TIP3   OH258476   3.859   3.734  15.398  0.0012  0.4333 -0.1736
12354TIP3    H158477   3.858   3.694  15.485  0.2428  0.5546 -0.1143
12354TIP3    H258478   3.850   3.661  15.338  0.5825  0.2728 -0.0729
12355TIP3   OH258479   6.170   5.872  14.488 -0.0784 -0.2227  0.4153
12355TIP3    H158480   6.236   5.813  14.524  0.4353  0.1240  0.0636
12355TIP3    H258481   6.116   5.898  14.563  0.8914  0.3935  0.9217
12356TIP3   OH258482   3.501   4.607  11.589 -0.4277  0.1402  0.1732
12356TIP3    H158483   3.449   4.548  11.643  0.2328 -1.5735 -0.9850
12356TIP3    H258484   3.466   4.595  11.500 -0.0773  1.2869 -0.1370
12357TIP3   OH258485   1.348   0.152  12.990 -0.1826  0.6296  0.2438
12357TIP3    H158486   1.399   0.073  12.976 -0.8089  0.1305  0.6911
12357TIP3    H258487   1.266   0.121  13.028 -0.6656  1.4420 -0.0932
12358TIP3   OH258488   0.080   5.379  15.251 -0.1462  0.2423  0.5274
12358TIP3    H158489   0.123   5.374  15.336 -0.6543  2.0241  0.9246
12358TIP3    H258490   0.023   5.302  15.249 -0.4714  0.4122  2.0007
12359TIP3   OH258491   0.526   1.192  15.408  0.3327  0.3976 -0.4826
12359TIP3    H158492   0.578   1.157  15.481  1.0503 -0.2071 -1.2640
12359TIP3    H258493   0.475   1.263  15.447 -0.2578 -0.7131  0.8971
12360TIP3   OH258494   3.502   3.091   5.536  0.1878  0.0277 -0.4681
12360TIP3    H158495   3.547   3.145   5.472 -0.2873  0.3636 -0.5267
12360TIP3    H258496   3.471   3.015   5.486  0.0849  0.1384 -0.5741
12361TIP3   OH258497   3.513   0.492  16.399  0.2559 -0.0501  0.3176
12361TIP3    H158498   3.432   0.521  16.441 -0.5208  0.3379 -1.3657
12361TIP3    H258499   3.551   0.430  16.461 -1.5720 -0.6039  0.9500
12362TIP3   OH258500   5.456   4.456   4.363 -0.1320  0.4253  0.2647
12362TIP3    H158501   5.532   4.498   4.404  0.9901 -1.4019  0.2014
12362TIP3    H258502   5.486   4.367   4.343 -1.6505  0.2984 -1.7095
12363TIP3   OH258503   1.481   6.258  14.564  0.1137 -0.0979  0.4410
12363TIP3    H158504   1.569   6.243  14.598  0.6544 -0.8756 -1.2014
12363TIP3    H258505   1.423   6.218  14.628  0.9905 -0.1554  1.2149
12364TIP3   OH258506   3.914   4.841  14.114  0.1784 -0.1622 -0.0156
12364TIP3    H158507   3.889   4.792  14.193 -1.2863 -1.6413 -1.3319
12364TIP3    H258508   4.007   4.823  14.104 -0.1817 -2.1729 -0.0733
12365TIP3   OH258509   0.536   0.986  10.766  0.5026  0.0901 -0.1834
12365TIP3    H158510   0.610   0.972  10.824  0.6622  2.9466  0.4662
12365TIP3    H258511   0.569   1.046  10.699 -0.9028  0.5805 -0.4808
12366TIP3   OH258512   4.281   3.677  14.806  0.8698 -0.5219 -0.1913
12366TIP3    H158513   4.333   3.705  14.882  0.0413 -0.4120  0.3415
12366TIP3    H258514   4.345   3.673  14.734  1.6818 -0.7237  0.5232
12367TIP3   OH258515   0.805   2.292   3.894 -0.0719 -0.0928 -0.2255
12367TIP3    H158516   0.711   2.293   3.913  0.1287  3.4727  1.3647
12367TIP3    H258517   0.846   2.263   3.976  0.2866 -0.8845 -0.6697
12368TIP3   OH258518   6.240   4.052   5.507  0.1187 -0.0630 -0.0662
12368TIP3    H158519   6.280   4.044   5.594  0.2537 -1.0942 -0.2119
12368TIP3    H258520   6.245   3.964   5.470 -1.6403 -0.0617 -0.3855
12369TIP3   OH258521   5.148   5.804   0.980  0.2809 -0.0117 -0.0145
12369TIP3    H158522   5.159   5.768   1.067 -1.7780 -1.0291 -0.1190
12369TIP3    H258523   5.198   5.746   0.923  0.5930 -0.0779  0.3201
12370TIP3   OH258524   2.053   1.112  16.545 -0.7608 -0.3066  0.0406
12370TIP3    H158525   2.019   1.201  16.549  0.5865  0.1935  2.1448
12370TIP3    H258526   2.146   1.122  16.523 -0.9984 -1.3619 -1.6536
12371TIP3   OH258527   6.217   3.415  11.821  0.7547  0.4776  0.0092
12371TIP3    H158528   6.182   3.403  11.910  0.6222  0.3636 -0.0567
12371TIP3    H258529   6.278   3.488  11.829  0.8803  0.3516  0.2318
12372TIP3   OH258530   1.854   5.397   3.445 -0.3023  0.1658  0.1536
12372TIP3    H158531   1.902   5.374   3.366 -1.4001 -0.4250 -0.3583
12372TIP3    H258532   1.903   5.355   3.516 -2.2426 -4.1518 -0.7078
12373TIP3   OH258533   2.941   1.860   3.809  0.1724  0.2320 -0.4817
12373TIP3    H158534   2.884   1.934   3.789  2.0459  2.8097  2.6378
12373TIP3    H258535   2.892   1.808   3.873  0.5375  1.4476  0.8384
12374TIP3   OH258536   6.645   5.938   3.022  0.2068 -0.0685  0.0842
12374TIP3    H158537   6.727   5.895   3.046  0.0883 -1.4500 -1.7019
12374TIP3    H258538   6.582   5.906   3.086  0.7978  0.0150  0.7236
12375TIP3   OH258539   5.688   3.047   4.351  0.3161  0.3378  0.0932
12375TIP3    H158540   5.673   3.137   4.379  0.7400  0.4329  0.0213
12375TIP3    H258541   5.629   2.995   4.405 -0.8472  0.7681 -0.7345
12376TIP3   OH258542   3.548   5.433  13.285  0.1548  0.1271  0.6307
12376TIP3    H158543   3.458   5.426  13.319 -0.5784  0.0046 -1.2261
12376TIP3    H258544   3.600   5.461  13.360 -1.1721 -1.2319  2.1420
12377TIP3   OH258545   2.854   5.454   3.253 -0.9947 -0.2525  0.1062
12377TIP3    H158546   2.849   5.480   3.345 -0.1929 -2.2168  0.7702
12377TIP3    H258547   2.771   5.408   3.237 -0.7895 -0.6273  0.1059
12378TIP3   OH258548   0.113   0.594  14.813  0.0827  0.1432  0.8826
12378TIP3    H158549   0.037   0.536  14.821 -0.9875  1.2950 -0.4052
12378TIP3    H258550   0.077   0.677  14.781  1.6763  1.2737  1.8507
12379TIP3   OH258551   2.048   5.943   1.739 -0.0547 -0.5003  0.8375
12379TIP3    H158552   2.027   6.033   1.762  0.8907 -0.9086  3.6557
12379TIP3    H258553   1.963   5.898   1.739 -0.4564  0.2272  0.0457
12380TIP3   OH258554   6.067   3.341   3.050  0.2036  0.2814  0.2474
12380TIP3    H158555   5.996   3.404   3.060 -0.3519 -0.0990 -1.0874
12380TIP3    H258556   6.035   3.262   3.093  0.7703  0.7909  1.6420
12381TIP3   OH258557   5.697   6.152   1.701 -0.3453 -0.3574  0.2211
12381TIP3    H158558   5.716   6.185   1.789 -2.1825 -2.8674  1.7030
12381TIP3    H258559   5.717   6.058   1.707 -0.4077 -0.5666 -2.1129
12382TIP3   OH258560   5.904   5.355  15.141  0.0638  0.4519 -0.5343
12382TIP3    H158561   5.878   5.431  15.193 -0.6373 -0.1793  0.0382
12382TIP3    H258562   5.827   5.333  15.089  0.7069  0.9926 -1.7899
12383TIP3   OH258563   6.048   0.546   4.790  0.5034 -0.1856 -0.5703
12383TIP3    H158564   6.120   0.488   4.765 -0.7320 -1.9532 -0.2142
12383TIP3    H258565   5.983   0.533   4.722 -1.2674 -2.0497  1.3192
12384TIP3   OH258566   4.443   4.415  12.821 -0.1209 -0.5971  0.1103
12384TIP3    H158567   4.412   4.391  12.908 -0.1262 -0.4115  0.1611
12384TIP3    H258568   4.475   4.333  12.783  1.4357 -0.4161  0.9339
12385TIP3   OH258569   6.345   2.678   5.303 -0.0177 -0.1262  0.1645
12385TIP3    H158570   6.401   2.722   5.367 -1.3551 -0.3059  1.5073
12385TIP3    H258571   6.260   2.669   5.347 -1.5177  1.2536 -2.2245
12386TIP3   OH258572   3.198   6.539   1.482 -0.4122 -0.0983 -0.5201
12386TIP3    H158573   3.245   6.554   1.400  2.6992 -1.4017  0.8234
12386TIP3    H258574   3.150   6.457   1.468 -1.1600  0.4804 -1.4710
12387TIP3   OH258575   1.128   5.783   2.520 -0.0229 -0.0250  0.5746
12387TIP3    H158576   1.221   5.787   2.543  0.9348 -0.7766 -2.7115
12387TIP3    H258577   1.087   5.738   2.594  1.9389  1.4748  2.7119
12388TIP3   OH258578   6.345   6.144  16.825 -0.0872 -0.1791  0.3904
12388TIP3    H158579   6.371   6.194  16.747  1.4604 -0.1551  0.8872
12388TIP3    H258580   6.356   6.205  16.898 -0.3590 -0.5624  0.7572
12389TIP3   OH258581   3.153   4.844   0.291  0.3205  0.3664 -0.0123
12389TIP3    H158582   3.211   4.912   0.323 -0.3664  1.0660 -0.2159
12389TIP3    H258583   3.103   4.816   0.368  1.8050 -1.1653  0.4440
12390TIP3   OH258584   4.914   1.449   1.813  0.1387 -0.1739  0.0813
12390TIP3    H158585   4.852   1.401   1.867 -0.5333  0.0611 -0.4720
12390TIP3    H258586   4.868   1.529   1.789  0.6807  0.0334 -0.2813
12391TIP3   OH258587   2.368   1.409  13.521 -0.3778 -0.2836 -0.4323
12391TIP3    H158588   2.365   1.364  13.606 -1.4780  1.7162  0.6538
12391TIP3    H258589   2.377   1.338  13.457 -0.6899 -1.9342  1.2544
12392TIP3   OH258590   1.745   4.517   0.528 -0.6706  0.2791 -0.1292
12392TIP3    H158591   1.738   4.422   0.521  0.4720  0.2386 -1.1568
12392TIP3    H258592   1.765   4.533   0.621  1.0422 -0.6618 -0.2836
12393TIP3   OH258593   3.522   1.182   4.547 -0.1627  0.0131  0.2730
12393TIP3    H158594   3.515   1.222   4.460  0.2582  1.3172  0.8145
12393TIP3    H258595   3.614   1.157   4.554 -0.2069 -0.1336  0.3331
12394TIP3   OH258596   0.967   3.960  10.768 -0.0896 -0.5593 -0.1123
12394TIP3    H158597   0.883   3.951  10.813  0.8311 -1.0880  1.5565
12394TIP3    H258598   1.010   3.875  10.780  1.1705  0.0869  0.0848
12395TIP3   OH258599   6.183   0.584  15.263  0.5396  0.5920 -0.8824
12395TIP3    H158600   6.098   0.565  15.303  0.3647  2.1866 -0.4221
12395TIP3    H258601   6.163   0.641  15.189  1.2414  1.5665 -0.3439
12396TIP3   OH258602   3.115   0.038   1.564 -0.0907  0.6717 -0.4244
12396TIP3    H158603   3.092  -0.027   1.497  1.9997 -0.5966  0.0019
12396TIP3    H258604   3.088   0.121   1.526 -1.2641 -0.2457 -1.7486
12397TIP3   OH258605   3.195   0.344   0.224 -0.0479 -0.2392  0.6266
12397TIP3    H158606   3.155   0.275   0.277  0.6269 -1.2257 -0.1183
12397TIP3    H258607   3.168   0.324   0.134  0.5853  0.1534  0.3415
12398TIP3   OH258608   3.175   3.611   4.090  0.0264  0.1034  0.7679
12398TIP3    H158609   3.173   3.543   4.022  0.9418 -0.6080  1.4192
12398TIP3    H258610   3.100   3.592   4.145 -0.2088  0.1362  0.4613
12399TIP3   OH258611   1.755   4.164  12.735  0.2604 -0.6741 -0.4151
12399TIP3    H158612   1.730   4.251  12.703 -0.9185 -0.6438  0.5071
12399TIP3    H258613   1.706   4.154  12.817  1.3663 -1.6980  0.1411
12400TIP3   OH258614   4.188   2.203   3.687 -0.1593 -0.5574  0.2208
12400TIP3    H158615   4.161   2.233   3.600  0.4761 -1.0396 -0.1452
12400TIP3    H258616   4.200   2.284   3.737  1.7476 -0.1517 -0.8173
12401TIP3   OH258617   2.600   1.089  12.131  0.2134  0.3647  0.1579
12401TIP3    H158618   2.592   1.147  12.055  0.1090 -1.5647 -1.3567
12401TIP3    H258619   2.692   1.097  12.156  0.0957  1.5268  0.2746
12402TIP3   OH258620   0.978   0.489   4.343 -0.0985 -0.4707  0.8416
12402TIP3    H158621   0.937   0.549   4.281  0.3637 -0.5785  0.4244
12402TIP3    H258622   0.912   0.475   4.410  1.2638  4.1197  3.5149
12403TIP3   OH258623   5.922   4.983   0.811  0.3522  0.1420  0.6524
12403TIP3    H158624   5.892   5.074   0.804 -0.7500 -0.2763 -0.4477
12403TIP3    H258625   5.934   4.955   0.720 -1.8122 -1.5927  0.8198
12404TIP3   OH258626   4.500   2.025   5.113  0.5583  0.3308 -0.2363
12404TIP3    H158627   4.483   2.111   5.150  2.7998  1.7500 -2.1739
12404TIP3    H258628   4.453   2.024   5.030 -0.6085 -0.9235  0.4041
12405TIP3   OH258629   1.581   2.776  16.076 -0.0928  0.0658 -0.5310
12405TIP3    H158630   1.500   2.762  16.028 -0.4528 -0.8375  0.3077
12405TIP3    H258631   1.617   2.688  16.088  0.3303  0.3336  0.2492
12406TIP3   OH258632   2.994   2.775  11.556 -0.2331  0.5550 -0.3964
12406TIP3    H158633   2.915   2.812  11.519 -0.8975 -0.6633 -0.2367
12406TIP3    H258634   2.978   2.773  11.651 -0.5837 -0.9593 -0.4736
12407TIP3   OH258635   3.127   2.718  16.810  0.0727  0.3119  0.3970
12407TIP3    H158636   3.216   2.751  16.818 -0.1504  0.6950  1.3660
12407TIP3    H258637   3.128   2.666  16.730  1.0181  0.7762  0.0946
12408TIP3   OH258638   3.160   6.547  16.699  0.1780  0.3653 -0.1619
12408TIP3    H158639   3.116   6.498  16.630  0.4573 -1.4089  0.8751
12408TIP3    H258640   3.249   6.561  16.665  0.4159 -0.7886 -0.0630
12409TIP3   OH258641   0.784   5.360   5.879 -0.3663 -0.2199 -0.0494
12409TIP3    H158642   0.733   5.288   5.916  1.1548 -1.5276 -0.4294
12409TIP3    H258643   0.856   5.373   5.941 -0.3698  0.6849 -0.2171
12410TIP3   OH258644   4.940   4.920   2.943 -0.2834  0.1066  0.1889
12410TIP3    H158645   4.990   4.948   2.867 -1.0357 -0.1599 -0.4111
12410TIP3    H258646   4.939   4.824   2.938 -1.1501  0.1181 -0.0102
12411TIP3   OH258647   3.302   6.687  14.271 -0.6669  0.5527  0.1426
12411TIP3    H158648   3.289   6.633  14.193 -0.7591 -0.1585  0.6421
12411TIP3    H258649   3.356   6.634  14.329 -2.2924  0.2157  1.4216
12412TIP3   OH258650   0.598   1.134  15.043 -0.3951  0.3721  0.6687
12412TIP3    H158651   0.634   1.217  15.075 -1.7301  0.8429  1.0164
12412TIP3    H258652   0.515   1.159  15.002  0.6188 -0.3838 -2.0545
12413TIP3   OH258653   2.242   4.307   1.305 -0.2300  0.2672  0.2368
12413TIP3    H158654   2.287   4.308   1.220  1.7947  0.9957  1.2525
12413TIP3    H258655   2.177   4.237   1.297  0.3309 -0.0954 -1.6958
12414TIP3   OH258656   2.570   6.049  14.325 -0.3137  0.0190 -0.2567
12414TIP3    H158657   2.653   6.042  14.278 -0.3149 -0.1208 -0.2392
12414TIP3    H258658   2.528   5.964  14.311  0.7037 -0.9330  1.9578
12415TIP3   OH258659   4.764   0.368  12.394 -0.0233 -0.0224 -0.7304
12415TIP3    H158660   4.784   0.349  12.302 -0.9932  0.0209 -0.9613
12415TIP3    H258661   4.807   0.451  12.411  0.2359 -0.0706 -1.1230
12416TIP3   OH258662   4.025   5.881  13.630  0.2314  0.2618 -0.5389
12416TIP3    H158663   3.963   5.896  13.701  0.2604 -0.3361 -0.3842
12416TIP3    H258664   4.085   5.814  13.663  1.0286  0.9109 -0.6455
12417TIP3   OH258665   2.149   5.502   3.743  0.0676  0.8173 -0.5672
12417TIP3    H158666   2.132   5.425   3.797 -0.1811  1.4460  0.2733
12417TIP3    H258667   2.076   5.505   3.681  1.1670 -0.8085 -2.0472
12418TIP3   OH258668   1.137   1.798  13.078  0.1887 -0.1396  0.4516
12418TIP3    H158669   1.168   1.727  13.022 -1.1251  1.6202 -2.8050
12418TIP3    H258670   1.208   1.814  13.140  0.3533 -4.4376  1.6254
12419TIP3   OH258671   2.677   2.425  13.416 -0.3357  0.0116  0.7678
12419TIP3    H158672   2.711   2.405  13.328 -0.3484  1.7438  0.3360
12419TIP3    H258673   2.732   2.373  13.475  0.0952 -0.6926 -0.2195
12420TIP3   OH258674   4.974   3.660  16.678 -0.0344  0.2241 -0.0643
12420TIP3    H158675   5.046   3.600  16.694  0.3343  1.2395  2.8406
12420TIP3    H258676   5.014   3.737  16.638  0.7215  1.0291  2.0839
12421TIP3   OH258677   5.775   3.015  12.798  0.1387  1.0665  0.2892
12421TIP3    H158678   5.858   3.061  12.807  0.9650 -0.3679  0.3946
12421TIP3    H258679   5.800   2.927  12.770 -1.4642  1.0542 -1.2520
12422TIP3   OH258680   1.166   3.044  13.292 -0.0393  0.3699  0.1682
12422TIP3    H158681   1.231   3.074  13.228  1.1658 -0.9396  0.7162
12422TIP3    H258682   1.198   2.958  13.320 -1.1920  0.3698  1.6108
12423TIP3   OH258683   3.494   5.732  12.317  0.3777 -0.7714  0.2519
12423TIP3    H158684   3.540   5.661  12.363 -0.4559 -0.9239  0.8863
12423TIP3    H258685   3.561   5.773  12.262  1.0690 -1.5103  0.5241
12424TIP3   OH258686   3.072   2.239  15.267  0.1304 -0.2452 -0.0947
12424TIP3    H158687   3.031   2.268  15.185  0.5962 -0.9066 -0.5644
12424TIP3    H258688   3.104   2.320  15.307 -0.0345  0.0740 -0.5965
12425TIP3   OH258689   1.521   6.239  16.481 -0.2667  0.3513  0.0004
12425TIP3    H158690   1.527   6.295  16.403 -0.2179 -0.7300 -0.7944
12425TIP3    H258691   1.513   6.150  16.446  0.3830 -0.2168  1.2375
12426TIP3   OH258692   6.124   0.248  14.249  0.5093 -0.3744  0.3137
12426TIP3    H158693   6.036   0.213  14.232  1.1787 -1.3343 -1.5568
12426TIP3    H258694   6.158   0.268  14.162  2.2543 -0.3305  0.9752
12427TIP3   OH258695   0.026   5.378  12.441  0.4366  0.0018  0.2056
12427TIP3    H158696   0.018   5.341  12.353 -1.8920 -0.3852  0.5264
12427TIP3    H258697   0.011   5.472  12.429 -4.0313 -0.4555  0.5198
12428TIP3   OH258698   3.834   5.561  16.527 -0.5802  0.5473 -0.1504
12428TIP3    H158699   3.880   5.616  16.464  1.9860 -1.4965 -0.2037
12428TIP3    H258700   3.816   5.480  16.479 -1.2066  0.0469  0.8996
12429TIP3   OH258701   0.082   5.592   3.290 -0.4385  0.0381 -0.2228
12429TIP3    H158702   0.063   5.530   3.361 -0.3019  0.2544  0.0024
12429TIP3    H258703   0.156   5.643   3.322 -0.1971 -0.0477 -0.6357
12430TIP3   OH258704   1.625   4.937  16.655  0.0898 -0.2823 -1.0961
12430TIP3    H158705   1.615   4.900  16.743  2.4424 -2.0005 -1.4473
12430TIP3    H258706   1.537   4.931  16.617 -0.6831 -0.7634  0.6505
12431TIP3   OH258707   3.795   6.189  15.903 -0.1381  0.1002 -0.9411
12431TIP3    H158708   3.851   6.122  15.864  1.1911  1.7782 -2.0645
12431TIP3    H258709   3.740   6.219  15.832  0.0528  0.9476 -0.7466
12432TIP3   OH258710   2.335   1.840   5.062  0.0098  0.6455 -0.2970
12432TIP3    H158711   2.415   1.795   5.089 -0.9190 -0.4871  0.6522
12432TIP3    H258712   2.264   1.779   5.084 -1.1021  1.4739 -1.4334
12433TIP3   OH258713   6.026   5.010   3.754 -0.4191 -0.5791 -0.0758
12433TIP3    H158714   6.038   5.005   3.849  0.3045  1.5296  0.0046
12433TIP3    H258715   6.113   4.992   3.718 -0.1422  0.8285 -0.1860
12434TIP3   OH258716   6.026   4.400  14.945  0.6902  0.0285 -0.7289
12434TIP3    H158717   5.998   4.314  14.913  0.2352  0.6744 -2.1753
12434TIP3    H258718   5.945   4.442  14.975  1.0827 -0.4787  1.1321
12435TIP3   OH258719   4.040   2.888  14.194  0.0275  0.0867  0.2683
12435TIP3    H158720   4.119   2.861  14.240 -0.5321 -1.6102  0.3228
12435TIP3    H258721   3.974   2.823  14.219 -1.3496  1.3499  0.0940
12436TIP3   OH258722   4.236   5.443   2.137  0.4797  0.4377  0.3221
12436TIP3    H158723   4.264   5.391   2.061  2.1153  0.2115  1.0321
12436TIP3    H258724   4.152   5.481   2.111  0.3364 -0.7443 -1.0705
12437TIP3   OH258725   1.686   2.232  12.598 -0.4135 -0.0053  0.6661
12437TIP3    H158726   1.659   2.146  12.629  0.0392  0.2258  1.7669
12437TIP3    H258727   1.610   2.288  12.613 -0.7222 -0.2219 -0.0900
12438TIP3   OH258728   4.670   3.998  13.156 -0.5892  0.5048  0.3071
12438TIP3    H158729   4.755   3.954  13.146  0.0618  1.5475  1.0056
12438TIP3    H258730   4.630   3.956  13.233 -0.9123 -0.2780 -0.2740
12439TIP3   OH258731   0.030   5.652  11.690 -0.4930  0.1984 -0.3277
12439TIP3    H158732  -0.059   5.687  11.685 -1.0216 -1.2248 -2.7068
12439TIP3    H258733   0.021   5.567  11.733  0.0065  0.7676  0.9414
12440TIP3   OH258734   4.805   4.314  15.460 -0.5278 -0.7092 -0.1119
12440TIP3    H158735   4.805   4.247  15.391 -3.0112 -1.1732  0.2615
12440TIP3    H258736   4.801   4.397  15.412  0.0694 -0.9114 -0.5335
12441TIP3   OH258737   6.276   5.840   5.475  0.8689 -0.6436  0.3828
12441TIP3    H158738   6.191   5.871   5.507  0.9755  0.6083 -0.4427
12441TIP3    H258739   6.339   5.876   5.537  0.7208 -3.0617  2.0234
12442TIP3   OH258740   2.695   4.363   1.503  0.0960 -0.0850  0.6725
12442TIP3    H158741   2.633   4.424   1.463  1.3047  0.9493  0.3052
12442TIP3    H258742   2.654   4.277   1.492 -2.1753  0.7107  2.1979
12443TIP3   OH258743   3.463   5.705   3.987 -0.1479 -0.3909 -0.4163
12443TIP3    H158744   3.406   5.773   4.022  1.6178  0.7812  0.3151
12443TIP3    H258745   3.477   5.646   4.061 -2.0553 -1.9081 -1.1727
12444TIP3   OH258746   1.922   1.866  16.364 -0.9658  0.4179 -0.3272
12444TIP3    H158747   2.006   1.912  16.362 -0.9574  0.5293  1.2302
12444TIP3    H258748   1.946   1.773  16.364 -0.7961  0.4506  0.7784
12445TIP3   OH258749   0.737   4.810   4.309 -0.7430 -0.5049 -0.3075
12445TIP3    H158750   0.747   4.896   4.351  0.5618 -1.0193  0.4986
12445TIP3    H258751   0.648   4.810   4.276 -0.6009  1.3722 -0.7996
12446TIP3   OH258752   4.216   3.837   4.600  0.1522  0.1011  0.3325
12446TIP3    H158753   4.235   3.866   4.510 -0.9349 -0.4674 -0.0980
12446TIP3    H258754   4.180   3.749   4.589 -0.8348  0.3803  1.2640
12447TIP3   OH258755   6.459   5.737  12.181 -0.5169  0.1250  0.1171
12447TIP3    H158756   6.374   5.714  12.218  0.1717 -0.9009  1.1225
12447TIP3    H258757   6.463   5.833  12.187 -0.4195  0.0187  2.8050
12448TIP3   OH258758   6.098   1.780   2.088  0.1384 -0.4196 -0.1268
12448TIP3    H158759   6.077   1.830   2.167 -0.1532  1.9103 -1.5971
12448TIP3    H258760   6.019   1.730   2.069 -0.4374  0.4077  0.0522
12449TIP3   OH258761   2.011   1.543   3.961 -0.0638 -0.0677  0.0348
12449TIP3    H158762   2.089   1.553   3.908  0.3931 -0.0471  0.7036
12449TIP3    H258763   2.038   1.570   4.049 -1.7013  3.5209 -0.3651
12450TIP3   OH258764   3.497   0.942  11.004 -0.0747  0.6724  0.3389
12450TIP3    H158765   3.541   0.863  11.035 -1.1120  0.1398  0.5103
12450TIP3    H258766   3.522   1.010  11.066 -1.2737 -0.1356  1.7819
12451TIP3   OH258767   0.100   3.165  15.796  0.0978  0.0199 -0.2746
12451TIP3    H158768   0.136   3.180  15.883  2.4968  0.5355 -1.2895
12451TIP3    H258769   0.118   3.073  15.777  3.2325  0.7735 -1.6679
12452TIP3   OH258770   5.676   1.597   1.202 -0.0362  0.3536 -0.1990
12452TIP3    H158771   5.599   1.622   1.252  0.3283  0.8422  0.1248
12452TIP3    H258772   5.641   1.560   1.121 -0.6403 -0.6513  0.4929
12453TIP3   OH258773   4.184   5.124  16.094 -0.5369  0.4653 -0.4485
12453TIP3    H158774   4.239   5.130  16.015 -1.2588  0.2804 -0.9781
12453TIP3    H258775   4.217   5.047  16.140 -1.4746 -0.7091 -1.6615
12454TIP3   OH258776   2.435   1.311  15.186  0.7979  0.1230 -0.2019
12454TIP3    H158777   2.373   1.330  15.116 -0.1759  1.8598  1.0427
12454TIP3    H258778   2.519   1.343  15.153  0.6171 -0.3113 -1.0951
12455TIP3   OH258779   3.485   2.150   5.422 -0.3794  0.0566 -0.1047
12455TIP3    H158780   3.399   2.192   5.429 -0.4123 -0.1324  0.9006
12455TIP3    H258781   3.544   2.221   5.399 -1.0424 -0.1192 -2.5484
12456TIP3   OH258782   6.182   5.449  14.560 -0.0020  0.9178 -0.1704
12456TIP3    H158783   6.144   5.365  14.586  0.5525  1.0380  1.1235
12456TIP3    H258784   6.135   5.473  14.480 -0.9547 -0.0761  0.0613
12457TIP3   OH258785   0.161   4.486  14.756 -0.1242  0.0900  0.8352
12457TIP3    H158786   0.073   4.482  14.718  1.1582  1.5810 -2.7589
12457TIP3    H258787   0.180   4.580  14.762  0.1602 -0.0880  4.5829
12458TIP3   OH258788   1.707   0.211   2.031  0.0345 -0.0084  0.1488
12458TIP3    H158789   1.660   0.257   2.100  1.9279  0.0308  1.4874
12458TIP3    H258790   1.779   0.269   2.008 -1.6114  0.9436 -3.4086
12459TIP3   OH258791   3.517   6.104   0.829 -0.2355 -0.4479 -0.0603
12459TIP3    H158792   3.486   6.185   0.870  0.1020  0.1961 -1.0252
12459TIP3    H258793   3.453   6.038   0.854 -0.5308  0.1272  0.7291
12460TIP3   OH258794   5.796   4.785  16.316 -0.5482  0.0327  0.1770
12460TIP3    H158795   5.805   4.778  16.411 -0.9450  0.7913  0.2722
12460TIP3    H258796   5.799   4.879  16.298  0.9395 -0.1429 -0.7052
12461TIP3   OH258797   3.500   3.407  14.647  0.2132  0.2785 -0.2214
12461TIP3    H158798   3.534   3.361  14.724  0.5623  0.4332 -0.2805
12461TIP3    H258799   3.408   3.381  14.643  0.4597 -0.6238 -0.4023
12462TIP3   OH258800   1.434   0.733  14.481 -0.0285 -0.3499  0.6693
12462TIP3    H158801   1.356   0.786  14.499  0.6815  0.7400  0.5738
12462TIP3    H258802   1.412   0.647  14.518 -0.7774  0.2982  1.7967
12463TIP3   OH258803   4.372   6.593  16.026  0.0176  0.0893 -0.3634
12463TIP3    H158804   4.434   6.524  16.049 -0.5974 -0.4246 -0.2128
12463TIP3    H258805   4.353   6.636  16.110  0.7194  0.7217 -0.5223
12464TIP3   OH258806   5.070   0.289   3.322 -0.2524  0.6656  0.9661
12464TIP3    H158807   4.983   0.265   3.354 -0.4948  0.6774  0.3229
12464TIP3    H258808   5.060   0.380   3.294 -0.1783  0.5005  0.3873
12465TIP3   OH258809   0.892   6.031  16.346 -0.9717  0.1253  0.0008
12465TIP3    H158810   0.967   6.022  16.287 -0.0017 -0.4672  1.2653
12465TIP3    H258811   0.883   6.126  16.358  0.1072  0.1966  0.4354
12466TIP3   OH258812   1.090   4.918   5.831  0.3308  0.5820  0.2294
12466TIP3    H158813   1.146   4.924   5.908 -1.0784  0.4697  1.3052
12466TIP3    H258814   1.141   4.869   5.767  1.8495  1.3819  0.7761
12467TIP3   OH258815   1.510   0.666   0.602 -0.4063 -0.3565  0.0274
12467TIP3    H158816   1.546   0.751   0.625  0.1939  0.2712 -2.8196
12467TIP3    H258817   1.432   0.657   0.657  1.1636  0.5756  2.5974
12468TIP3   OH258818   6.098   2.903  15.547 -0.0052  0.0323  0.0424
12468TIP3    H158819   6.104   2.825  15.601 -1.5690 -2.1787 -2.6811
12468TIP3    H258820   6.187   2.917  15.515  0.6671  0.6079  2.0445
12469TIP3   OH258821   5.274   3.538   6.670  0.3896 -0.5999 -0.0247
12469TIP3    H158822   5.334   3.476   6.629  0.9906  0.4675 -0.8129
12469TIP3    H258823   5.187   3.506   6.647  0.6959 -0.8782 -0.8418
12470TIP3   OH258824   3.407   3.018  15.942 -0.1952  0.2936  0.5371
12470TIP3    H158825   3.425   3.025  15.849 -1.6602 -0.2469  0.1824
12470TIP3    H258826   3.437   3.101  15.979  1.0422  0.2273 -0.2897
12471TIP3   OH258827   3.018   1.888  11.391  0.0003 -0.1214  0.1619
12471TIP3    H158828   3.108   1.905  11.421  0.6657 -0.4712 -1.5267
12471TIP3    H258829   2.976   1.845  11.465  1.0658  0.5208  1.1685
12472TIP3   OH258830   5.262   2.939   4.358 -0.6544  0.3030 -0.2669
12472TIP3    H158831   5.177   2.965   4.393 -0.5700  0.2848 -0.0465
12472TIP3    H258832   5.325   2.960   4.427 -0.4901  0.2316 -0.3912
12473TIP3   OH258833   3.724   4.787   4.127  0.4128  0.3628  0.0529
12473TIP3    H158834   3.657   4.771   4.195  1.2766  0.9813  1.0729
12473TIP3    H258835   3.689   4.859   4.075  0.1783  0.5328  0.4423
12474TIP3   OH258836   3.809   3.894   6.975 -0.1447  0.0881  0.1324
12474TIP3    H158837   3.760   3.827   7.024 -0.0154  0.3932  0.6842
12474TIP3    H258838   3.879   3.920   7.035  1.0447 -0.7378 -0.8525
12475TIP3   OH258839   6.701   3.531   1.820 -0.2784  0.1211  0.3997
12475TIP3    H158840   6.607   3.519   1.805 -0.1482 -0.5553  0.1207
12475TIP3    H258841   6.743   3.503   1.739  0.1510  0.7616  0.3905
12476TIP3   OH258842   4.127   3.743   5.052  0.3456 -0.3771  0.0247
12476TIP3    H158843   4.117   3.823   5.001  0.3454 -1.3598 -1.5812
12476TIP3    H258844   4.215   3.749   5.089  1.7389 -1.0850 -2.8463
12477TIP3   OH258845   1.936   3.506   0.312 -0.3175  0.3077  0.4657
12477TIP3    H158846   1.957   3.482   0.221  0.3909  1.0815  0.4212
12477TIP3    H258847   1.880   3.435   0.342  1.0133 -0.9795  0.0458
12478TIP3   OH258848   3.752   3.706   1.971 -0.3354  0.6002 -0.0755
12478TIP3    H158849   3.659   3.697   1.951 -0.3185 -0.4803  0.2709
12478TIP3    H258850   3.755   3.771   2.040 -1.0643 -0.8795  1.4261
12479TIP3   OH258851   3.375   4.192  13.221  0.5528 -0.5359 -0.4164
12479TIP3    H158852   3.439   4.249  13.263  0.4736 -0.4586 -0.3982
12479TIP3    H258853   3.330   4.149  13.294  0.1448 -0.1034 -0.4052
12480TIP3   OH258854   2.180   6.367  12.630 -0.3875 -0.0338  0.4774
12480TIP3    H158855   2.242   6.296  12.647  2.1058  2.0273  0.6093
12480TIP3    H258856   2.114   6.328  12.573  0.8366 -2.4628  0.5931
12481TIP3   OH258857   1.527   5.601   2.683 -0.1724 -0.3456  0.4021
12481TIP3    H158858   1.490   5.684   2.654 -0.0957 -0.0072  1.2283
12481TIP3    H258859   1.485   5.585   2.768  0.5775 -0.6260  0.7304
12482TIP3   OH258860   5.879   4.860   5.015  0.2994 -0.3132  0.2291
12482TIP3    H158861   5.834   4.777   5.000 -0.4016 -0.0965  1.0607
12482TIP3    H258862   5.925   4.878   4.933  0.2202 -1.3709 -0.0602
12483TIP3   OH258863   3.538   0.098   0.890 -0.0978 -0.1852  0.6814
12483TIP3    H158864   3.442   0.094   0.900 -0.0773 -1.3386  0.6172
12483TIP3    H258865   3.570   0.023   0.941  0.6820 -0.4924 -0.2372
12484TIP3   OH258866   5.968   2.654   1.860  0.5673  0.1806 -0.1952
12484TIP3    H158867   5.873   2.654   1.873  0.4815 -2.2406 -0.3815
12484TIP3    H258868   5.997   2.738   1.896 -1.4989  0.4873  0.9162
12485TIP3   OH258869   6.124   3.281  17.077  0.3053 -0.7677 -0.3138
12485TIP3    H158870   6.052   3.331  17.037 -0.9922 -2.7697 -0.6105
12485TIP3    H258871   6.195   3.288  17.014  0.5824  1.5790  0.1612
12486TIP3   OH258872   3.681   6.291  11.761  0.2784  0.0641  0.4941
12486TIP3    H158873   3.700   6.338  11.680 -1.6936 -0.2349 -0.2056
12486TIP3    H258874   3.714   6.202  11.745 -0.3965 -0.0826 -0.1278
12487TIP3   OH258875   0.824   4.034  16.546  0.6882  0.0778  0.0051
12487TIP3    H158876   0.776   4.108  16.583  0.1068 -0.6999  0.8490
12487TIP3    H258877   0.768   4.001  16.476  0.3133 -0.3707  0.5041
12488TIP3   OH258878   6.636   4.187  11.981  0.4340 -0.4452 -0.4531
12488TIP3    H158879   6.623   4.148  12.067  1.0021 -1.0397 -0.6305
12488TIP3    H258880   6.722   4.229  11.987 -0.2993  1.0889 -0.1616
12489TIP3   OH258881   0.179   3.142   5.880 -0.4587 -0.3228 -1.0328
12489TIP3    H158882   0.191   3.099   5.795  2.9587  0.5753 -1.1521
12489TIP3    H258883   0.222   3.084   5.943 -1.3237 -0.0640 -0.1635
12490TIP3   OH258884   6.765   5.537   4.098  0.4013  0.2215 -0.2071
12490TIP3    H158885   6.764   5.603   4.028  0.9706  1.5781  0.9975
12490TIP3    H258886   6.844   5.486   4.082  1.4450  1.5947  0.3316
12491TIP3   OH258887   3.967   3.435  11.825  0.1789  0.3357  0.6302
12491TIP3    H158888   4.042   3.378  11.811 -1.1960 -1.3729 -0.1190
12491TIP3    H258889   3.958   3.440  11.920 -0.5327 -1.9704  0.7423
12492TIP3   OH258890   1.703   3.457   1.850 -0.0763  0.8217 -0.2767
12492TIP3    H158891   1.689   3.365   1.874  1.2794 -0.0975 -2.6718
12492TIP3    H258892   1.615   3.492   1.840 -0.6306 -0.3949  0.0705
12493TIP3   OH258893   3.334   5.544   6.815 -0.1506 -0.1181 -0.3291
12493TIP3    H158894   3.315   5.624   6.766 -0.6342 -0.3252 -0.4873
12493TIP3    H258895   3.255   5.491   6.805 -0.2789 -0.1430  0.7188
12494TIP3   OH258896   4.485   6.394   3.084  0.0951  0.3330 -0.0155
12494TIP3    H158897   4.449   6.465   3.136  0.3467  1.0724 -0.8308
12494TIP3    H258898   4.447   6.315   3.123 -0.8023  0.9569  0.4208
12495TIP3   OH258899   2.223   3.428   5.392 -0.1949  0.5041  0.2265
12495TIP3    H158900   2.290   3.420   5.460 -1.2150  0.9814  1.3297
12495TIP3    H258901   2.168   3.351   5.404  0.3227 -0.0471 -0.8767
12496TIP3   OH258902   6.339   5.521  17.035  0.3774 -0.0883 -0.1411
12496TIP3    H158903   6.249   5.519  17.002  1.2367 -0.1206 -2.6665
12496TIP3    H258904   6.385   5.581  16.977  1.3953  2.4588  2.9748
12497TIP3   OH258905   5.649   3.040  15.183 -0.0653  0.2650  0.1859
12497TIP3    H158906   5.670   2.997  15.100  0.5222  0.6152  0.1453
12497TIP3    H258907   5.556   3.060  15.177 -0.2036 -0.4459 -0.0487
12498TIP3   OH258908   6.689   2.789   3.398 -0.1925  0.2841  0.3629
12498TIP3    H158909   6.624   2.833   3.452 -0.1987  0.6945  0.0308
12498TIP3    H258910   6.669   2.816   3.309 -0.6441 -0.9899  0.0639
12499TIP3   OH258911   5.366   5.748  14.446 -0.9054 -0.1771  0.5964
12499TIP3    H158912   5.402   5.824  14.400 -2.1913  0.2780  0.3124
12499TIP3    H258913   5.340   5.688  14.376 -1.2921 -0.2232  0.7780
12500TIP3   OH258914   0.811   5.888   1.408  0.6326  0.0059  0.0251
12500TIP3    H158915   0.746   5.869   1.339  0.1734  0.4508  0.3245
12500TIP3    H258916   0.894   5.897   1.360  1.5204 -5.1865  0.0458
12501TIP3   OH258917   4.378   3.027   6.118 -0.4130  0.3025 -0.4069
12501TIP3    H158918   4.291   3.040   6.082 -0.3777  1.2426 -0.1708
12501TIP3    H258919   4.373   3.061   6.207  0.0438 -0.1521 -0.1993
12502TIP3   OH258920   4.717   0.381   4.508 -0.0861  0.4716  0.0892
12502TIP3    H158921   4.644   0.424   4.552 -1.4394  0.8900 -2.4063
12502TIP3    H258922   4.764   0.453   4.465  1.8982  0.2136  1.6278
12503TIP3   OH258923   6.773   5.700  12.285  0.7093 -0.1104  0.3345
12503TIP3    H158924   6.685   5.734  12.266  0.4425 -0.4344  0.9791
12503TIP3    H258925   6.795   5.649  12.207 -0.2011 -1.0753  0.6911
12504TIP3   OH258926   5.195   3.551  12.582  0.1975  0.4591 -0.2274
12504TIP3    H158927   5.193   3.458  12.557 -1.2002  0.2258  0.6503
12504TIP3    H258928   5.159   3.597  12.507 -1.4933  0.0208  0.2732
12505TIP3   OH258929   3.520   1.864  11.689 -0.1962  0.2384  0.4312
12505TIP3    H158930   3.562   1.813  11.620  0.4420 -0.4200  1.2937
12505TIP3    H258931   3.464   1.802  11.735  0.0964  0.4593  1.0922
12506TIP3   OH258932   1.929   0.791  13.909 -0.0657 -0.6310 -0.3234
12506TIP3    H158933   1.967   0.728  13.969  0.3561 -0.2838 -0.2197
12506TIP3    H258934   1.925   0.745  13.825 -0.4572 -1.0421 -0.0834
12507TIP3   OH258935   3.846   4.695  13.755 -0.5462  0.0241 -0.1011
12507TIP3    H158936   3.933   4.687  13.716  0.5026 -0.4631  2.1953
12507TIP3    H258937   3.795   4.742  13.689  0.5903 -2.1682 -2.7730
12508TIP3   OH258938   3.967   3.576  13.351 -0.1609  0.0777 -0.0781
12508TIP3    H158939   4.002   3.663  13.371 -0.5575  0.4114 -0.8046
12508TIP3    H258940   3.954   3.535  13.436  1.3163  0.2071  0.2433
12509TIP3   OH258941   6.388   6.435   0.831 -0.4820  0.4078  0.2146
12509TIP3    H158942   6.406   6.393   0.746 -0.6193  0.0340  0.3674
12509TIP3    H258943   6.402   6.366   0.895 -1.7391  0.2945  0.3977
12510TIP3   OH258944   2.130   3.817   3.305  0.5449 -0.0808  0.1605
12510TIP3    H158945   2.145   3.798   3.397 -1.7408 -1.5401  0.3203
12510TIP3    H258946   2.161   3.739   3.259 -0.2631 -0.2739 -0.0784
12511TIP3   OH258947   0.473   5.223  14.606  0.5347 -0.3562 -0.2024
12511TIP3    H158948   0.502   5.200  14.694  0.5828 -0.4383 -0.2399
12511TIP3    H258949   0.405   5.290  14.619  0.4053 -0.5073 -0.0938
12512TIP3   OH258950   0.336   3.332   2.808 -0.8007 -0.2645  0.0963
12512TIP3    H158951   0.280   3.262   2.775  0.3438 -0.5247 -1.3813
12512TIP3    H258952   0.393   3.355   2.735 -1.0605  2.1694  0.5402
12513TIP3   OH258953   4.373   1.138  14.904  0.3397  0.3966  0.4143
12513TIP3    H158954   4.294   1.085  14.898  0.1500  0.6454  0.6701
12513TIP3    H258955   4.377   1.166  14.995  1.7420 -1.1386  0.8625
12514TIP3   OH258956   0.056   1.863  16.006 -0.0947 -0.1172 -0.1410
12514TIP3    H158957   0.002   1.784  16.012 -0.6732  0.1621 -1.2788
12514TIP3    H258958   0.069   1.875  15.912  1.8545 -0.0836  0.0905
12515TIP3   OH258959   3.767   6.536  14.738 -0.1236 -0.1713 -0.1170
12515TIP3    H158960   3.732   6.591  14.667 -0.7141  0.7554  0.8665
12515TIP3    H258961   3.746   6.446  14.711  1.4246 -0.0070 -2.0658
12516TIP3   OH258962   4.948   0.687   2.022  0.1692 -0.2777  0.5367
12516TIP3    H158963   5.013   0.656   1.960 -0.6010  1.3031 -1.1546
12516TIP3    H258964   4.987   0.671   2.108  1.8680 -1.2411 -0.3734
12517TIP3   OH258965   1.804   6.408  16.677 -0.0062 -0.5751 -0.2975
12517TIP3    H158966   1.787   6.472  16.608  0.4662  0.0006  0.1156
12517TIP3    H258967   1.734   6.422  16.741  0.0167 -0.5731 -0.2736
12518TIP3   OH258968   0.171   1.205   2.970 -0.6249  0.0638 -0.2567
12518TIP3    H158969   0.252   1.161   2.945 -0.8175  0.1739 -1.0903
12518TIP3    H258970   0.147   1.165   3.055 -2.0650 -3.2328 -2.0001
12519TIP3   OH258971   4.985   2.974  14.969 -0.3509 -0.2458  0.0028
12519TIP3    H158972   4.932   2.919  14.911 -1.3553 -0.2684  0.9119
12519TIP3    H258973   5.058   3.004  14.914 -1.7427  0.4765 -1.5337
12520TIP3   OH258974   2.965   4.061   1.519 -0.0897 -0.2443  0.4618
12520TIP3    H158975   2.905   4.056   1.594  0.0168 -2.7609  0.4352
12520TIP3    H258976   3.024   3.988   1.531 -0.4385 -1.1059 -2.4134
12521TIP3   OH258977   3.898   4.746   0.743 -0.0739 -0.0563 -0.3136
12521TIP3    H158978   3.918   4.767   0.652 -1.9746 -1.4129 -1.0978
12521TIP3    H258979   3.809   4.713   0.741 -0.3517  0.3593  2.1414
12522TIP3   OH258980   2.143   2.360  15.087  0.4927 -0.2800  0.3542
12522TIP3    H158981   2.065   2.332  15.037  1.4251 -0.8780 -0.8307
12522TIP3    H258982   2.200   2.283  15.087  0.7085 -0.1562  2.0375
12523TIP3   OH258983   5.079   4.954  14.146 -0.1673  0.8192  0.0597
12523TIP3    H158984   5.113   5.015  14.081  1.2704 -0.2312 -0.2032
12523TIP3    H258985   5.029   4.890  14.096  1.3262 -0.2574 -0.1086
12524TIP3   OH258986   0.331   2.186   5.477  0.0876 -0.4149 -0.4941
12524TIP3    H158987   0.304   2.129   5.549 -1.9098  0.6597 -0.3230
12524TIP3    H258988   0.289   2.148   5.400 -1.7797  1.0702 -0.2868
12525TIP3   OH258989   3.817   3.724   1.603  0.2982 -0.2626 -0.0806
12525TIP3    H158990   3.755   3.655   1.581  1.2802 -1.2856  0.2903
12525TIP3    H258991   3.903   3.682   1.600  1.0089  1.1433 -0.7026
12526TIP3   OH258992   2.886   3.311   2.642  0.1140  0.3051 -0.0181
12526TIP3    H158993   2.818   3.262   2.688  0.2545  0.4396  0.3370
12526TIP3    H258994   2.888   3.396   2.686 -2.2302  1.7998 -2.5474
12527TIP3   OH258995   5.734   6.625   4.625 -0.2492  0.1906  0.2453
12527TIP3    H158996   5.772   6.710   4.644  1.9180 -0.8758  0.9675
12527TIP3    H258997   5.732   6.621   4.529  0.6591  0.6384  0.1972
12528TIP3   OH258998   2.100   1.008   0.457 -0.0555  0.2929 -0.1431
12528TIP3    H158999   2.117   0.920   0.489 -0.2537 -0.1592 -1.2408
12528TIP3    H259000   2.186   1.044   0.436 -0.0178  0.1567 -0.2188
12529TIP3   OH259001   6.304   0.837  17.082 -0.3832  0.1347 -0.1801
12529TIP3    H159002   6.294   0.786  17.001  1.3590  0.9668 -0.9950
12529TIP3    H259003   6.245   0.796  17.144 -0.7050 -1.4580 -1.4606
12530TIP3   OH259004   4.271   1.683   4.410  0.4168 -0.0596  0.5042
12530TIP3    H159005   4.318   1.614   4.364  0.9643  0.2100  0.6435
12530TIP3    H259006   4.306   1.679   4.499 -0.2392 -0.2230  0.7645
12531TIP3   OH259007   1.993   0.653   4.770  0.3384  0.4890 -0.5209
12531TIP3    H159008   2.024   0.645   4.861 -1.8571  1.2680  0.3611
12531TIP3    H259009   2.027   0.737   4.741  0.4398  0.5733 -0.1695
12532TIP3   OH259010   4.993   5.099  13.395  0.4322  0.3571 -0.3319
12532TIP3    H159011   5.050   5.108  13.318  0.1604  0.9252 -0.4799
12532TIP3    H259012   4.960   5.010  13.390 -0.7985  0.8397 -1.7659
12533TIP3   OH259013   5.156   4.008   4.454  0.6087  0.3898  0.8040
12533TIP3    H159014   5.122   3.997   4.365  1.0339  2.1071  0.3941
12533TIP3    H259015   5.085   3.975   4.510 -1.2285  2.5366 -0.0766
12534TIP3   OH259016   5.123   5.238   0.536 -0.1211  0.1051  0.2308
12534TIP3    H159017   5.140   5.152   0.575 -0.5081 -0.5223 -0.9460
12534TIP3    H259018   5.029   5.237   0.516  0.4460 -0.4857 -2.7417
12535TIP3   OH259019   2.997   3.350   4.429 -0.2956  0.2232  0.2269
12535TIP3    H159020   2.929   3.283   4.420 -0.8303  0.6196  1.2591
12535TIP3    H259021   3.060   3.328   4.360 -1.0130 -0.6790 -0.1699
12536TIP3   OH259022   4.257   2.772   4.625  0.6969  0.0681 -0.8338
12536TIP3    H159023   4.218   2.728   4.550 -1.3141  0.2566  0.0355
12536TIP3    H259024   4.322   2.831   4.588  1.2070 -1.3137 -2.2467
12537TIP3   OH259025   1.549   4.469   2.768  0.0704 -0.0431 -0.2082
12537TIP3    H159026   1.479   4.470   2.833  1.4356 -1.1445  1.3517
12537TIP3    H259027   1.532   4.390   2.716  1.5526 -1.8046  1.8538
12538TIP3   OH259028   6.527   1.717   0.642 -0.4719  0.9698  0.1571
12538TIP3    H159029   6.568   1.632   0.629  1.0206  1.4552  1.3646
12538TIP3    H259030   6.492   1.712   0.732  0.7040  2.0223  0.6955
12539TIP3   OH259031   1.607   4.885  16.923 -0.2600  0.5238 -0.4216
12539TIP3    H159032   1.541   4.832  16.967 -1.0249  0.4341 -1.6475
12539TIP3    H259033   1.690   4.858  16.963 -0.6815 -1.2501 -0.6852
12540TIP3   OH259034   6.573   5.809  13.115  0.3336 -0.4162 -0.2659
12540TIP3    H159035   6.485   5.834  13.141 -1.1488 -3.0841 -2.2514
12540TIP3    H259036   6.590   5.857  13.034  0.5798 -0.1671 -0.0694
12541TIP3   OH259037   5.145   2.823   4.028  0.1995  0.0212 -0.0895
12541TIP3    H159038   5.127   2.754   4.092 -1.6541  1.9107  1.5611
12541TIP3    H259039   5.238   2.843   4.040  0.0380 -0.1040  1.5699
12542TIP3   OH259040   0.270   0.052  17.064  0.1998 -0.4880 -0.5406
12542TIP3    H159041   0.346   0.018  17.112 -0.2412 -0.3799  0.2616
12542TIP3    H259042   0.266  -0.001  16.984  1.3064 -0.2757 -0.7571
12543TIP3   OH259043   3.078   4.420   6.174 -0.0814  0.1477  0.4307
12543TIP3    H159044   3.122   4.491   6.220  2.1569  0.5597 -2.1306
12543TIP3    H259045   3.038   4.462   6.098 -1.0801 -0.9741  0.2967
12544TIP3   OH259046   5.762   6.502   2.285  0.4618  0.2830 -0.0757
12544TIP3    H159047   5.709   6.463   2.354 -2.0635 -0.3269 -2.1517
12544TIP3    H259048   5.847   6.459   2.291  0.6038  0.7947  3.0054
12545TIP3   OH259049   6.021   5.503  15.394  0.4523 -0.1383 -0.1735
12545TIP3    H159050   6.101   5.459  15.423  0.6663  1.3951  1.8484
12545TIP3    H259051   6.028   5.591  15.431 -1.1930  0.7243 -1.7753
12546TIP3   OH259052   3.265   3.617  12.992  0.7138  0.2747 -0.3561
12546TIP3    H159053   3.261   3.530  13.033 -0.8201  0.1687 -0.6970
12546TIP3    H259054   3.174   3.641  12.977  1.1722  1.2290 -1.8064
12547TIP3   OH259055   3.436   0.708   2.811  0.4437  0.2134  0.1170
12547TIP3    H159056   3.388   0.787   2.838 -0.5511 -0.4239  0.2787
12547TIP3    H259057   3.445   0.657   2.892  0.4665 -0.1567 -0.1161
12548TIP3   OH259058   2.802   2.454   2.763  0.1022 -0.2177  0.2488
12548TIP3    H159059   2.802   2.485   2.672 -0.4795 -2.0599 -0.4134
12548TIP3    H259060   2.723   2.493   2.802  0.7649  1.2162  0.2360
12549TIP3   OH259061   3.461   6.352   0.941 -0.0910 -0.9383 -0.2944
12549TIP3    H159062   3.492   6.417   0.877 -0.9795  0.7156  0.8791
12549TIP3    H259063   3.445   6.403   1.021 -0.1430 -2.7454  0.9049
12550TIP3   OH259064   6.439   2.993   5.285  0.1275  0.0364 -0.2295
12550TIP3    H159065   6.353   3.036   5.286  0.1983  0.1834 -0.3912
12550TIP3    H259066   6.439   2.937   5.363 -0.6563 -1.0483 -0.9775
12551TIP3   OH259067   5.929   6.016   4.468 -0.2444  0.1567 -0.2783
12551TIP3    H159068   5.883   5.937   4.439 -0.4215  0.5685 -1.1506
12551TIP3    H259069   5.903   6.027   4.559 -1.8847  0.3789 -0.7484
12552TIP3   OH259070   1.718   0.677   2.511  0.6073 -0.2492  0.6866
12552TIP3    H159071   1.686   0.743   2.572  0.0181 -0.8653  1.0604
12552TIP3    H259072   1.676   0.596   2.539 -1.2434 -0.2210 -1.6889
12553TIP3   OH259073   1.621   6.547   4.447 -0.0313 -0.2951 -0.1928
12553TIP3    H159074   1.613   6.452   4.454  0.3032 -0.5055 -2.0553
12553TIP3    H259075   1.715   6.564   4.454 -0.1080 -0.0744  0.3361
12554TIP3   OH259076   0.325   1.031  13.780  0.8053  0.5320 -0.3516
12554TIP3    H159077   0.396   1.042  13.844  1.7765  1.0803 -1.5021
12554TIP3    H259078   0.281   0.950  13.808  1.6332  0.3884  0.6058
12555TIP3   OH259079   2.521   2.375   4.167 -0.4338  0.3264 -0.1692
12555TIP3    H159080   2.438   2.341   4.201  0.6844 -0.3479  2.0878
12555TIP3    H259081   2.577   2.382   4.244  0.8499  3.1324 -1.2378
12556TIP3   OH259082   4.073   2.007  16.189 -0.5274  0.0147 -0.5896
12556TIP3    H159083   4.121   1.982  16.110 -0.3151  1.6512 -1.0089
12556TIP3    H259084   4.002   2.062  16.158  0.1000  1.4621  0.3985
12557TIP3   OH259085   5.443   0.014   2.602 -0.3684  0.3830 -0.0276
12557TIP3    H159086   5.525  -0.011   2.643 -1.0855 -1.4382  0.4123
12557TIP3    H259087   5.390   0.048   2.674 -1.0308 -1.2737  0.3356
12558TIP3   OH259088   2.848   1.371   5.281 -0.5731 -0.1031  0.0932
12558TIP3    H159089   2.937   1.378   5.248 -0.4686 -0.4645  0.2861
12558TIP3    H259090   2.840   1.279   5.307 -0.5014  0.2441  1.4467
12559TIP3   OH259091   0.106   5.346   3.507 -0.1593  0.3466  0.4578
12559TIP3    H159092   0.041   5.282   3.479  0.7721  0.0945 -1.2574
12559TIP3    H259093   0.173   5.293   3.552  0.3232  0.1713 -0.4454
12560TIP3   OH259094   2.246   1.565   3.776  0.1389  0.2810 -0.0976
12560TIP3    H159095   2.214   1.653   3.794  0.3333  0.2077  0.6424
12560TIP3    H259096   2.318   1.553   3.838 -0.7217 -0.8857  0.7066
12561TIP3   OH259097   3.274   6.304   4.985 -0.2396 -0.1762  0.2738
12561TIP3    H159098   3.209   6.288   5.052 -1.5874 -0.9832 -1.1604
12561TIP3    H259099   3.264   6.397   4.964  1.0645  0.4071  2.0039
12562TIP3   OH259100   4.058   4.644  13.592  0.2466 -0.2556 -0.2928
12562TIP3    H159101   4.096   4.558  13.610  2.4300  0.8942  1.0354
12562TIP3    H259102   4.134   4.703  13.585 -1.2026  1.7452 -0.0486
12563TIP3   OH259103   6.229   0.279  13.996 -0.1599 -0.0321  0.0548
12563TIP3    H159104   6.198   0.204  13.945 -0.1456  0.6656 -1.0121
12563TIP3    H259105   6.174   0.352  13.968 -1.0343  0.1123  2.0376
12564TIP3   OH259106   2.571   4.065   4.250 -0.1492 -0.2743  0.2205
12564TIP3    H159107   2.517   4.043   4.174  0.4174 -1.5664  0.1634
12564TIP3    H259108   2.648   4.108   4.213 -0.8006  0.9541  0.2479
12565TIP3   OH259109   5.275   6.189  14.755 -0.1579 -0.0711 -0.3355
12565TIP3    H159110   5.281   6.123  14.824 -0.9395 -0.3837 -0.5632
12565TIP3    H259111   5.261   6.271  14.803  1.9962  0.1607  0.0245
12566TIP3   OH259112   0.353   6.350   2.611  0.2901  0.3045  0.5006
12566TIP3    H159113   0.311   6.385   2.689  0.3037 -0.6401  0.9422
12566TIP3    H259114   0.420   6.415   2.589  0.0802  0.7254  1.0842
12567TIP3   OH259115   0.517   4.443  13.563  0.5749  0.2744 -0.2455
12567TIP3    H159116   0.443   4.388  13.537  1.4731 -0.1052 -2.1684
12567TIP3    H259117   0.530   4.422  13.656 -1.7920  0.4838  0.1913
12568TIP3   OH259118   6.506   6.423  11.297  0.0450  0.1248  0.1020
12568TIP3    H159119   6.413   6.410  11.317  0.5599 -1.1881  1.8155
12568TIP3    H259120   6.522   6.516  11.315 -0.7437  0.1761  0.5834
12569TIP3   OH259121   0.748   3.821   5.625 -0.3656 -0.1132  0.2091
12569TIP3    H159122   0.841   3.799   5.628 -0.3331 -0.0230 -0.0636
12569TIP3    H259123   0.729   3.859   5.711  0.4054  2.0400 -0.5077
12570TIP3   OH259124   5.071   5.656  15.682 -0.2356 -0.4118  0.0634
12570TIP3    H159125   5.054   5.729  15.622  0.2100 -0.4967 -0.1719
12570TIP3    H259126   5.007   5.668  15.752 -1.4789 -0.9070 -0.9398
12571TIP3   OH259127   1.821   1.217   1.651 -0.4186 -0.2879 -0.0311
12571TIP3    H159128   1.760   1.256   1.589 -0.8711 -0.1346  0.5064
12571TIP3    H259129   1.896   1.190   1.597 -1.2621 -1.1525 -0.8137
12572TIP3   OH259130   5.820   3.217  13.315 -0.6636  0.2118 -0.3260
12572TIP3    H159131   5.886   3.268  13.363 -1.9594  0.5747  1.1799
12572TIP3    H259132   5.794   3.274  13.242 -1.9189  1.7288  1.1923
12573TIP3   OH259133   3.531   0.020   1.966  0.6483  0.4075  0.3357
12573TIP3    H159134   3.492   0.082   1.904  2.5492  2.1051  0.7416
12573TIP3    H259135   3.619   0.053   1.981  0.7410 -0.7581  2.8511
12574TIP3   OH259136   2.206   4.106  13.328 -0.3759 -0.2199  0.0528
12574TIP3    H159137   2.160   4.029  13.362 -0.7390  0.0637  0.2199
12574TIP3    H259138   2.258   4.138  13.402 -2.5540  1.4647  0.9890
12575TIP3   OH259139   1.272   4.526   0.977  0.0024 -0.3910 -0.1264
12575TIP3    H159140   1.213   4.456   1.005  1.3188 -1.7156 -0.5334
12575TIP3    H259141   1.359   4.485   0.979  1.1443  1.8914  1.9130
12576TIP3   OH259142   0.613   3.908  15.592 -0.2103 -0.0318 -0.2104
12576TIP3    H159143   0.627   3.905  15.687  1.8747 -1.7265 -0.5002
12576TIP3    H259144   0.582   3.997  15.576 -1.1192  0.1534  2.0919
12577TIP3   OH259145   3.354   0.180   2.367 -0.5260 -0.1789 -0.1046
12577TIP3    H159146   3.341   0.088   2.392 -1.9921 -0.2338 -0.9717
12577TIP3    H259147   3.396   0.220   2.444 -1.1572 -1.2472  0.8287
12578TIP3   OH259148   3.517   4.849   0.375 -0.1793 -0.1149  0.5309
12578TIP3    H159149   3.570   4.900   0.436  1.3030 -0.7289 -0.2005
12578TIP3    H259150   3.514   4.762   0.413 -0.1334 -0.2379  0.2505
12579TIP3   OH259151   2.477   6.268   0.745 -0.1899 -0.0612  0.5074
12579TIP3    H159152   2.424   6.332   0.699 -0.5227 -0.2064  0.6904
12579TIP3    H259153   2.438   6.183   0.722  0.6972 -0.2602 -0.3392
12580TIP3   OH259154   1.366   3.006  15.656  0.1333  0.4478  0.0947
12580TIP3    H159155   1.457   3.033  15.667 -0.0288  1.4189 -0.8049
12580TIP3    H259156   1.341   3.040  15.570 -0.4127 -1.7106 -0.6621
12581TIP3   OH259157   2.131   1.299   4.358  0.3172 -0.2374 -0.0634
12581TIP3    H159158   2.099   1.297   4.448 -0.8854  1.0907 -0.4158
12581TIP3    H259159   2.218   1.260   4.362  0.9657  1.2467  1.9802
12582TIP3   OH259160   3.746   3.278  16.440  0.6645 -0.3556 -0.0140
12582TIP3    H159161   3.671   3.306  16.387  1.3107 -0.3806 -0.9753
12582TIP3    H259162   3.766   3.190  16.408  1.2637 -0.2466  0.0550
12583TIP3   OH259163   2.235   3.490  15.759  0.5855  0.2472 -0.0796
12583TIP3    H159164   2.289   3.415  15.781  0.7158  0.1297 -0.7643
12583TIP3    H259165   2.145   3.460  15.775  0.5791 -0.3603 -1.1759
12584TIP3   OH259166   1.502   4.558  12.598  0.3515  0.5636 -0.2833
12584TIP3    H159167   1.542   4.566  12.512 -2.0281  1.2868 -1.4239
12584TIP3    H259168   1.555   4.494  12.644  3.8228  2.7316 -0.9332
12585TIP3   OH259169   5.938   3.868  13.470 -0.3345  0.1061  0.5324
12585TIP3    H159170   5.925   3.868  13.564 -1.6407 -0.8333  0.3772
12585TIP3    H259171   5.850   3.857  13.433  0.0004  1.6116 -0.8310
12586TIP3   OH259172   5.009   5.844   0.358 -0.2367 -0.1104  0.6078
12586TIP3    H159173   5.079   5.910   0.358 -0.6398  0.3324  1.4211
12586TIP3    H259174   4.932   5.891   0.390  0.2930 -1.7880  5.0219
12587TIP3   OH259175   2.881   4.184   3.076 -0.0320  0.2239 -0.3358
12587TIP3    H159176   2.826   4.116   3.036  2.2399 -0.9655 -1.6198
12587TIP3    H259177   2.923   4.228   3.002  1.9574  0.0172  0.6101
12588TIP3   OH259178   3.733   0.133  11.433  0.6123  0.6161 -0.1341
12588TIP3    H159179   3.799   0.200  11.418 -1.1926  2.1429 -1.8540
12588TIP3    H259180   3.650   0.175  11.409 -0.9303 -1.4203  1.2405
12589TIP3   OH259181   1.963   4.704  14.979 -0.4115  0.1878 -0.0483
12589TIP3    H159182   2.027   4.772  14.998 -0.1232  0.2109 -1.0412
12589TIP3    H259183   2.009   4.622  14.998 -0.6640  0.2468  0.8710
12590TIP3   OH259184   5.553   1.969  15.220 -0.2796  0.1553  0.2119
12590TIP3    H159185   5.519   1.909  15.287 -1.4975  0.6791  0.0851
12590TIP3    H259186   5.550   1.919  15.139 -0.3786  0.0703  0.2685
12591TIP3   OH259187   0.589   3.356  14.299  0.1404  0.2736  0.2479
12591TIP3    H159188   0.670   3.355  14.249  0.2328  1.0186  0.3805
12591TIP3    H259189   0.607   3.414  14.373 -0.3240 -0.0184  0.5983
12592TIP3   OH259190   1.473   1.786   6.911  0.4141  0.5528 -0.0129
12592TIP3    H159191   1.512   1.827   6.833  0.7767 -0.8306 -0.5869
12592TIP3    H259192   1.388   1.828   6.919  1.0003  1.8503 -0.2091
12593TIP3   OH259193   1.676   5.773  13.814 -0.3336  0.6360  0.1367
12593TIP3    H159194   1.756   5.824  13.818 -0.8089  1.3121  1.5242
12593TIP3    H259195   1.706   5.682  13.815  0.4168  0.8793  0.7297
12594TIP3   OH259196   1.872   1.629   4.956  0.2129  0.5086 -0.5631
12594TIP3    H159197   1.941   1.647   4.892  0.1243 -0.1612 -0.8591
12594TIP3    H259198   1.792   1.659   4.913  0.2846  1.0497 -0.3236
12595TIP3   OH259199   6.588   0.146   5.499 -0.1565  0.6557 -0.7050
12595TIP3    H159200   6.596   0.149   5.595 -2.7961 -3.0512 -0.1426
12595TIP3    H259201   6.664   0.096   5.470 -0.3058  0.1790 -0.2894
12596TIP3   OH259202   1.123   1.015  15.038 -0.0006 -0.4284  0.1788
12596TIP3    H159203   1.157   1.094  14.995 -1.3591 -0.3658 -0.8758
12596TIP3    H259204   1.064   1.049  15.106 -1.0288 -0.4972 -0.6496
12597TIP3   OH259205   4.342   4.321  15.103  0.1226 -0.5864 -0.0609
12597TIP3    H159206   4.279   4.249  15.110 -0.3768 -0.1696 -0.1797
12597TIP3    H259207   4.333   4.351  15.012  1.5869 -1.4990 -0.5354
12598TIP3   OH259208   0.060   0.759  11.314 -0.6195  0.2039 -0.0486
12598TIP3    H159209   0.085   0.845  11.279 -1.2830 -0.7401 -3.0751
12598TIP3    H259210   0.107   0.754  11.397  0.1224  3.1307 -0.1532
12599TIP3   OH259211   6.212   4.246   1.360  0.0185  0.1849  0.2672
12599TIP3    H159212   6.287   4.188   1.373  1.0689  1.3332 -0.4793
12599TIP3    H259213   6.187   4.233   1.268 -0.3335  0.2501  0.3510
12600TIP3   OH259214   4.503   2.596   0.799  0.5561  0.1722 -0.4819
12600TIP3    H159215   4.565   2.635   0.861  0.2456 -0.5955  0.3290
12600TIP3    H259216   4.547   2.602   0.714  2.5731 -1.9959  0.3079
12601TIP3   OH259217   0.717   6.718  14.881  0.1406 -0.0095 -0.1109
12601TIP3    H159218   0.663   6.731  14.959 -1.7079 -0.5249 -1.2386
12601TIP3    H259219   0.803   6.693  14.915 -0.4093  0.4796  1.7546
12602TIP3   OH259220   2.284   1.695   3.294 -0.3248  0.1486  0.2681
12602TIP3    H159221   2.356   1.646   3.333 -0.0276 -0.3678 -0.8958
12602TIP3    H259222   2.315   1.786   3.293  0.4988 -0.1273 -0.6085
12603TIP3   OH259223   1.084   4.514  14.160 -0.7562  0.4763  0.1674
12603TIP3    H159224   1.112   4.423  14.159 -2.1085  0.0068 -2.4802
12603TIP3    H259225   1.050   4.528  14.249  0.4006 -1.2622  0.9182
12604TIP3   OH259226   5.174   4.631  14.585  0.6050 -0.0596  0.0694
12604TIP3    H159227   5.269   4.645  14.585  0.5719  0.3672 -1.2237
12604TIP3    H259228   5.140   4.699  14.643  0.8997  1.6943 -1.6961
12605TIP3   OH259229   2.657   3.409  14.264  0.0773  0.7109  0.0392
12605TIP3    H159230   2.686   3.444  14.180  1.0195  0.9102  0.4339
12605TIP3    H259231   2.734   3.364  14.299 -0.5781 -0.1738  0.3775
12606TIP3   OH259232   1.530   6.723   2.854 -0.1253 -0.1725  0.5837
12606TIP3    H159233   1.563   6.779   2.784  0.1636 -0.7628  0.2384
12606TIP3    H259234   1.487   6.783   2.915 -0.5053  0.3314 -0.1676
12607TIP3   OH259235   5.629   1.217  13.326 -0.4501  1.1169  0.2316
12607TIP3    H159236   5.691   1.264  13.270 -0.7826  0.2724 -0.8820
12607TIP3    H259237   5.548   1.267  13.320 -0.8011  0.4408 -0.9453
12608TIP3   OH259238   0.077   0.849   4.688  0.0876  0.7647  0.1125
12608TIP3    H159239   0.129   0.834   4.767  1.2789  1.8665 -0.4242
12608TIP3    H259240   0.136   0.826   4.616 -1.2105 -0.8694 -0.4640
12609TIP3   OH259241   0.013   1.919   6.210 -0.0980 -0.3163  0.2038
12609TIP3    H159242   0.056   1.878   6.285 -0.4570  1.2878  1.3274
12609TIP3    H259243  -0.081   1.906   6.226 -0.1559 -1.4460 -0.8681
12610TIP3   OH259244   5.815   3.304   1.057  0.3247  0.0580  0.1171
12610TIP3    H159245   5.760   3.373   1.094  1.8919  1.8473 -0.7157
12610TIP3    H259246   5.863   3.268   1.132 -1.2039 -0.8625  0.7007
12611TIP3   OH259247   4.881   0.241  16.298 -0.3251  0.3608  0.2286
12611TIP3    H159248   4.921   0.252  16.385 -0.5176 -1.5825  0.6039
12611TIP3    H259249   4.913   0.157  16.267 -1.1917  0.4869 -1.0854
12612TIP3   OH259250   2.661   1.340  15.027 -0.2578 -0.0906 -0.0701
12612TIP3    H159251   2.608   1.373  14.954 -1.4753 -2.0282 -0.1276
12612TIP3    H259252   2.729   1.287  14.986  0.9833  1.2997  0.0868
12613TIP3   OH259253   0.943   4.093  15.381  0.6637  0.0762 -0.3151
12613TIP3    H159254   0.929   4.021  15.442  0.3485  0.2714 -0.1548
12613TIP3    H259255   0.976   4.050  15.301  1.4291 -0.1373  0.1074
12614TIP3   OH259256   4.117   2.333   3.438 -0.3762  0.7182 -1.3517
12614TIP3    H159257   4.086   2.393   3.506  0.6968  0.1743 -0.3311
12614TIP3    H259258   4.185   2.383   3.392 -0.0029  0.5585 -0.9843
12615TIP3   OH259259   1.551   5.047   0.586 -0.3315  0.0021 -0.6531
12615TIP3    H159260   1.522   5.138   0.579  3.6880  1.4793 -0.6854
12615TIP3    H259261   1.613   5.036   0.514  0.7728 -2.1378  0.5206
12616TIP3   OH259262   4.439   3.581   2.970  0.7292  0.4969  0.4060
12616TIP3    H159263   4.346   3.602   2.981 -0.5079 -3.8918  0.4823
12616TIP3    H259264   4.476   3.589   3.058  0.1579  1.2084  0.5927
12617TIP3   OH259265   4.918   3.662  15.393  0.1346  0.0044  0.1852
12617TIP3    H159266   4.844   3.717  15.369  0.7715  0.6478 -0.3579
12617TIP3    H259267   4.903   3.579  15.349 -0.6046 -0.1144  0.6421
12618TIP3   OH259268   3.677   4.952  14.342 -0.1438  0.0694  0.0014
12618TIP3    H159269   3.616   4.955  14.268 -1.4833  0.3273  1.0948
12618TIP3    H259270   3.660   4.867  14.383  0.4601  0.0163  0.1546
12619TIP3   OH259271   6.018   4.302  11.994  0.2344 -0.8387  0.2316
12619TIP3    H159272   6.110   4.276  11.990  0.7887  0.8320  1.3190
12619TIP3    H259273   6.000   4.339  11.908 -0.0204 -2.8624 -0.6617
12620TIP3   OH259274   3.633   6.068   4.170  0.3779 -0.6637 -0.0872
12620TIP3    H159275   3.572   6.084   4.242  1.4656  1.2955  0.4626
12620TIP3    H259276   3.585   6.094   4.091  1.4708  4.4631  0.6095
12621TIP3   OH259277   2.435   4.945   0.210 -0.2011 -0.4148  0.2112
12621TIP3    H159278   2.519   4.959   0.167  0.1132 -1.0442  0.5900
12621TIP3    H259279   2.415   4.853   0.193  0.3392 -0.9184  2.0709
12622TIP3   OH259280   0.066   2.420   0.116  0.2784 -0.3199 -0.6046
12622TIP3    H159281   0.116   2.425   0.197  0.7035 -2.4731 -0.6842
12622TIP3    H259282  -0.001   2.355   0.133  1.7286 -2.5083 -2.5858
12623TIP3   OH259283   1.731   3.749  13.354 -0.6227  0.0691 -0.3216
12623TIP3    H159284   1.734   3.845  13.354 -2.1860  0.1332 -0.1038
12623TIP3    H259285   1.815   3.723  13.392 -0.3636  1.3550  0.0464
12624TIP3   OH259286   5.019   3.126   5.682 -0.0590 -0.3548  0.3230
12624TIP3    H159287   4.969   3.115   5.762  1.5257  0.0627  1.4236
12624TIP3    H259288   5.108   3.098   5.705  0.9357  1.7777 -0.6510
12625TIP3   OH259289   0.384   4.402   4.033 -0.4403  0.3147 -0.3260
12625TIP3    H159290   0.331   4.476   4.002 -0.4244  0.4541 -0.0288
12625TIP3    H259291   0.442   4.441   4.098  0.8065  0.3764 -1.4414
12626TIP3   OH259292   2.367   3.093  14.936  0.3429  0.0504  0.1165
12626TIP3    H159293   2.284   3.118  14.896 -0.9971 -2.1851  1.2661
12626TIP3    H259294   2.344   3.073  15.027  1.7696 -2.1035  0.0790
12627TIP3   OH259295   5.462   5.712  12.076  0.1437 -0.1062  0.2401
12627TIP3    H159296   5.398   5.723  12.146 -0.5067 -1.5402 -0.1149
12627TIP3    H259297   5.419   5.655  12.013  1.8950 -1.4257  0.1738
12628TIP3   OH259298   3.237   4.869  11.759 -0.0700  0.4409  0.1254
12628TIP3    H159299   3.275   4.793  11.713  0.3459 -0.1035  1.3397
12628TIP3    H259300   3.160   4.891  11.707 -0.1231 -0.7327 -0.3417
12629TIP3   OH259301   1.955   0.113   2.622 -0.4236  0.3261 -0.3614
12629TIP3    H159302   1.978   0.169   2.696 -0.2846  0.6321 -0.6369
12629TIP3    H259303   2.038   0.073   2.595 -0.3157  0.9393 -0.9490
12630TIP3   OH259304   4.466   0.725  16.710  0.5178 -0.2772 -0.3813
12630TIP3    H159305   4.478   0.772  16.792 -1.3694 -1.2263  0.5037
12630TIP3    H259306   4.405   0.654  16.732  0.0686 -0.6327 -2.5713
12631TIP3   OH259307   2.395   0.796   3.287 -0.0336  0.0354  0.2599
12631TIP3    H159308   2.336   0.746   3.344 -1.9854  2.4919  0.5801
12631TIP3    H259309   2.338   0.833   3.219  0.8886  3.0850  0.9582
12632TIP3   OH259310   0.516   0.253   3.077  0.6186  0.1240 -0.0568
12632TIP3    H159311   0.481   0.174   3.037  0.8126 -0.1203  0.2456
12632TIP3    H259312   0.596   0.224   3.121  0.2655  0.3164  0.7434
12633TIP3   OH259313   0.298   6.142   3.146  0.1592  0.1428 -0.3799
12633TIP3    H159314   0.234   6.074   3.167  0.0481 -0.0297 -1.2490
12633TIP3    H259315   0.284   6.161   3.053  0.9702  0.5248 -0.4352
12634TIP3   OH259316   6.380   0.166  16.818 -0.2132 -0.5054 -0.5158
12634TIP3    H159317   6.392   0.102  16.888 -1.5832 -0.7474 -0.4721
12634TIP3    H259318   6.403   0.117  16.738 -0.9686 -0.9776 -0.4545
12635TIP3   OH259319   4.367   1.653   0.958 -0.0731 -0.2018  0.1830
12635TIP3    H159320   4.381   1.701   1.040  1.2343 -1.2343  0.6128
12635TIP3    H259321   4.304   1.584   0.982 -1.6777  1.0231 -0.3475
12636TIP3   OH259322   5.609   1.984  12.858 -0.4730  0.2463  0.1100
12636TIP3    H159323   5.549   1.969  12.785 -0.6766  0.6596  0.1895
12636TIP3    H259324   5.632   2.077  12.851  3.0188 -0.6021 -2.1264
12637TIP3   OH259325   3.152   6.163   2.048 -0.1422 -0.5076 -0.1739
12637TIP3    H159326   3.103   6.180   1.967 -0.2533 -1.4826 -0.3288
12637TIP3    H259327   3.242   6.187   2.026 -0.7324  2.8604  0.6184
12638TIP3   OH259328   1.686   4.362   3.039 -0.0138 -0.3350 -0.0466
12638TIP3    H159329   1.601   4.338   3.003 -0.7513 -0.6339  1.7941
12638TIP3    H259330   1.698   4.306   3.115  1.9259 -0.4119 -0.3407
12639TIP3   OH259331   2.528   0.763  15.473  0.4204 -0.0534 -0.5414
12639TIP3    H159332   2.499   0.738  15.561 -0.3436 -0.6355 -0.9424
12639TIP3    H259333   2.528   0.858  15.474  3.2385  0.0383  0.9760
12640TIP3   OH259334   1.311   0.167  10.745  0.0923 -0.2254 -0.2005
12640TIP3    H159335   1.284   0.077  10.765  0.7969 -0.4282 -0.1234
12640TIP3    H259336   1.262   0.190  10.666  0.6855 -1.0724 -0.8363
12641TIP3   OH259337   5.677   4.482   1.694  0.2598  0.3987 -0.0358
12641TIP3    H159338   5.676   4.533   1.776  0.4624 -0.5330  0.5543
12641TIP3    H259339   5.664   4.548   1.626 -1.6935  0.9977  0.8412
12642TIP3   OH259340   0.232   6.597  14.149 -0.2414 -0.2984 -0.4179
12642TIP3    H159341   0.204   6.670  14.095 -0.5395  0.1153  0.2758
12642TIP3    H259342   0.161   6.533  14.142  0.5908 -1.0992 -2.0457
12643TIP3   OH259343   0.584   3.388  15.177  0.4286  0.0817 -0.1724
12643TIP3    H159344   0.654   3.333  15.213 -1.1078 -1.8018  0.0611
12643TIP3    H259345   0.507   3.332  15.177 -0.5352  1.2605 -2.8339
12644TIP3   OH259346   3.982   4.767   5.276  0.0477 -0.0990  0.1580
12644TIP3    H159347   3.933   4.735   5.352  0.3742  0.4962  0.6261
12644TIP3    H259348   4.062   4.715   5.275  0.0088 -0.1593  0.1782
12645TIP3   OH259349   3.692   4.150  17.091 -0.3160 -0.3908  0.0698
12645TIP3    H159350   3.725   4.062  17.107 -1.5693 -0.8989 -0.0599
12645TIP3    H259351   3.735   4.204  17.157  1.3970 -0.8487 -0.6087
12646TIP3   OH259352   2.248   1.537  16.892 -0.5596 -0.7685  0.4769
12646TIP3    H159353   2.160   1.531  16.929  0.5088 -1.5126  3.2026
12646TIP3    H259354   2.264   1.630  16.881 -1.1911 -0.5411  1.3739
12647TIP3   OH259355   3.799   6.742   0.243 -0.1446  0.0121 -0.2559
12647TIP3    H159356   3.764   6.793   0.316 -0.4439  0.6023 -0.7979
12647TIP3    H259357   3.888   6.722   0.269 -0.0722  0.6813  0.0443
12648TIP3   OH259358   3.407   5.943   0.461  0.0956 -0.2120 -0.5007
12648TIP3    H159359   3.324   5.956   0.507  0.0835 -0.7950 -0.3459
12648TIP3    H259360   3.462   6.016   0.489 -0.2258 -0.0534 -0.2810
12649TIP3   OH259361   6.067   2.864   4.649 -0.0971  0.2856 -0.0459
12649TIP3    H159362   6.155   2.834   4.625  0.6404  1.6236  0.9148
12649TIP3    H259363   6.034   2.905   4.569 -0.0937 -0.7260 -0.5862
12650TIP3   OH259364   5.765   5.622  15.249 -0.1464 -0.0931  0.1153
12650TIP3    H159365   5.832   5.613  15.317  1.1779 -1.2905 -1.2545
12650TIP3    H259366   5.700   5.555  15.269 -1.1401  1.2486  1.6062
12651TIP3   OH259367   0.227   6.754  16.194  0.4339  0.0143  0.2700
12651TIP3    H159368   0.235   6.683  16.257  0.2013 -1.0773 -0.8954
12651TIP3    H259369   0.241   6.834  16.246  0.2087 -0.8369  1.6884
12652TIP3   OH259370   6.743   5.018   5.724  0.5973  0.5850  0.0426
12652TIP3    H159371   6.728   4.924   5.710  1.1657  0.5460 -0.3363
12652TIP3    H259372   6.678   5.061   5.669 -0.9154  0.4281  1.6242
12653TIP3   OH259373   2.743   1.563   0.623 -0.3167  0.0625  0.6835
12653TIP3    H159374   2.778   1.474   0.610 -0.8293  0.1142 -1.2056
12653TIP3    H259375   2.753   1.578   0.717  2.2698 -0.9528  0.6518
12654TIP3   OH259376   0.199   6.360   5.537  0.2690  0.1493 -0.0722
12654TIP3    H159377   0.266   6.426   5.555  0.8984  0.0230 -1.7669
12654TIP3    H259378   0.152   6.394   5.461 -1.8554  0.3885  1.2658
12655TIP3   OH259379   3.402   4.049   0.965 -0.4368  0.2267  0.2337
12655TIP3    H159380   3.443   4.010   1.042  1.4333 -0.9884 -1.2908
12655TIP3    H259381   3.381   3.975   0.909  0.8291  1.2122 -1.6371
12656TIP3   OH259382   0.455   5.309  13.876  0.0980  0.5069 -0.0146
12656TIP3    H159383   0.427   5.232  13.926  0.9199  0.3670  0.2362
12656TIP3    H259384   0.448   5.382  13.938 -1.7416  0.8513 -0.5578
12657TIP3   OH259385   5.650   4.939  14.852 -0.4895  0.3288 -0.0710
12657TIP3    H159386   5.681   4.934  14.942  0.2764  1.1607 -0.2796
12657TIP3    H259387   5.555   4.945  14.859 -0.3716  1.4461  0.7325
12658TIP3   OH259388   4.552   6.423  14.596 -0.8566 -0.0436 -0.3628
12658TIP3    H159389   4.525   6.392  14.682 -2.5759  0.8067 -0.5550
12658TIP3    H259390   4.642   6.393  14.587 -1.6375 -2.9186  0.4093
12659TIP3   OH259391   1.994   2.513  13.385 -0.4408 -0.3891  0.3479
12659TIP3    H159392   1.931   2.494  13.315 -0.9690  0.4640  0.5766
12659TIP3    H259393   1.944   2.564  13.449  0.8137  1.4970 -0.0857
12660TIP3   OH259394   4.027   6.034  11.819  0.1141 -0.6736 -0.5084
12660TIP3    H159395   4.093   6.101  11.801  0.7617 -1.0117  0.5255
12660TIP3    H259396   3.999   6.003  11.733 -2.5047  3.0707 -1.2753
12661TIP3   OH259397   6.441   1.044  13.876 -0.0198  0.1280  0.8243
12661TIP3    H159398   6.388   0.993  13.815  0.7268  0.9569 -0.5699
12661TIP3    H259399   6.521   0.992  13.887  0.2821  0.4627  0.2607
12662TIP3   OH259400   4.336   0.174   5.635 -0.1894 -0.1930 -0.8480
12662TIP3    H159401   4.394   0.106   5.600 -0.3329 -0.6152 -0.2735
12662TIP3    H259402   4.361   0.253   5.586 -0.2652 -0.7231 -1.7673
12663TIP3   OH259403   3.763   1.019   5.550  0.0692  0.0842  0.4859
12663TIP3    H159404   3.715   1.101   5.535  0.5247  0.2751  0.0593
12663TIP3    H259405   3.793   0.994   5.463 -0.1010 -0.5610  0.6113
12664TIP3   OH259406   4.315   5.357  15.443  0.4414 -0.9029  0.2173
12664TIP3    H159407   4.357   5.370  15.528 -1.9992  2.9717  1.0869
12664TIP3    H259408   4.253   5.286  15.457 -0.8098  0.4806  2.1618
12665TIP3   OH259409   1.360   5.137  15.764 -0.4432  0.1711 -0.2378
12665TIP3    H159410   1.338   5.229  15.749 -0.9457  0.3046  1.1640
12665TIP3    H259411   1.389   5.105  15.679 -0.3246  1.6071 -0.7647
12666TIP3   OH259412   0.722   6.449  14.285  0.3146  0.0580 -0.2391
12666TIP3    H159413   0.791   6.407  14.336 -0.3228 -0.3818  0.2812
12666TIP3    H259414   0.643   6.398  14.305  0.3397 -1.2037 -2.9662
12667TIP3   OH259415   1.720   5.129   4.043 -0.0833  0.1146  0.3802
12667TIP3    H159416   1.702   5.160   3.955 -0.7811  0.4407  0.6287
12667TIP3    H259417   1.691   5.037   4.043  0.3550 -0.0277  0.1441
12668TIP3   OH259418   0.932   4.668  15.957  0.0251 -0.0610  0.3946
12668TIP3    H159419   0.926   4.660  15.862 -0.0422  1.8530  0.1942
12668TIP3    H259420   0.902   4.584  15.991 -0.1795 -0.6865 -1.2676
12669TIP3   OH259421   0.727   5.213   4.857 -0.2132 -0.2860  0.1261
12669TIP3    H159422   0.727   5.256   4.772  0.4870 -1.4028 -0.4619
12669TIP3    H259423   0.817   5.184   4.870 -0.7151 -1.8916  0.3040
12670TIP3   OH259424   6.264   5.035  12.899  0.4656 -0.3651  0.0429
12670TIP3    H159425   6.222   4.961  12.855  1.1549 -1.3827  1.0425
12670TIP3    H259426   6.343   4.998  12.939  1.0914  1.0237  0.1525
12671TIP3   OH259427   5.989   2.007   2.228 -0.7349 -0.4861 -0.0696
12671TIP3    H159428   5.990   2.102   2.236 -1.4288 -0.3817 -1.1102
12671TIP3    H259429   5.959   1.976   2.313  1.8075  0.0924  1.1214
12672TIP3   OH259430   1.510   0.157   2.404 -0.6886 -0.1356  0.5063
12672TIP3    H159431   1.598   0.146   2.369 -1.1387 -0.5143 -0.5242
12672TIP3    H259432   1.456   0.092   2.358 -1.2152 -0.9833  2.2281
12673TIP3   OH259433   3.662   5.671  15.583  0.1899  0.3501  0.1046
12673TIP3    H159434   3.713   5.737  15.536 -1.0273  0.5554 -1.0023
12673TIP3    H259435   3.671   5.694  15.675  0.8135  1.2928 -0.1760
12674TIP3   OH259436   3.934   2.801   1.038  0.0819 -0.1908 -0.6616
12674TIP3    H159437   3.981   2.850   0.970  0.3442  0.4513 -0.0273
12674TIP3    H259438   4.000   2.740   1.073 -0.6511 -2.1926 -2.5386
12675TIP3   OH259439   4.240   1.729   3.560  0.0313  0.3275 -0.4331
12675TIP3    H159440   4.283   1.811   3.583  0.1015  0.6171 -1.5533
12675TIP3    H259441   4.223   1.686   3.645  0.2822  1.3368  0.1438
12676TIP3   OH259442   1.091   2.415   0.591  0.1954 -0.6711 -0.1440
12676TIP3    H159443   1.164   2.439   0.648 -0.6342  1.5052  0.1191
12676TIP3    H259444   1.122   2.435   0.503  0.7135 -1.9962 -0.2862
12677TIP3   OH259445   1.601   5.658   3.656 -0.2637 -0.2442 -0.0300
12677TIP3    H159446   1.655   5.641   3.733 -0.0317  0.1536 -0.1025
12677TIP3    H259447   1.585   5.571   3.619 -2.0135 -0.6677  1.5524
12678TIP3   OH259448   4.644   3.415  14.398  0.2151 -0.0738 -0.1381
12678TIP3    H159449   4.548   3.413  14.404  0.2601  0.8245  1.3733
12678TIP3    H259450   4.671   3.326  14.419 -0.2100  0.2852  2.1602
12679TIP3   OH259451   1.405   6.316   2.734 -0.0096 -0.0103  0.0121
12679TIP3    H159452   1.348   6.387   2.763 -0.8450  0.1889 -1.9458
12679TIP3    H259453   1.458   6.355   2.664  0.1212 -1.0815 -0.5103
12680TIP3   OH259454   1.383   4.674  12.252 -0.0856 -0.1083  0.4458
12680TIP3    H159455   1.318   4.640  12.191  1.1211  0.0183 -0.9620
12680TIP3    H259456   1.364   4.768  12.258  0.4463  0.0808 -0.6121
12681TIP3   OH259457   2.716   3.497  14.010 -0.1697  0.3708 -0.2704
12681TIP3    H159458   2.651   3.566  13.995 -0.1335  0.6358  0.7629
12681TIP3    H259459   2.793   3.526  13.960 -0.4266  0.6614 -0.5070
12682TIP3   OH259460   4.669   2.908  12.326  0.1602 -0.4126 -0.0051
12682TIP3    H159461   4.671   2.826  12.276  4.9621 -0.7653  0.3031
12682TIP3    H259462   4.617   2.887  12.404 -1.9749 -1.8260 -1.6631
12683TIP3   OH259463   1.905   0.680  11.030  0.4632 -0.4519 -0.0523
12683TIP3    H159464   1.815   0.707  11.013  0.2258 -1.5918 -0.7179
12683TIP3    H259465   1.947   0.683  10.944  0.2980 -2.5917 -0.2564
12684TIP3   OH259466   0.677   0.391   6.291 -0.3959  0.0605  0.1988
12684TIP3    H159467   0.627   0.375   6.211  2.3849 -2.3647 -1.2784
12684TIP3    H259468   0.711   0.480   6.280 -2.0828  0.7151 -0.0284
12685TIP3   OH259469   6.055   5.765  12.656 -0.1309  0.2728 -0.5316
12685TIP3    H159470   6.124   5.699  12.653  0.3685  0.8256 -1.6709
12685TIP3    H259471   6.041   5.790  12.565 -1.1053  0.9336 -0.2215
12686TIP3   OH259472   1.054   3.333   4.055  0.3331 -0.3322 -0.0559
12686TIP3    H159473   1.076   3.270   4.124  0.6767 -0.8389 -0.6230
12686TIP3    H259474   1.042   3.280   3.976 -2.3187 -0.0088  0.0579
12687TIP3   OH259475   3.692   3.269  12.498  0.6078 -0.5353 -0.3428
12687TIP3    H159476   3.740   3.327  12.557 -1.6100 -1.4296  2.5905
12687TIP3    H259477   3.651   3.327  12.434 -0.2630  1.0488  1.5453
12688TIP3   OH259478   2.964   0.751   0.457 -0.3494  0.0247 -0.3451
12688TIP3    H159479   3.028   0.689   0.423  1.0901  0.7599  0.9091
12688TIP3    H259480   2.928   0.794   0.380  0.4001 -0.6522 -1.0917
12689TIP3   OH259481   0.173   0.222  14.793  0.4302  0.1873 -0.2552
12689TIP3    H159482   0.265   0.212  14.766  0.3384  0.1318 -0.5412
12689TIP3    H259483   0.128   0.255  14.715  0.6805  2.7452  0.5564
12690TIP3   OH259484   3.509   6.541  17.004 -0.3354  0.2635  0.2471
12690TIP3    H159485   3.575   6.539  17.073 -0.9827  1.0633  0.9024
12690TIP3    H259486   3.458   6.462  17.018 -0.9704  0.8325  1.1991
12691TIP3   OH259487   6.001   2.169   1.961  0.0850 -0.1496  0.0968
12691TIP3    H159488   5.969   2.108   2.027 -1.0318  0.2603 -0.0284
12691TIP3    H259489   6.041   2.114   1.894  1.0112 -0.5868  0.9861
12692TIP3   OH259490   3.729   5.935   5.924  0.0507 -0.1956 -0.5690
12692TIP3    H159491   3.718   5.873   5.997 -0.8051  0.6380  0.0331
12692TIP3    H259492   3.653   5.993   5.931  2.2278  2.7208  0.6409
12693TIP3   OH259493   2.322   0.850  16.006 -0.1560  0.2525  0.3556
12693TIP3    H159494   2.316   0.760  15.974 -1.4582  0.7738 -1.0130
12693TIP3    H259495   2.233   0.872  16.034  0.4285  0.6977  1.9370
12694TIP3   OH259496   1.948   5.668   1.050 -0.7847 -0.0199 -0.2156
12694TIP3    H159497   1.915   5.758   1.044 -0.5896 -0.0394 -2.5894
12694TIP3    H259498   1.869   5.614   1.059 -1.2748  0.1794 -2.5707
12695TIP3   OH259499   4.708   1.059   0.820  0.2517  0.1573  0.1964
12695TIP3    H159500   4.765   1.074   0.895  0.2925 -1.6847  0.5785
12695TIP3    H259501   4.693   0.964   0.819 -2.8587  0.5302  0.1608
12696TIP3   OH259502   2.580   6.300   5.397  0.4002  0.4789  0.4438
12696TIP3    H159503   2.582   6.212   5.360  0.5324 -0.0179  1.5975
12696TIP3    H259504   2.666   6.337   5.375 -0.0829  0.7871 -1.0775
12697TIP3   OH259505   3.598   3.263   6.731  0.0486  0.1604 -0.0969
12697TIP3    H159506   3.589   3.290   6.639  0.4352 -1.2222 -0.5585
12697TIP3    H259507   3.529   3.198   6.743  1.0795 -0.9172  0.0879
12698TIP3   OH259508   6.498   1.726   3.465 -0.1787 -0.1852  0.5184
12698TIP3    H159509   6.557   1.673   3.411 -0.7181 -0.0180 -0.2505
12698TIP3    H259510   6.515   1.816   3.437 -1.6100 -0.2099 -0.5720
12699TIP3   OH259511   0.781   3.393  14.066 -0.1761  0.1704 -0.4506
12699TIP3    H159512   0.872   3.366  14.076 -0.0775  0.3043 -0.9348
12699TIP3    H259513   0.753   3.353  13.983  0.2973  2.3778 -1.7728
12700TIP3   OH259514   5.631   0.817   4.958 -0.0831  0.3115 -0.5821
12700TIP3    H159515   5.724   0.837   4.952  0.4835 -1.6078  0.8799
12700TIP3    H259516   5.610   0.827   5.051 -1.3304  0.6292 -0.8723
12701TIP3   OH259517   4.612   2.903  14.282 -0.2009 -0.0057 -0.0765
12701TIP3    H159518   4.601   2.991  14.245  0.7614  0.5189  0.8119
12701TIP3    H259519   4.608   2.844  14.207  0.3356  0.9082 -0.8427
12702TIP3   OH259520   3.150   1.240   6.376  0.8121 -0.4626  0.7313
12702TIP3    H159521   3.224   1.274   6.425  0.4179 -1.8026  2.3457
12702TIP3    H259522   3.169   1.147   6.366 -0.6075 -0.8169  1.1367
12703TIP3   OH259523   5.729   0.837   1.920 -0.6125 -0.1956 -0.6353
12703TIP3    H159524   5.762   0.884   1.997 -2.3053  0.5308 -0.3029
12703TIP3    H259525   5.804   0.787   1.888  0.0714 -0.7640  1.6620
12704TIP3   OH259526   6.150   4.273  15.170 -0.1156 -0.3011  1.0263
12704TIP3    H159527   6.092   4.303  15.240  1.6064  1.6652  1.6986
12704TIP3    H259528   6.132   4.332  15.097 -0.1126 -0.7217  0.6831
12705TIP3   OH259529   0.415   0.871  14.281 -0.5070  0.0798  0.1449
12705TIP3    H159530   0.408   0.966  14.292  0.2912  0.2674 -0.7830
12705TIP3    H259531   0.463   0.842  14.359 -0.2394  0.5229  0.1507
12706TIP3   OH259532   4.915   5.486   1.970  0.0521 -0.1749 -0.6600
12706TIP3    H159533   4.899   5.568   1.922  0.9772 -0.4294 -1.4283
12706TIP3    H259534   4.976   5.437   1.915  0.5333 -0.8261  0.4182
12707TIP3   OH259535   6.151   6.598   0.119 -0.0329 -0.6904 -0.0833
12707TIP3    H159536   6.221   6.536   0.097 -0.1491  0.1051 -3.1354
12707TIP3    H259537   6.181   6.682   0.082 -1.7854  0.0776  0.1445
12708TIP3   OH259538   5.497   0.722   2.695  0.2845  0.5621 -0.0773
12708TIP3    H159539   5.505   0.635   2.657  0.1733  0.0799  0.9676
12708TIP3    H259540   5.475   0.779   2.621 -0.3099 -0.4107 -0.6670
12709TIP3   OH259541   0.288   3.845  15.136 -0.2730 -0.7560  0.6097
12709TIP3    H159542   0.272   3.923  15.083 -0.4637 -0.6180  0.8653
12709TIP3    H259543   0.349   3.874  15.204  0.4692 -1.0886  0.1005
12710TIP3   OH259544   0.266   4.527   2.374 -0.0329  0.3817 -0.0684
12710TIP3    H159545   0.346   4.575   2.396  0.8360 -1.1962  0.2851
12710TIP3    H259546   0.241   4.483   2.455  0.9916 -2.3096 -1.1167
12711TIP3   OH259547   6.619   3.862   4.563  0.0776  0.0028 -0.3352
12711TIP3    H159548   6.683   3.918   4.518  0.1400  0.0081 -0.2407
12711TIP3    H259549   6.565   3.923   4.612 -1.9157  0.3204 -2.7214
12712TIP3   OH259550   2.782   3.773   1.351 -0.3523 -0.1010  0.2244
12712TIP3    H159551   2.831   3.714   1.408 -1.6439 -1.8436 -0.4131
12712TIP3    H259552   2.693   3.773   1.387 -0.5664  0.8368 -0.2657
12713TIP3   OH259553   6.716   6.769  16.475 -0.1156  0.1248 -0.2063
12713TIP3    H159554   6.761   6.690  16.443 -2.4098 -0.9954 -0.9161
12713TIP3    H259555   6.712   6.827  16.399 -1.6731 -0.6812 -0.7829
12714TIP3   OH259556   2.572   6.011  11.874  0.1112  0.3242 -0.0013
12714TIP3    H159557   2.600   5.960  11.949  2.0650  0.6927 -0.4200
12714TIP3    H259558   2.527   6.087  11.911 -1.7374 -1.0143  0.6526
12715TIP3   OH259559   3.400   5.982  13.339 -0.3210  0.3357  0.2093
12715TIP3    H159560   3.413   5.901  13.389  0.8787  0.9552  0.9569
12715TIP3    H259561   3.423   5.959  13.249  1.6549  0.2320  0.7031
12716TIP3   OH259562   4.221   4.542   5.451  0.8942 -0.1166  0.1107
12716TIP3    H159563   4.283   4.490   5.502  0.0199  0.9315  2.3842
12716TIP3    H259564   4.212   4.495   5.368  1.8090 -2.3381  1.1984
12717TIP3   OH259565   2.325   5.665  15.074 -0.0541  0.1360 -0.3024
12717TIP3    H159566   2.398   5.674  15.135 -1.2832 -0.1508  1.2566
12717TIP3    H259567   2.363   5.620  14.998  2.0565  2.5451 -0.8174
12718TIP3   OH259568   2.872   3.189   0.168 -0.2507  0.8026 -0.1229
12718TIP3    H159569   2.833   3.171   0.254 -0.2886  0.5193 -0.1986
12718TIP3    H259570   2.875   3.284   0.163  1.6389  0.8749  1.0554
12719TIP3   OH259571   1.947   1.025  16.798  0.2258 -0.2897  0.6077
12719TIP3    H159572   1.991   1.105  16.828  2.0665 -1.0253 -0.0371
12719TIP3    H259573   1.958   1.025  16.703 -1.4322 -0.3902  0.3784
12720TIP3   OH259574   2.888   3.923  16.144  0.4454  0.5282  0.3544
12720TIP3    H159575   2.870   3.898  16.235  0.3948 -0.8938 -0.0178
12720TIP3    H259576   2.964   3.981  16.150  0.5170  0.3557  1.2960
12721TIP3   OH259577   6.281   5.859  15.076 -0.0679 -0.6571 -0.1338
12721TIP3    H159578   6.350   5.921  15.098 -0.7769 -0.0477  0.3979
12721TIP3    H259579   6.229   5.851  15.155 -1.5112  0.0600 -0.9755
12722TIP3   OH259580   4.743   5.833  16.436 -0.0827 -0.1306 -0.7459
12722TIP3    H159581   4.830   5.812  16.470 -0.6059 -0.4307  0.4458
12722TIP3    H259582   4.738   5.929  16.441 -0.5335 -0.2227  1.0499
12723TIP3   OH259583   5.884   0.079   4.651 -0.2531 -0.2069 -0.0173
12723TIP3    H159584   5.941   0.092   4.575 -0.8351  2.9455 -0.0597
12723TIP3    H259585   5.941   0.090   4.726 -0.1827 -0.5025 -0.0277
12724TIP3   OH259586   6.266   1.742  16.404 -0.0168 -0.4906  0.1393
12724TIP3    H159587   6.350   1.727  16.361  0.5159  1.5570  0.3533
12724TIP3    H259588   6.202   1.735  16.333  0.5326 -0.2034 -0.3992
12725TIP3   OH259589   1.567   4.616  15.377 -0.0283 -0.0646 -0.0661
12725TIP3    H159590   1.574   4.697  15.428  0.2285  0.3038 -0.6721
12725TIP3    H259591   1.656   4.599  15.346 -0.2474 -0.0334 -0.7486
12726TIP3   OH259592   0.612   2.848  10.671 -0.4265  0.1431 -0.2977
12726TIP3    H159593   0.648   2.765  10.642 -1.3928 -0.7220  0.9034
12726TIP3    H259594   0.549   2.825  10.739 -0.9806  1.8293 -0.1900
12727TIP3   OH259595   4.389   5.501   0.065  0.0380  0.3039 -0.2919
12727TIP3    H159596   4.381   5.417   0.019 -0.6866 -0.3168  0.8913
12727TIP3    H259597   4.480   5.502   0.096 -0.0165 -0.1787 -0.0958
12728TIP3   OH259598   5.565   1.200   6.376 -0.6245 -0.2048 -0.2737
12728TIP3    H159599   5.478   1.183   6.341 -0.8301  0.7928 -0.2677
12728TIP3    H259600   5.600   1.113   6.397  0.0234 -1.0244 -4.0319
12729TIP3   OH259601   2.034   3.443  11.774 -0.6295  0.1391  0.1325
12729TIP3    H159602   2.112   3.475  11.820 -1.2156  0.8130  0.6687
12729TIP3    H259603   2.049   3.467  11.682 -1.5189  2.9523  0.6505
12730TIP3   OH259604   2.859   1.970  14.737 -0.0262  0.4424  0.0497
12730TIP3    H159605   2.778   1.985  14.689  0.6445  1.0773 -0.9175
12730TIP3    H259606   2.928   1.968  14.670  0.5426 -2.3336  0.5859
12731TIP3   OH259607   3.786   2.804  14.029 -0.1014 -0.2016  0.8862
12731TIP3    H159608   3.806   2.794  14.122  0.8071  2.5638  1.0772
12731TIP3    H259609   3.850   2.748  13.985 -0.4946 -1.4815  1.8809
12732TIP3   OH259610   5.208   4.694   6.237 -0.1189  0.5093  0.1662
12732TIP3    H159611   5.284   4.672   6.291  0.2768 -0.3208 -0.7100
12732TIP3    H259612   5.202   4.790   6.242  1.8360  0.7340 -0.8475
12733TIP3   OH259613   1.226   6.765   0.361 -0.1924 -0.1793 -0.3889
12733TIP3    H159614   1.270   6.696   0.411  1.0887  1.1784  0.4515
12733TIP3    H259615   1.228   6.734   0.271  2.6967 -0.1517 -0.4371
12734TIP3   OH259616   2.599   6.159  15.353  0.2791 -0.4147  0.0667
12734TIP3    H159617   2.654   6.171  15.430 -1.3894 -1.5234  1.5207
12734TIP3    H259618   2.616   6.236  15.299 -0.7300  2.0752  3.0111
12735TIP3   OH259619   1.935   2.210  17.108  0.4757  0.0312  0.2513
12735TIP3    H159620   2.016   2.168  17.079 -0.0434  0.2491 -1.6518
12735TIP3    H259621   1.897   2.247  17.028 -3.0539 -2.6654  0.4379
12736TIP3   OH259622   5.026   6.323  13.609 -0.7160  0.0467 -0.2241
12736TIP3    H159623   4.984   6.295  13.691 -2.0092 -0.4070 -1.0143
12736TIP3    H259624   4.971   6.286  13.540 -0.1359  1.1405 -1.3106
12737TIP3   OH259625   3.241   1.553  10.640  0.2052 -0.0785  0.4088
12737TIP3    H159626   3.314   1.501  10.606  0.5765  0.2694  0.6644
12737TIP3    H259627   3.229   1.622  10.574 -0.4284 -0.6061 -0.0370
12738TIP3   OH259628   6.184   3.422  12.500  0.0298  0.1566 -0.4145
12738TIP3    H159629   6.244   3.432  12.426 -0.5155 -0.0146 -0.8897
12738TIP3    H259630   6.112   3.369  12.465  0.6726 -1.5773  0.7611
12739TIP3   OH259631   6.341   0.290  10.748  0.3483  0.4512  0.6615
12739TIP3    H159632   6.396   0.244  10.684 -1.5137  0.3466 -0.9520
12739TIP3    H259633   6.287   0.349  10.696 -0.3251  1.3431  2.2891
12740TIP3   OH259634   3.916   0.267  14.903 -0.0152  0.2071  0.1852
12740TIP3    H159635   3.980   0.276  14.832 -0.1111  1.2542  0.2162
12740TIP3    H259636   3.968   0.275  14.983  0.0171 -0.4529  0.2391
12741TIP3   OH259637   2.412   0.227   1.897  0.4129 -0.1472 -1.6425
12741TIP3    H159638   2.338   0.223   1.958  2.8580  0.2687  1.6240
12741TIP3    H259639   2.447   0.138   1.896  0.2939 -0.1951 -2.6583
12742TIP3   OH259640   2.607   4.660  13.054  0.2456 -0.2416  0.5925
12742TIP3    H159641   2.669   4.587  13.058  0.0140 -0.5149 -0.5299
12742TIP3    H259642   2.652   4.733  13.096  1.6165 -0.2245 -0.8458
12743TIP3   OH259643   2.037   2.848   3.211 -0.0551  0.2598  0.2105
12743TIP3    H159644   2.064   2.868   3.121 -1.8429  0.3874 -0.3379
12743TIP3    H259645   2.044   2.753   3.217 -0.2258  0.2195 -0.1726
12744TIP3   OH259646   4.029   0.803  11.850 -0.0894 -0.1195  0.3720
12744TIP3    H159647   4.035   0.851  11.932  0.5465 -0.7833  0.7316
12744TIP3    H259648   3.973   0.727  11.871 -0.2107 -0.1068  0.0979
12745TIP3   OH259649   6.102   6.029   1.921 -0.2633 -0.3413 -0.0391
12745TIP3    H159650   6.128   6.121   1.932  2.0701 -1.0700  1.3096
12745TIP3    H259651   6.102   5.994   2.010 -2.5254 -1.3573 -0.3901
12746TIP3   OH259652   1.677   4.433  14.209 -0.1701 -0.0308  0.1288
12746TIP3    H159653   1.650   4.423  14.118  1.9965 -0.7948 -0.4987
12746TIP3    H259654   1.609   4.487  14.249 -0.3013  1.8282 -2.3748
12747TIP3   OH259655   4.374   2.120   3.943 -0.1161 -0.2172  0.1055
12747TIP3    H159656   4.467   2.137   3.930 -0.3290  0.4630 -0.6504
12747TIP3    H259657   4.330   2.196   3.903 -0.9735 -0.1977  1.0509
12748TIP3   OH259658   6.059   2.077   3.646  0.7257 -0.1789 -0.3899
12748TIP3    H159659   6.047   2.124   3.728 -0.0515  2.8639 -2.1212
12748TIP3    H259660   5.974   2.037   3.628  0.8083 -0.5797  0.0797
12749TIP3   OH259661   2.848   5.796  14.053 -0.3473  0.2046  0.0282
12749TIP3    H159662   2.852   5.708  14.014 -2.4698  0.0325  0.0438
12749TIP3    H259663   2.923   5.842  14.016  0.0761 -1.2363 -1.0105
12750TIP3   OH259664   3.778   5.530  14.957 -0.9863 -0.6446  0.0643
12750TIP3    H159665   3.726   5.450  14.948 -0.7754 -0.6973 -0.6967
12750TIP3    H259666   3.858   5.513  14.908 -1.4436  0.4663 -1.1161
12751TIP3   OH259667   2.622   0.370  11.979 -0.5723  0.1131 -0.3049
12751TIP3    H159668   2.559   0.439  11.997  1.1084  1.7638 -0.3954
12751TIP3    H259669   2.678   0.406  11.910  0.8100 -1.0434  0.1626
12752TIP3   OH259670   1.718   1.431   1.155 -0.3783 -0.6672 -0.3057
12752TIP3    H159671   1.704   1.403   1.065  0.3504 -3.4156  0.3565
12752TIP3    H259672   1.744   1.352   1.202  0.8050  0.9678  2.0166
12753TIP3   OH259673   3.677   0.637   5.432 -0.8102 -0.6046 -0.4035
12753TIP3    H159674   3.716   0.701   5.492 -2.2662  3.6379 -3.4625
12753TIP3    H259675   3.748   0.576   5.412  1.3280  1.1420  1.3706
12754TIP3   OH259676   1.719   3.446  14.958  0.3002 -0.8201 -0.0749
12754TIP3    H159677   1.775   3.439  14.881  0.8040  0.2215  0.1811
12754TIP3    H259678   1.630   3.442  14.923  0.4784  1.3535 -0.9462
12755TIP3   OH259679   5.807   6.208  15.640 -0.0053  0.6751 -0.3559
12755TIP3    H159680   5.798   6.302  15.627 -1.9249  0.8509  1.7401
12755TIP3    H259681   5.830   6.174  15.553  1.1621  3.0713 -1.0701
12756TIP3   OH259682   0.855   1.280   4.401 -0.5876  0.1511 -0.0227
12756TIP3    H159683   0.921   1.219   4.434  0.7257  1.0231 -0.9154
12756TIP3    H259684   0.893   1.314   4.320 -1.1927  2.2767  0.5280
12757TIP3   OH259685   4.319   5.976   6.088  0.1344 -0.4453  0.0740
12757TIP3    H159686   4.349   6.049   6.033 -0.7373  1.0065  1.4421
12757TIP3    H259687   4.239   5.946   6.045  0.8570 -1.0896 -0.8741
12758TIP3   OH259688   0.074   2.151   3.070  0.0876 -0.3794 -0.3002
12758TIP3    H159689   0.011   2.223   3.067  0.4793 -0.0446 -0.6965
12758TIP3    H259690   0.112   2.155   3.158  0.3061  0.0761 -0.4122
12759TIP3   OH259691   2.157   2.333  15.687  0.1139  0.2298  0.2622
12759TIP3    H159692   2.118   2.253  15.721 -0.5429 -0.6286 -2.2733
12759TIP3    H259693   2.140   2.399  15.755 -3.0919 -0.8169  0.6547
12760TIP3   OH259694   4.538   2.345   5.500 -0.6058 -0.3705 -0.0125
12760TIP3    H159695   4.611   2.296   5.539  0.8320 -0.3580 -2.5146
12760TIP3    H259696   4.475   2.277   5.475 -1.0366 -0.4602  1.2251
12761TIP3   OH259697   5.555   1.259  11.485 -0.0993  0.0332 -0.0668
12761TIP3    H159698   5.620   1.236  11.552 -1.1215 -0.5200  0.7539
12761TIP3    H259699   5.589   1.220  11.404  0.8437  0.1891  0.2450
12762TIP3   OH259700   1.917   5.879  14.714  0.0345  0.0941 -0.6286
12762TIP3    H159701   1.855   5.921  14.654  2.2489  1.8331 -1.8923
12762TIP3    H259702   1.992   5.857  14.658  0.9678 -1.0147  0.9836
12763TIP3   OH259703   1.830   4.573  15.263  0.1214 -0.1314 -0.2812
12763TIP3    H159704   1.872   4.613  15.339  1.2214 -1.0253 -0.3897
12763TIP3    H259705   1.879   4.607  15.187  0.2526 -0.6743 -0.4504
12764TIP3   OH259706   4.038   0.739   0.067  0.2161 -0.2307  0.4466
12764TIP3    H159707   3.973   0.673   0.039  0.0689  0.2194 -0.3117
12764TIP3    H259708   4.096   0.692   0.127 -0.9159 -0.5987  1.2875
12765TIP3   OH259709   4.168   6.511   4.604 -0.2144  0.5185 -0.0709
12765TIP3    H159710   4.153   6.528   4.511 -0.6769  0.0431 -0.0860
12765TIP3    H259711   4.256   6.473   4.607 -1.3640 -2.4833 -0.7173
12766TIP3   OH259712   4.303   2.210   1.482 -0.0796 -0.8466  0.1343
12766TIP3    H159713   4.237   2.252   1.536  0.6048 -0.1504  0.4557
12766TIP3    H259714   4.303   2.119   1.510  0.4373 -0.4492  1.5013
12767TIP3   OH259715   2.880   3.818   5.922  0.1655 -0.3373 -0.1143
12767TIP3    H159716   2.827   3.879   5.869  1.5135  0.6803 -0.3487
12767TIP3    H259717   2.955   3.798   5.867 -0.2353 -2.2359 -0.0141
12768TIP3   OH259718   2.746   5.596   5.191  0.0419 -1.3910  0.5569
12768TIP3    H159719   2.722   5.658   5.260  0.7423 -0.5478  0.0623
12768TIP3    H259720   2.833   5.565   5.216  0.6451 -0.4782 -0.3377
12769TIP3   OH259721   6.747   4.130   5.825  1.0626  0.3917 -0.2780
12769TIP3    H159722   6.809   4.175   5.882 -1.2267  0.7865  2.0720
12769TIP3    H259723   6.738   4.043   5.864 -1.7079  1.1726  1.0517
12770TIP3   OH259724   4.623   1.916  13.468  0.2649 -0.2661  0.3909
12770TIP3    H159725   4.559   1.860  13.512  0.4207 -1.0890 -0.3922
12770TIP3    H259726   4.661   1.969  13.538  0.2324 -1.2654  1.1804
12771TIP3   OH259727   1.275   5.667   0.868 -0.3299 -0.2603  0.1642
12771TIP3    H159728   1.324   5.647   0.788 -0.3050 -1.1115  0.3829
12771TIP3    H259729   1.239   5.583   0.896 -0.8902  0.1424  0.6894
12772TIP3   OH259730   5.924   0.329   1.741  0.7568  0.0664 -0.3612
12772TIP3    H159731   5.913   0.422   1.717  1.5591  0.1349 -0.5055
12772TIP3    H259732   5.984   0.331   1.815  1.3997 -0.3793 -0.8642
12773TIP3   OH259733   0.955   5.703   0.655  0.7446  0.2526  0.1032
12773TIP3    H159734   0.946   5.798   0.652 -2.1474  0.0558 -0.1210
12773TIP3    H259735   0.991   5.679   0.570  0.2253  1.0506 -0.3455
12774TIP3   OH259736   1.419   1.794   4.757  0.2333  0.0610  0.4465
12774TIP3    H159737   1.327   1.807   4.734  0.8688  0.2475 -2.4322
12774TIP3    H259738   1.417   1.760   4.846 -2.5574  0.8962  0.8012
12775TIP3   OH259739   0.148   1.035  14.960 -0.4857  0.2270 -0.3852
12775TIP3    H159740   0.087   0.991  14.902 -0.2194 -1.3975  0.5241
12775TIP3    H259741   0.229   1.041  14.909  0.4232 -3.1522  0.4647
12776TIP3   OH259742   2.303   5.759   4.635 -0.0437 -0.0832 -0.5067
12776TIP3    H159743   2.337   5.848   4.646  1.4215 -0.2843 -2.6990
12776TIP3    H259744   2.356   5.706   4.695 -1.0172  0.5062  0.9104
12777TIP3   OH259745   1.585   0.218   1.486 -0.1119 -0.0993  0.0983
12777TIP3    H159746   1.535   0.299   1.495  0.2205  0.3025 -1.3422
12777TIP3    H259747   1.668   0.246   1.449  0.1194 -1.0675 -0.1259
12778TIP3   OH259748   0.654   0.411  12.119  0.2445  0.0139  0.1050
12778TIP3    H159749   0.741   0.403  12.081  0.9286 -0.8581  1.7393
12778TIP3    H259750   0.651   0.499  12.155 -0.2128  0.6524 -1.4131
12779TIP3   OH259751   0.877   1.896  17.248 -0.6765 -0.0047 -0.1723
12779TIP3    H159752   0.852   1.937  17.165  0.0470  0.3383 -0.2190
12779TIP3    H259753   0.887   1.969  17.309  2.0245  0.0885 -0.6073
12780TIP3   OH259754   5.639   2.249   5.512  0.2316  0.0909 -0.4770
12780TIP3    H159755   5.685   2.197   5.446  1.1370  0.0847  0.1419
12780TIP3    H259756   5.547   2.229   5.498  0.3849  0.2660 -1.8875
12781TIP3   OH259757   3.273   0.633  11.392 -0.4825 -0.1199 -0.3966
12781TIP3    H159758   3.305   0.627  11.302  0.2071  1.7375 -0.3210
12781TIP3    H259759   3.196   0.690  11.386 -0.8084 -0.5022  0.1100
12782TIP3   OH259760   4.895   6.310   1.826  0.1399  0.3262  0.2178
12782TIP3    H159761   4.970   6.252   1.819  0.0472  0.1965  0.2885
12782TIP3    H259762   4.867   6.325   1.736  1.3539  1.8335  0.0614
12783TIP3   OH259763   6.463   6.071  15.041  0.3581 -0.2024 -0.3772
12783TIP3    H159764   6.450   6.031  14.956  0.3716 -0.9302 -0.0404
12783TIP3    H259765   6.556   6.095  15.043  0.2851  0.1205 -0.6878
12784TIP3   OH259766   6.132   3.957  11.186  0.4642  0.0218 -0.3304
12784TIP3    H159767   6.108   3.971  11.094 -0.3601  0.0523 -0.1200
12784TIP3    H259768   6.203   4.019  11.203 -0.0208  0.6751 -0.6823
12785TIP3   OH259769   3.764   4.306   3.244 -0.0735 -0.1569 -0.0874
12785TIP3    H159770   3.833   4.274   3.186  0.4350  3.2786 -1.6296
12785TIP3    H259771   3.800   4.296   3.332  2.3890  1.3540 -0.8317
12786TIP3   OH259772   5.124   6.552   4.113 -0.0671  0.1927  0.0685
12786TIP3    H159773   5.096   6.607   4.040  0.5024  1.1113  0.5299
12786TIP3    H259774   5.200   6.596   4.150  1.2720 -1.6131 -0.3797
12787TIP3   OH259775   0.291   0.083  15.079  0.0147 -0.2453  0.0472
12787TIP3    H159776   0.235   0.151  15.041  0.7019 -0.6358 -1.7839
12787TIP3    H259777   0.379   0.105  15.049  0.3513 -1.5179  0.0327
12788TIP3   OH259778   4.554   1.773   5.842  0.2855 -0.3304  0.0550
12788TIP3    H159779   4.631   1.790   5.896  0.4185  0.7523 -0.4398
12788TIP3    H259780   4.584   1.710   5.777  0.9730  0.6151 -0.5718
12789TIP3   OH259781   3.082   4.916  15.332  0.4641  0.2863  0.8565
12789TIP3    H159782   3.085   4.984  15.265  0.5034 -0.4627  0.0774
12789TIP3    H259783   3.094   4.963  15.415 -1.5384  1.4960  0.5338
12790TIP3   OH259784   6.669   1.281   3.698 -0.4113 -0.5064  0.2106
12790TIP3    H159785   6.636   1.225   3.628 -0.8407 -0.7434  0.5983
12790TIP3    H259786   6.756   1.308   3.668 -1.0336  0.3363 -0.9563
12791TIP3   OH259787   5.015   2.304  15.291  0.1094  0.8053 -0.6957
12791TIP3    H159788   4.966   2.319  15.210 -1.0925 -1.2337 -0.4083
12791TIP3    H259789   5.050   2.390  15.314 -0.6299  1.6850 -2.6658
12792TIP3   OH259790   3.466   3.016  11.582  0.4595 -0.1521 -0.6321
12792TIP3    H159791   3.494   3.100  11.545  0.0277  0.2113 -0.1534
12792TIP3    H259792   3.410   2.977  11.516  0.3412  0.1223 -0.6941
12793TIP3   OH259793   4.409   0.578   3.508 -0.4830 -0.0325 -0.2547
12793TIP3    H159794   4.372   0.578   3.419  0.3913  0.5807 -0.6415
12793TIP3    H259795   4.356   0.516   3.557 -1.8652  0.6492 -0.8391
12794TIP3   OH259796   4.678   3.026  16.377  0.4967  0.6398  0.2262
12794TIP3    H159797   4.683   3.047  16.284 -2.5247  1.7736  0.2102
12794TIP3    H259798   4.719   3.100  16.421  0.6263  0.8073 -0.1759
12795TIP3   OH259799   2.898   3.947  10.538 -0.5687 -0.3029  0.3800
12795TIP3    H159800   2.959   3.898  10.482 -0.4791  0.2645 -0.0418
12795TIP3    H259801   2.918   3.919  10.627  0.1745 -0.2850  0.2248
12796TIP3   OH259802   2.912   5.449   4.093 -0.1750  0.5336 -0.3471
12796TIP3    H159803   2.867   5.371   4.126 -0.0753  0.5647 -0.1374
12796TIP3    H259804   2.994   5.453   4.143 -0.1557  0.7429 -0.3929
12797TIP3   OH259805   0.196   6.092  13.669  0.3043  0.1896  0.6568
12797TIP3    H159806   0.134   6.150  13.626  0.3795 -0.3651 -0.2264
12797TIP3    H259807   0.270   6.086  13.608  0.7995  0.0782  1.2547
12798TIP3   OH259808   2.351   0.715  12.873 -0.8263  0.2811 -0.3218
12798TIP3    H159809   2.419   0.657  12.908 -1.1011  0.9510  1.4769
12798TIP3    H259810   2.374   0.728  12.782  0.6552 -0.6406 -0.1079
12799TIP3   OH259811   6.536   3.915  14.213  0.3335 -0.0453  0.0091
12799TIP3    H159812   6.547   3.821  14.222 -0.4451 -0.2122 -0.5834
12799TIP3    H259813   6.608   3.954  14.262  2.1291 -0.9732 -1.7761
12800TIP3   OH259814   5.554   0.446  12.732 -0.5062 -0.2050  0.1321
12800TIP3    H159815   5.472   0.397  12.721 -1.4538  1.5227 -0.8764
12800TIP3    H259816   5.531   0.518  12.791 -0.1976  1.2757 -1.4712
12801TIP3   OH259817   0.792   0.745  13.752 -0.1181 -0.0379 -0.6750
12801TIP3    H159818   0.845   0.693  13.813  0.7199 -0.1009 -1.4440
12801TIP3    H259819   0.853   0.772  13.684 -0.7079  1.3545 -0.6704
12802TIP3   OH259820   6.150   0.266  15.783  0.4724 -0.1992 -0.1374
12802TIP3    H159821   6.214   0.310  15.727  1.1068  1.3144  1.6842
12802TIP3    H259822   6.149   0.317  15.864 -0.0520 -2.5389  1.4415
12803TIP3   OH259823   2.794   2.049   3.686 -0.0561  0.3787  0.0160
12803TIP3    H159824   2.879   2.092   3.679  1.3233 -1.8554  1.6508
12803TIP3    H259825   2.763   2.042   3.596  1.3685  1.4107 -0.6004
12804TIP3   OH259826   5.593   5.938  14.016 -0.1851 -0.7742 -0.2809
12804TIP3    H159827   5.683   5.911  14.000  0.4404  0.2563  1.2091
12804TIP3    H259828   5.587   6.027  13.981 -0.7389 -0.9723 -0.7087
12805TIP3   OH259829   4.461   0.609   4.302  0.4005  0.1416  0.0270
12805TIP3    H159830   4.526   0.550   4.264 -0.3508 -1.2728  0.8666
12805TIP3    H259831   4.436   0.666   4.230  1.3144 -0.4062 -0.7503
12806TIP3   OH259832   5.295   0.282  11.758 -0.0488  0.0716  0.2378
12806TIP3    H159833   5.293   0.346  11.687  1.0825  0.2281  0.3206
12806TIP3    H259834   5.247   0.207  11.725  1.4868 -0.3341 -1.2052
12807TIP3   OH259835   3.520   6.591   5.583 -1.1119  0.0736 -0.1545
12807TIP3    H159836   3.582   6.602   5.511  1.0861 -0.9578  1.4621
12807TIP3    H259837   3.500   6.497   5.582 -2.3256  0.3168 -0.3475
12808TIP3   OH259838   4.085   3.642   1.536  0.2659 -0.1258  0.1064
12808TIP3    H159839   4.176   3.667   1.547  0.8597 -2.2014  0.3183
12808TIP3    H259840   4.085   3.546   1.541 -2.0634 -0.1481  1.0948
12809TIP3   OH259841   3.290   1.055  16.087 -0.6854 -0.5104 -0.2469
12809TIP3    H159842   3.368   1.044  16.140 -0.9502 -2.0772 -0.1388
12809TIP3    H259843   3.315   1.024  16.000 -0.7261  0.5404 -0.6548
12810TIP3   OH259844   2.397   4.669  17.219  0.3746 -0.0519 -0.2492
12810TIP3    H159845   2.352   4.621  17.150  2.2076 -0.9503 -0.8766
12810TIP3    H259846   2.467   4.716  17.174  2.2932 -1.4971  1.0574
12811TIP3   OH259847   4.461   1.195   4.251  0.3096 -0.1910  0.2945
12811TIP3    H159848   4.504   1.154   4.176  1.5492 -0.9012  1.3608
12811TIP3    H259849   4.399   1.129   4.282  0.1084 -0.0625  0.1710
12812TIP3   OH259850   1.085   4.032   5.495 -0.1958 -0.0746 -0.1979
12812TIP3    H159851   1.120   4.061   5.411 -1.1549  2.4208  0.1782
12812TIP3    H259852   0.997   4.070   5.500 -0.8652 -1.6312  1.2110
12813TIP3   OH259853   6.306   0.020  11.757  0.2377 -0.1916  0.0869
12813TIP3    H159854   6.340  -0.069  11.765  1.0919  0.1020 -0.1459
12813TIP3    H259855   6.301   0.052  11.847 -1.3741 -0.9251  0.2943
12814TIP3   OH259856   5.448   2.913   4.149  0.5167 -0.2773  0.0211
12814TIP3    H159857   5.410   2.899   4.236  2.2466 -0.7141  0.7414
12814TIP3    H259858   5.469   3.006   4.146  0.2676 -0.2224 -0.0038
12815TIP3   OH259859   1.405   2.471   6.012  0.2364  0.4393 -0.2594
12815TIP3    H159860   1.405   2.556   6.056 -1.4144  0.1028  0.4337
12815TIP3    H259861   1.420   2.408   6.082  2.0344  0.1513 -0.8504
12816TIP3   OH259862   0.207   1.687   5.851  0.5408  0.4054  0.3024
12816TIP3    H159863   0.223   1.620   5.917 -0.4164 -0.3680 -0.2095
12816TIP3    H259864   0.256   1.656   5.774 -0.7617 -0.3281 -0.2796
12817TIP3   OH259865   4.688   4.687   4.046 -0.1850 -0.6099 -0.1924
12817TIP3    H159866   4.698   4.783   4.050  2.2145 -0.8199  0.3104
12817TIP3    H259867   4.699   4.666   3.953 -1.9397 -0.3393 -0.4969
12818TIP3   OH259868   5.264   4.167  14.928 -0.1015 -0.1721  0.3785
12818TIP3    H159869   5.271   4.072  14.918  0.9170 -0.1165  0.4021
12818TIP3    H259870   5.188   4.180  14.984 -0.2612 -0.9757  0.3627
12819TIP3   OH259871   6.375   6.681  13.768 -0.3040  0.0103 -0.3304
12819TIP3    H159872   6.291   6.639  13.749  0.2618 -0.6546 -1.4945
12819TIP3    H259873   6.353   6.772  13.785 -1.4489 -0.5091  1.2325
12820TIP3   OH259874   0.167   1.050   0.603  0.5088 -0.1232 -0.1099
12820TIP3    H159875   0.219   1.045   0.683  0.2177 -1.0727  0.0380
12820TIP3    H259876   0.175   0.963   0.563 -1.7126 -0.6603  0.4335
12821TIP3   OH259877   2.248   2.080   1.959 -0.0203  0.7332 -0.2191
12821TIP3    H159878   2.254   2.174   1.975  0.2355  0.4903  1.2531
12821TIP3    H259879   2.163   2.068   1.917 -0.9912  1.4067  1.4533
12822TIP3   OH259880   2.138   5.063   5.617  0.0086  0.5565  0.4376
12822TIP3    H159881   2.055   5.049   5.571  0.4694 -2.3222  0.2767
12822TIP3    H259882   2.127   5.017   5.700  1.7666 -0.8842 -0.0615
12823TIP3   OH259883   6.401   2.138   4.697 -0.6712  0.0047 -0.1625
12823TIP3    H159884   6.352   2.080   4.638  1.5220 -3.0288  0.7900
12823TIP3    H259885   6.426   2.212   4.641 -1.3106 -1.2141 -2.1849
12824TIP3   OH259886   1.914   0.659  16.003 -0.0947  0.3286 -0.1207
12824TIP3    H159887   1.941   0.678  16.092  1.1435 -0.3066 -0.3442
12824TIP3    H259888   1.899   0.564  16.002 -0.9175  0.4511 -0.3835
12825TIP3   OH259889   4.894   6.025  14.871  0.3006  0.5143 -0.1235
12825TIP3    H159890   4.888   5.959  14.803 -3.1182  0.2328  0.2568
12825TIP3    H259891   4.879   6.108  14.826 -3.3659  0.2174  0.2572
12826TIP3   OH259892   5.296   2.266  16.710  0.1727 -0.0802 -0.4285
12826TIP3    H159893   5.213   2.310  16.730 -0.6424 -2.0292  0.7380
12826TIP3    H259894   5.342   2.263  16.794  0.5029 -0.8055 -0.6302
12827TIP3   OH259895   0.831   4.001   6.208 -0.5090  0.7048 -0.0810
12827TIP3    H159896   0.813   3.908   6.193  1.7416  0.4809 -2.0130
12827TIP3    H259897   0.756   4.047   6.172 -0.6256 -0.3222 -1.2172
12828TIP3   OH259898   4.335   4.346   0.756  0.2920  0.1646  0.5038
12828TIP3    H159899   4.379   4.338   0.671 -2.0528 -1.3146 -0.6789
12828TIP3    H259900   4.314   4.440   0.762  1.7537  0.5379  0.1566
12829TIP3   OH259901   0.473   5.719  16.567 -0.4284  0.7716 -0.4435
12829TIP3    H159902   0.479   5.699  16.660 -4.2766 -0.3823 -0.2547
12829TIP3    H259903   0.547   5.674  16.527 -0.9751 -2.2255  1.6472
12830TIP3   OH259904   2.546   2.801  14.316  0.1862  0.1443  0.3895
12830TIP3    H159905   2.576   2.861  14.247 -1.1323  0.7833  0.3357
12830TIP3    H259906   2.596   2.720  14.301 -0.3036  0.1431 -1.5453
12831TIP3   OH259907   4.828   4.719   5.223 -0.1487 -0.0310  0.3250
12831TIP3    H159908   4.888   4.781   5.265  0.2856 -0.4175  0.2950
12831TIP3    H259909   4.886   4.654   5.182 -0.4874  1.2473 -2.3569
12832TIP3   OH259910   6.185   0.203  14.505  0.1402 -0.0352 -0.0629
12832TIP3    H159911   6.273   0.166  14.517  0.6969  1.3597  0.4792
12832TIP3    H259912   6.187   0.241  14.418  0.6563  1.3871  0.5347
12833TIP3   OH259913   0.172   4.882   3.862 -0.8506  0.1973  0.1982
12833TIP3    H159914   0.258   4.925   3.863 -0.3491 -0.7743  0.8854
12833TIP3    H259915   0.176   4.823   3.786 -0.6003 -0.4157  0.6744
12834TIP3   OH259916   2.987   4.131  14.719  0.1015  0.1560  0.0962
12834TIP3    H159917   3.049   4.153  14.649 -0.4164 -0.1467 -0.4698
12834TIP3    H259918   2.901   4.131  14.676 -0.0892 -1.4157  0.3985
12835TIP3   OH259919   6.263   6.473  11.474  0.0707 -0.0854  0.6026
12835TIP3    H159920   6.180   6.475  11.521  0.5056 -1.3237  1.4886
12835TIP3    H259921   6.320   6.533  11.522 -0.0747  0.1586  0.4695
12836TIP3   OH259922   1.521   4.566   0.150 -0.3133 -0.1305 -0.2668
12836TIP3    H159923   1.459   4.589   0.080 -0.3239  0.7985  0.0354
12836TIP3    H259924   1.465   4.553   0.227 -0.4171 -2.2007 -0.6321
12837TIP3   OH259925   3.530   6.205   3.911 -0.1658  0.2858 -0.1895
12837TIP3    H159926   3.450   6.224   3.862  0.4553  0.6792 -1.0882
12837TIP3    H259927   3.547   6.285   3.960  0.0713  0.4707 -0.5702
12838TIP3   OH259928   0.678   0.988  11.905 -0.1591  0.3936 -0.4598
12838TIP3    H159929   0.723   0.950  11.829  1.1359 -2.3385  1.4815
12838TIP3    H259930   0.586   0.968  11.890  0.2053 -1.1452 -0.8347
12839TIP3   OH259931   4.109   2.122  16.444  0.1972  0.3358 -0.2056
12839TIP3    H159932   4.114   2.075  16.362  1.3208  1.5744 -0.8829
12839TIP3    H259933   4.040   2.078  16.493  2.0726 -2.8528 -0.2029
12840TIP3   OH259934   5.631   3.026   2.464 -0.2164 -0.5370  0.2888
12840TIP3    H159935   5.655   3.033   2.372 -1.0905 -0.0892  0.0861
12840TIP3    H259936   5.590   3.110   2.485 -1.2270 -1.1236  0.7235
12841TIP3   OH259937   5.778   4.429  15.846  0.4159  0.3283 -0.6333
12841TIP3    H159938   5.732   4.505  15.809 -1.3573 -1.3622 -2.0979
12841TIP3    H259939   5.726   4.354  15.818  0.0169 -1.3069  3.7652
12842TIP3   OH259940   5.532   5.650   5.703  0.2339 -0.1102  0.0242
12842TIP3    H159941   5.592   5.644   5.629  0.6705 -1.8966  0.4621
12842TIP3    H259942   5.518   5.559   5.730 -1.0312  0.4008  1.2507
12843TIP3   OH259943   3.163   4.976   1.100 -0.5162  0.1344  0.2831
12843TIP3    H159944   3.073   4.974   1.131 -0.8470  0.3339 -0.6418
12843TIP3    H259945   3.170   5.058   1.050 -0.0047 -0.1725 -0.1657
12844TIP3   OH259946   6.539   6.638   1.897 -0.3243 -0.0099 -0.0588
12844TIP3    H159947   6.493   6.554   1.903 -1.1609  0.3822 -0.7632
12844TIP3    H259948   6.629   6.618   1.923 -0.5243 -1.1126 -0.1577
12845TIP3   OH259949   2.923   5.753  13.352  0.5849 -0.3656 -0.0589
12845TIP3    H159950   2.863   5.825  13.333  0.1419 -1.0716 -1.4294
12845TIP3    H259951   2.867   5.683  13.386  0.7705 -0.6520 -0.3345
12846TIP3   OH259952   2.622   0.324   4.688  0.3321  0.3817  0.5192
12846TIP3    H159953   2.689   0.377   4.731 -0.5671  0.7615  1.4903
12846TIP3    H259954   2.572   0.386   4.635  1.2332 -0.0337 -0.8851
12847TIP3   OH259955   6.462   2.813   3.120 -0.2746  0.0562 -0.0475
12847TIP3    H159956   6.402   2.879   3.085 -0.7172 -0.2497  0.1198
12847TIP3    H259957   6.532   2.807   3.055  1.8536  3.4362  1.6508
12848TIP3   OH259958   2.675   2.575   0.110  0.2843 -0.2268 -0.2884
12848TIP3    H159959   2.684   2.569   0.205 -0.7307  0.4514 -0.1317
12848TIP3    H259960   2.672   2.669   0.092 -0.3158 -0.3535 -0.9029
12849TIP3   OH259961   2.025   2.343  11.593 -0.1385  0.2549  0.0107
12849TIP3    H159962   2.008   2.416  11.653  1.3542  0.1946  0.5400
12849TIP3    H259963   1.968   2.273  11.625 -0.8877  0.8847  0.0781
12850TIP3   OH259964   6.327   4.824   5.656 -0.5072 -0.3708 -0.0246
12850TIP3    H159965   6.272   4.896   5.624  0.1884  0.1909  0.0169
12850TIP3    H259966   6.307   4.818   5.749 -1.5967 -1.1681 -0.2844
12851TIP3   OH259967   4.601   6.333  13.877  0.0955 -0.1221  0.5050
12851TIP3    H159968   4.520   6.367  13.841 -0.4668 -1.2439  0.6731
12851TIP3    H259969   4.575   6.288  13.958  0.7372 -1.2888  0.0857
12852TIP3   OH259970   2.855   1.287  16.530 -0.2352 -0.6564 -0.5639
12852TIP3    H159971   2.851   1.331  16.615  0.1866 -0.0874 -0.8342
12852TIP3    H259972   2.765   1.258  16.514 -0.4544 -0.1697 -0.2314
12853TIP3   OH259973   3.116   1.575   3.492 -1.1914 -0.3106  0.2553
12853TIP3    H159974   3.209   1.557   3.507 -0.7361  0.9062 -0.9356
12853TIP3    H259975   3.073   1.545   3.572  0.2583 -0.5823  0.9674
12854TIP3   OH259976   5.899   1.134   5.880 -0.2338 -0.0821  0.1204
12854TIP3    H159977   5.928   1.045   5.895 -0.8737 -0.1480  1.0206
12854TIP3    H259978   5.831   1.149   5.945  1.0804  1.6573  1.1897
12855TIP3   OH259979   5.389   0.581  15.702  0.2947  0.1778  0.3981
12855TIP3    H159980   5.465   0.635  15.728  0.2436 -0.4652  1.9650
12855TIP3    H259981   5.328   0.644  15.663  1.1545  0.8980  0.1800
12856TIP3   OH259982   2.620   0.601  14.135  0.2477 -0.1772  0.5775
12856TIP3    H159983   2.574   0.635  14.212  0.7091 -0.1357  0.8382
12856TIP3    H259984   2.612   0.671  14.070 -0.0801 -0.1817  0.6118
12857TIP3   OH259985   2.577   1.723   5.122  0.3009  0.3009  0.1515
12857TIP3    H159986   2.619   1.759   5.200  1.4454 -0.6177 -0.0223
12857TIP3    H259987   2.628   1.646   5.100 -0.4760  0.1041 -1.0643
12858TIP3   OH259988   4.743   4.693   2.143 -0.1460 -0.0720 -0.1657
12858TIP3    H159989   4.804   4.641   2.091  0.2200  0.3164 -0.1390
12858TIP3    H259990   4.790   4.775   2.159  1.4189 -1.5184  4.0189
12859TIP3   OH259991   1.514   3.506   3.558 -0.0504  0.0282  0.2868
12859TIP3    H159992   1.448   3.479   3.493  0.5524  0.4773 -0.5316
12859TIP3    H259993   1.482   3.470   3.641 -0.2826 -1.5026 -0.4351
12860TIP3   OH259994   5.610   1.055   4.590  0.1656 -0.1777 -0.1384
12860TIP3    H159995   5.585   1.032   4.680 -1.3530 -1.1851 -0.7688
12860TIP3    H259996   5.688   1.002   4.573 -1.6342 -2.8523 -0.5910
12861TIP3   OH259997   5.700   1.403  13.916 -0.3932 -0.1319  0.2052
12861TIP3    H159998   5.687   1.497  13.900  1.5466  0.1394 -0.0755
12861TIP3    H259999   5.613   1.365  13.908 -0.8392  1.2023 -2.7466
12862TIP3   OH260000   2.937   6.473   3.958  0.3756  0.0399  0.4156
12862TIP3    H160001   2.881   6.537   3.914  1.1773 -0.2556 -1.1143
12862TIP3    H260002   3.024   6.488   3.921  0.8097 -1.1752  0.8902
12863TIP3   OH260003   3.267   5.245  10.864  0.2184 -0.6583  0.5470
12863TIP3    H160004   3.354   5.270  10.833 -0.1791 -0.4930 -0.4684
12863TIP3    H260005   3.265   5.150  10.854  0.0963 -0.6060  0.0945
12864TIP3   OH260006   1.157   1.901  12.448  0.0645  0.5397 -0.6861
12864TIP3    H160007   1.138   1.888  12.541 -2.0370  1.2292 -0.9661
12864TIP3    H260008   1.225   1.836  12.428 -0.3502 -0.4905  1.0405
12865TIP3   OH260009   4.421   0.894   6.734  0.7285 -0.0745  0.3328
12865TIP3    H160010   4.431   0.839   6.657 -1.5778 -0.4728  0.2708
12865TIP3    H260011   4.469   0.974   6.712 -1.1227  0.4559 -2.1990
12866TIP3   OH260012   3.909   1.044  15.898 -0.3307 -0.7914  0.0418
12866TIP3    H160013   3.866   1.082  15.821  0.9900 -2.7573 -1.7635
12866TIP3    H260014   3.959   1.117  15.936 -1.8133  0.4585 -0.3002
12867TIP3   OH260015   6.628   5.394  13.569 -0.2606 -0.0509 -0.4128
12867TIP3    H160016   6.700   5.352  13.617  0.2157  0.5795 -0.5526
12867TIP3    H260017   6.672   5.451  13.506 -0.8901 -0.1191 -0.9222
12868TIP3   OH260018   4.484   2.978  15.223  0.3877  0.2626  0.1010
12868TIP3    H160019   4.524   2.893  15.205  1.5040  0.0908  2.8309
12868TIP3    H260020   4.548   3.023  15.278 -1.4194  1.6600  1.1885
12869TIP3   OH260021   2.256   3.393  11.564 -0.5950  0.4777  0.8427
12869TIP3    H160022   2.280   3.356  11.479 -1.7049 -3.3888  1.9770
12869TIP3    H260023   2.179   3.447  11.546  0.6602  1.7617 -0.8849
12870TIP3   OH260024   4.143   4.208   4.756  0.1768 -0.1139  0.3423
12870TIP3    H160025   4.225   4.257   4.767 -1.2543  2.1793  1.7155
12870TIP3    H260026   4.119   4.223   4.664  0.9334 -0.2094  0.1248
12871TIP3   OH260027   6.470   5.129  14.312 -0.1965  0.2428  0.2851
12871TIP3    H160028   6.445   5.084  14.231 -2.1652  0.1034  0.9163
12871TIP3    H260029   6.438   5.218  14.301  0.2486  0.4401  0.5832
12872TIP3   OH260030   5.559   1.819   3.977 -0.0465 -1.0652 -0.5328
12872TIP3    H160031   5.541   1.781   4.063  0.2229 -0.4089 -0.1759
12872TIP3    H260032   5.483   1.875   3.959 -0.7506 -2.2255 -1.3453
12873TIP3   OH260033   4.429   3.508   5.685  0.1162 -0.1272 -0.0130
12873TIP3    H160034   4.488   3.462   5.625 -0.4978 -1.9036  0.6973
12873TIP3    H260035   4.448   3.472   5.771 -1.1220  0.1964  0.4191
12874TIP3   OH260036   4.356   1.762  16.094  0.0912  0.6988  0.0053
12874TIP3    H160037   4.362   1.805  16.009  0.5106  0.4072 -0.1120
12874TIP3    H260038   4.378   1.830  16.158  1.3043  0.5301 -0.2090
12875TIP3   OH260039   6.244   0.673  15.826  0.4212 -0.3008 -0.4574
12875TIP3    H160040   6.329   0.696  15.789  0.2938  0.4474 -0.2986
12875TIP3    H260041   6.192   0.644  15.751  0.6709 -0.3281 -0.6214
12876TIP3   OH260042   6.427   6.594   1.074  0.0263 -0.8920 -0.1966
12876TIP3    H160043   6.356   6.648   1.110  0.5295 -1.4273  1.6866
12876TIP3    H260044   6.390   6.559   0.992 -2.0572 -1.4760  0.9129
12877TIP3   OH260045   3.373   5.814  16.160  0.0726 -0.2796 -0.1892
12877TIP3    H160046   3.391   5.840  16.070  1.2057 -0.4721 -0.0280
12877TIP3    H260047   3.317   5.736  16.152  0.3288 -0.4107 -0.7208
12878TIP3   OH260048   5.584   0.005   0.840 -0.1256  0.2191 -0.2114
12878TIP3    H160049   5.508   0.052   0.805  0.7337  1.3098 -0.6456
12878TIP3    H260050   5.644  -0.002   0.766  0.4211 -0.1764  0.2628
12879TIP3   OH260051   0.446   1.066   0.669 -0.1712 -0.3404  0.3650
12879TIP3    H160052   0.393   1.135   0.630 -0.1415 -1.2999 -1.5072
12879TIP3    H260053   0.524   1.111   0.701 -1.3079  0.8335  1.6022
12880TIP3   OH260054   5.227   0.062   5.558 -0.1161  0.4408 -0.3517
12880TIP3    H160055   5.319   0.049   5.580 -0.3249 -3.9182 -1.0227
12880TIP3    H260056   5.180   0.004   5.617 -2.3176  1.4762 -0.9818
12881TIP3   OH260057   4.003   4.748  14.389 -0.2814  0.2472 -0.0384
12881TIP3    H160058   4.063   4.707  14.452 -0.2306  1.9095  1.0294
12881TIP3    H260059   3.935   4.787  14.442 -0.5565  1.1910 -1.0551
12882TIP3   OH260060   4.257   6.100  11.369  0.0439  0.4994 -0.1034
12882TIP3    H160061   4.328   6.134  11.423  0.4413 -0.5950  0.0969
12882TIP3    H260062   4.254   6.159  11.293  1.1819  0.5642 -0.1250
12883TIP3   OH260063   5.568   2.826   0.084 -0.4153 -0.3217 -0.3075
12883TIP3    H160064   5.574   2.907   0.135  2.2990  0.0847 -1.0725
12883TIP3    H260065   5.485   2.833   0.037 -1.4824  0.7621  1.5997
12884TIP3   OH260066   6.481   4.161   2.224 -0.3141 -0.1516  0.2767
12884TIP3    H160067   6.449   4.144   2.313 -2.4380  2.7388  0.2471
12884TIP3    H260068   6.567   4.202   2.237 -1.3273  1.8527  1.2414
12885TIP3   OH260069   5.104   6.513   3.494  0.3579 -0.4256 -0.0847
12885TIP3    H160070   5.055   6.479   3.569  2.0314 -0.2228  1.1680
12885TIP3    H260071   5.191   6.533   3.530  0.8365  0.8203 -1.8196
12886TIP3   OH260072   4.927   2.642  12.021 -0.2439  0.5612 -0.1133
12886TIP3    H160073   4.943   2.704  12.091 -1.5321  1.6839 -0.7749
12886TIP3    H260074   5.011   2.635  11.975  0.6026 -0.1538  1.4506
12887TIP3   OH260075   3.579   4.312  12.861  0.0049 -0.0964  0.4563
12887TIP3    H160076   3.490   4.277  12.866  0.2248 -0.5332  2.5441
12887TIP3    H260077   3.575   4.396  12.906 -0.0964  1.8416 -2.8462
12888TIP3   OH260078   3.394   1.673  14.348  0.0148 -0.2960 -0.5858
12888TIP3    H160079   3.440   1.720  14.418  0.7735  0.3796 -1.5138
12888TIP3    H260080   3.307   1.713  14.347  0.2027  0.1328 -0.4352
12889TIP3   OH260081   5.227   2.973   0.571  0.1703  0.1112 -0.0224
12889TIP3    H160082   5.131   2.976   0.566  0.1531 -1.2593 -1.4538
12889TIP3    H260083   5.256   3.031   0.501  0.3272 -0.7552 -0.7039
12890TIP3   OH260084   3.329   2.945   0.662  0.4191 -0.4985  0.0332
12890TIP3    H160085   3.328   2.865   0.610 -0.8346 -1.1623  1.0575
12890TIP3    H260086   3.284   2.923   0.743  1.3935  0.8212  0.9880
12891TIP3   OH260087   1.714   4.481   5.580 -0.0982  0.5630  0.1012
12891TIP3    H160088   1.633   4.486   5.630  0.1265 -0.8630  0.6601
12891TIP3    H260089   1.687   4.494   5.489 -0.6914  1.8541  0.4408
12892TIP3   OH260090   1.610   5.578  14.371  0.3553 -0.1587  0.5628
12892TIP3    H160091   1.611   5.593  14.277 -0.4219  2.5223  0.9074
12892TIP3    H260092   1.522   5.603  14.399  1.2889  1.4684  2.2942
12893TIP3   OH260093   4.238   1.607  13.641  0.3942 -0.0802 -0.1129
12893TIP3    H160094   4.212   1.527  13.688 -3.2009  1.7634  1.3573
12893TIP3    H260095   4.195   1.600  13.556  2.1482 -0.7287 -1.0135
12894TIP3   OH260096   6.639   5.979   4.617 -0.4977 -0.6511 -0.8345
12894TIP3    H160097   6.732   5.986   4.593 -0.2684  0.1204  0.2099
12894TIP3    H260098   6.631   6.032   4.696 -1.7876 -0.9183 -0.7714
12895TIP3   OH260099   1.998   5.662   5.574 -0.2297  0.1332  0.3090
12895TIP3    H160100   1.907   5.689   5.585  0.2200  0.9115  2.4674
12895TIP3    H260101   1.993   5.568   5.557 -1.4353  0.2504 -0.1016
12896TIP3   OH260102   4.533   6.461   1.462  0.0443 -0.4910 -0.3311
12896TIP3    H160103   4.566   6.550   1.470  1.2316 -1.0543  2.3609
12896TIP3    H260104   4.441   6.472   1.439 -0.1655  1.5320  1.1307
12897TIP3   OH260105   0.336   1.974  16.614  0.0857  0.5647  0.3399
12897TIP3    H160106   0.242   1.959  16.625  0.0262  0.2906 -0.4605
12897TIP3    H260107   0.341   2.049  16.554  0.3717  0.2808  0.0032
12898TIP3   OH260108   6.196   6.448   5.009  0.3163  0.3321 -0.2505
12898TIP3    H160109   6.208   6.499   5.088  0.9776  0.9429 -0.7397
12898TIP3    H260110   6.205   6.511   4.937  0.3459 -0.3195 -0.8326
12899TIP3   OH260111   4.403   6.212   5.000 -0.0896 -0.0403 -0.6219
12899TIP3    H160112   4.483   6.176   4.964 -0.2029  0.9734 -1.9601
12899TIP3    H260113   4.432   6.283   5.058  0.0116 -0.4089 -0.2153
12900TIP3   OH260114   3.642   4.456  15.875  0.2919  0.2127  0.2503
12900TIP3    H160115   3.725   4.459  15.828  0.7963  1.3625  1.1545
12900TIP3    H260116   3.590   4.525  15.835 -0.2213 -0.4731 -0.2810
12901TIP3   OH260117   0.254   0.273  13.835 -0.4357 -0.5556 -0.0465
12901TIP3    H160118   0.331   0.226  13.864 -0.9668 -0.4424  1.6132
12901TIP3    H260119   0.262   0.361  13.873 -0.4995  0.0543 -1.3662
12902TIP3   OH260120   4.701   2.667  16.665 -0.1189 -0.3575 -0.1202
12902TIP3    H160121   4.768   2.734  16.678 -0.4886  0.1425 -0.7189
12902TIP3    H260122   4.623   2.717  16.641 -0.1345 -1.0575 -1.5860
12903TIP3   OH260123   1.276   0.549  14.619  0.4148 -0.2415 -0.1640
12903TIP3    H160124   1.264   0.468  14.669 -1.8957  0.6726  0.9180
12903TIP3    H260125   1.305   0.613  14.684 -0.5225  0.4556 -0.4115
12904TIP3   OH260126   3.878   1.098   0.176 -0.1158  0.4161  0.4779
12904TIP3    H160127   3.967   1.082   0.143 -0.1568 -0.3259  0.7120
12904TIP3    H260128   3.869   1.194   0.174  0.0652  0.4378 -1.1633
12905TIP3   OH260129   5.956   1.619  14.881  0.4493  0.1892 -0.3320
12905TIP3    H160130   6.044   1.596  14.850  1.2583  2.9583 -0.4219
12905TIP3    H260131   5.907   1.642  14.802  0.3890  0.8014 -0.1276
12906TIP3   OH260132   4.642   3.981  13.750  1.0396  0.4524 -0.5732
12906TIP3    H160133   4.703   4.037  13.797  1.1048  0.3803 -0.5716
12906TIP3    H260134   4.655   3.894  13.787 -0.6060  0.8050  0.9771
12907TIP3   OH260135   5.362   0.733  10.832 -0.1684 -0.1492  0.2901
12907TIP3    H160136   5.390   0.822  10.810 -0.2862  0.1604  1.3531
12907TIP3    H260137   5.438   0.694  10.875  0.9146 -1.5593 -2.6295
12908TIP3   OH260138   1.859   3.072  17.049 -0.6205 -0.0528  0.4539
12908TIP3    H160139   1.835   3.051  17.140 -2.1847 -0.6100 -0.0521
12908TIP3    H260140   1.902   2.993  17.017 -2.7023 -1.0360 -0.1383
12909TIP3   OH260141   1.142   6.252   2.784  0.0425 -0.5279  0.3777
12909TIP3    H160142   1.225   6.240   2.737 -0.5702 -0.2833 -0.7935
12909TIP3    H260143   1.169   6.279   2.872  1.2122 -0.7867  0.1256
12910TIP3   OH260144   5.377   4.029  12.372 -0.3006 -0.2468 -0.3677
12910TIP3    H160145   5.436   3.975  12.319 -0.5428  0.0711 -0.9659
12910TIP3    H260146   5.402   4.009  12.463 -0.8648 -1.9346 -0.5301
12911TIP3   OH260147   0.727   0.040  12.421 -0.1230  0.0086 -0.2598
12911TIP3    H160148   0.696   0.125  12.454  1.7621  0.5317  0.2977
12911TIP3    H260149   0.816   0.058  12.389  0.1904 -1.6970 -0.4417
12912TIP3   OH260150   3.563   5.304  12.702  0.2190  0.2934  0.1106
12912TIP3    H160151   3.637   5.249  12.675 -0.5056 -0.6004 -0.1110
12912TIP3    H260152   3.603   5.378  12.747  1.2349 -0.3971  0.3845
12913TIP3   OH260153   4.818   2.902  16.805 -0.6145  0.6425 -0.1494
12913TIP3    H160154   4.750   2.969  16.815 -1.6421 -0.4281  0.1176
12913TIP3    H260155   4.859   2.897  16.891 -0.7833  0.6629 -0.0676
12914TIP3   OH260156   4.108   2.006  14.157  0.3595  0.1526 -0.4224
12914TIP3    H160157   4.088   2.044  14.071  2.0455  1.0261 -0.4839
12914TIP3    H260158   4.204   2.001  14.159  0.2707 -2.7816  0.2132
12915TIP3   OH260159   3.913   4.967   2.614  0.2231 -0.6888 -0.3677
12915TIP3    H160160   3.914   4.878   2.580  1.2417 -1.1417  0.7673
12915TIP3    H260161   3.966   5.018   2.553 -1.0366 -0.6510 -1.4753
12916TIP3   OH260162   5.788   4.068  11.951  0.7366  0.0523  0.1343
12916TIP3    H160163   5.772   4.101  11.862  3.5057  1.0504 -0.1100
12916TIP3    H260164   5.754   3.979  11.950 -1.9100  0.9717 -0.9724
12917TIP3   OH260165   1.883   1.122   2.055  0.1096 -1.0067  0.2275
12917TIP3    H160166   1.869   1.193   1.993 -0.7186 -1.3204  0.0359
12917TIP3    H260167   1.975   1.100   2.046  0.2784 -0.2423 -0.0142
12918TIP3   OH260168   6.330   3.097   4.564  1.0704 -0.5745  0.6188
12918TIP3    H160169   6.404   3.070   4.511  0.4019  0.4026 -0.8941
12918TIP3    H260170   6.340   3.192   4.573 -0.7106 -0.1787 -0.8779
12919TIP3   OH260171   4.097   3.980   2.020  0.4334 -0.1251 -0.3851
12919TIP3    H160172   4.146   4.044   1.967 -1.2360  0.6251 -1.0842
12919TIP3    H260173   4.011   3.975   1.978 -0.9636  0.4548  2.2054
12920TIP3   OH260174   3.215   4.090   2.143 -0.2974 -0.0811 -0.4238
12920TIP3    H160175   3.163   4.092   2.063  1.7629 -0.2386 -1.8436
12920TIP3    H260176   3.273   4.166   2.135  0.5409 -0.6102  0.4978
12921TIP3   OH260177   6.650   0.274   2.468 -0.6094 -0.0275 -0.1129
12921TIP3    H160178   6.572   0.325   2.445 -0.3667  0.4983  0.2069
12921TIP3    H260179   6.667   0.220   2.391  0.1366  1.6170 -1.1466
12922TIP3   OH260180   1.749   4.189   5.386 -0.3547  0.1590 -0.8853
12922TIP3    H160181   1.789   4.127   5.326 -1.1627 -0.8710 -0.3951
12922TIP3    H260182   1.661   4.155   5.401 -0.3742  0.7051  0.4191
12923TIP3   OH260183   2.829   0.659  12.209 -0.4462  1.0551 -0.6173
12923TIP3    H160184   2.866   0.683  12.124 -0.6690 -0.5387 -1.2151
12923TIP3    H260185   2.845   0.565  12.215 -0.0878  1.2117  1.3011
12924TIP3   OH260186   5.157   1.026  10.937 -0.0032  0.1545  0.5019
12924TIP3    H160187   5.230   1.087  10.931  0.0828  0.0588  0.5778
12924TIP3    H260188   5.098   1.064  11.002 -0.1097  0.3245  0.3062
12925TIP3   OH260189   4.080   2.399  13.990 -0.1228  0.0133 -0.2745
12925TIP3    H160190   4.122   2.313  13.985 -2.9667 -1.4456 -1.0106
12925TIP3    H260191   4.043   2.401  14.078 -0.2663  0.4063 -0.3440
12926TIP3   OH260192   3.896   0.168   1.163 -0.0319  0.5255  0.6190
12926TIP3    H160193   3.827   0.123   1.211 -1.5013  0.7406 -1.1787
12926TIP3    H260194   3.891   0.259   1.192  1.2983  0.0841  2.4183
12927TIP3   OH260195   4.555   1.298   2.192 -0.8376 -0.5484 -0.5631
12927TIP3    H160196   4.549   1.314   2.287 -0.6139  1.0243 -0.8016
12927TIP3    H260197   4.479   1.242   2.173 -1.5415  0.0667  0.3534
12928TIP3   OH260198   2.256   0.418  13.371 -0.1432 -0.8394 -0.2320
12928TIP3    H160199   2.292   0.330  13.385  0.2711 -1.0571 -2.2570
12928TIP3    H260200   2.189   0.405  13.303 -1.1179  0.2131  0.4927
12929TIP3   OH260201   3.801   3.278   4.644 -0.0660 -0.3866  0.3382
12929TIP3    H160202   3.830   3.316   4.561  2.5027 -0.4563  1.1165
12929TIP3    H260203   3.819   3.185   4.635 -2.9020 -0.9970 -0.1736
12930TIP3   OH260204   5.657   1.680   0.636 -0.4398 -0.1543 -0.2602
12930TIP3    H160205   5.685   1.612   0.697 -0.5674 -0.8735 -0.9888
12930TIP3    H260206   5.732   1.693   0.578 -1.1660 -1.2337 -1.4728
12931TIP3   OH260207   5.051   5.184  15.245 -0.7031 -0.1613  0.2443
12931TIP3    H160208   5.106   5.178  15.167 -2.2427  2.1862 -1.1855
12931TIP3    H260209   5.087   5.259  15.293  0.9783 -2.3144  2.5377
12932TIP3   OH260210   6.648   1.724   6.422 -0.0991 -0.4014  0.3506
12932TIP3    H160211   6.563   1.757   6.393  0.8493  0.6386 -1.4471
12932TIP3    H260212   6.687   1.797   6.469  0.8457  0.1278 -1.1691
12933TIP3   OH260213   2.113   2.911  15.761 -0.5360 -0.3899 -0.4224
12933TIP3    H160214   2.208   2.895  15.768 -0.1817  1.0389 -1.4999
12933TIP3    H260215   2.085   2.852  15.691 -0.3117 -0.3694 -0.5336
12934TIP3   OH260216   5.156   3.127   3.242 -0.5609 -0.0812  0.7425
12934TIP3    H160217   5.102   3.206   3.246  2.6426  2.3816 -0.2361
12934TIP3    H260218   5.207   3.128   3.323  1.9214  0.8798 -0.7245
12935TIP3   OH260219   4.004   1.362  12.717 -0.0397 -0.2769  0.2329
12935TIP3    H160220   4.090   1.324  12.697 -0.2638 -0.5144 -0.2949
12935TIP3    H260221   3.943   1.288  12.710 -0.4458  0.1202 -0.5710
12936TIP3   OH260222   5.060   2.839   0.210 -0.0656  0.1954  0.3737
12936TIP3    H160223   5.018   2.824   0.295  1.1413  2.2496  1.4359
12936TIP3    H260224   4.989   2.868   0.153 -0.7804 -0.5006  0.8878
12937TIP3   OH260225   0.190   6.077  15.710 -0.2605  0.1991 -0.0036
12937TIP3    H160226   0.179   5.989  15.675  0.3643 -0.1566  0.6720
12937TIP3    H260227   0.101   6.109  15.723 -0.4922 -0.3626 -0.1633
12938TIP3   OH260228   0.119   1.734  13.850  0.0334 -0.1048  0.3439
12938TIP3    H160229   0.169   1.815  13.860 -0.5731  0.2633  0.4203
12938TIP3    H260230   0.132   1.710  13.758  0.5338 -0.1376  0.4203
12939TIP3   OH260231   3.680   1.777   0.858  0.1536  0.0884  0.7842
12939TIP3    H160232   3.679   1.742   0.768 -0.5333  0.9949  0.4201
12939TIP3    H260233   3.772   1.774   0.884  0.2207 -1.2457  0.4838
12940TIP3   OH260234   3.386   5.330   3.349  0.1435  0.0942  0.2528
12940TIP3    H160235   3.306   5.361   3.391 -0.7998  0.3763 -1.6353
12940TIP3    H260236   3.419   5.406   3.302  1.0930 -0.2419  0.3536
12941TIP3   OH260237   6.733   1.407  15.261 -0.1307  0.1190 -0.7461
12941TIP3    H160238   6.712   1.479  15.201  1.0002  1.6865  0.6068
12941TIP3    H260239   6.727   1.447  15.348  2.6580 -0.7849 -0.0397
12942TIP3   OH260240   3.778   1.433   2.395 -0.7226  0.2371 -0.2070
12942TIP3    H160241   3.789   1.405   2.485 -0.3038  0.5521 -0.1563
12942TIP3    H260242   3.730   1.516   2.400  0.6979  1.0954 -0.1579
12943TIP3   OH260243   3.966   5.953   3.617  0.3686  0.2628 -0.1011
12943TIP3    H160244   3.985   5.898   3.541 -2.8073 -4.5034  2.0612
12943TIP3    H260245   3.874   5.979   3.604  0.8524  2.4762  0.5357
12944TIP3   OH260246   0.865   1.660   1.834 -0.5338  0.5654 -0.3681
12944TIP3    H160247   0.774   1.673   1.808 -1.3666 -2.3037  0.7715
12944TIP3    H260248   0.869   1.687   1.925 -0.2793  0.5503 -0.3721
12945TIP3   OH260249   5.696   4.219   0.591 -0.0266 -0.7067  0.1533
12945TIP3    H160250   5.606   4.212   0.623 -0.7571  0.2355 -1.5545
12945TIP3    H260251   5.687   4.228   0.496  1.9236 -1.3029 -0.1318
12946TIP3   OH260252   0.115   2.415  15.794  0.1134 -0.1627  0.1094
12946TIP3    H160253   0.138   2.328  15.827  1.3136 -0.9887 -2.6003
12946TIP3    H260254   0.092   2.400  15.702  0.7859  2.4391 -0.5640
12947TIP3   OH260255   4.124   3.729  16.229 -0.2254  0.2167  0.0552
12947TIP3    H160256   4.137   3.646  16.276  0.5897  0.7483  0.8112
12947TIP3    H260257   4.035   3.724  16.195  0.0351 -1.2429 -0.4736
12948TIP3   OH260258   1.207   3.772   2.619 -0.4435  0.0588 -0.2321
12948TIP3    H160259   1.293   3.810   2.601 -0.7460  0.9472  0.1222
12948TIP3    H260260   1.224   3.703   2.684  0.0435 -0.0247 -0.4457
12949TIP3   OH260261   4.353   4.805  14.963  0.7084  1.0908  0.5708
12949TIP3    H160262   4.327   4.897  14.954 -0.5182  0.7312  0.2665
12949TIP3    H260263   4.272   4.756  14.953  1.5324 -0.1058 -0.6576
12950TIP3   OH260264   0.987   4.283  13.029  0.4410 -0.0668  0.7291
12950TIP3    H160265   0.950   4.207  12.984 -0.1482 -0.1127  1.2757
12950TIP3    H260266   1.054   4.316  12.968 -1.0285  0.4935 -0.6523
12951TIP3   OH260267   2.366   2.771  13.944  0.1980  0.0733 -0.6036
12951TIP3    H160268   2.312   2.710  13.994 -1.0304  1.7564  0.2016
12951TIP3    H260269   2.446   2.721  13.925 -0.9384 -1.9298 -0.4176
12952TIP3   OH260270   2.792   1.603   5.845  0.6691 -0.2865 -0.9016
12952TIP3    H160271   2.827   1.528   5.895  0.8861 -1.3538 -2.5871
12952TIP3    H260272   2.744   1.654   5.910  1.9317 -0.9746  0.6488
12953TIP3   OH260273   2.342   4.718  11.928  0.1803 -0.8934 -0.4863
12953TIP3    H160274   2.335   4.714  11.832 -0.6315  0.0495 -0.4771
12953TIP3    H260275   2.303   4.636  11.958  0.8096 -1.3871 -0.9653
12954TIP3   OH260276   6.449   0.420  12.202  0.0377  0.2143 -0.2618
12954TIP3    H160277   6.445   0.422  12.106 -0.2007 -0.2352 -0.2668
12954TIP3    H260278   6.542   0.407  12.222  0.2050  1.1565 -0.4081
12955TIP3   OH260279   0.603   0.410   5.794 -0.8127  0.8416 -0.2774
12955TIP3    H160280   0.607   0.407   5.890 -0.4647  2.0268 -0.2443
12955TIP3    H260281   0.639   0.496   5.771  1.7256 -0.4469 -1.6128
12956TIP3   OH260282   3.701   2.610  16.105  0.1551  0.6999  0.0671
12956TIP3    H160283   3.611   2.640  16.119 -0.4304 -1.5927  1.8769
12956TIP3    H260284   3.692   2.527  16.058  1.0535 -0.9627  2.6290
12957TIP3   OH260285   5.433   6.132  13.486 -0.2759 -0.4545 -0.3038
12957TIP3    H160286   5.390   6.191  13.548 -1.6444 -0.2326 -1.4156
12957TIP3    H260287   5.503   6.184  13.447 -1.0271  0.2174 -0.7699
12958TIP3   OH260288   4.920   0.446   0.394  0.2134 -0.0935 -0.7204
12958TIP3    H160289   4.910   0.371   0.336  0.3861 -0.3742 -0.3907
12958TIP3    H260290   4.914   0.522   0.337  0.9374 -0.3796 -1.1798
12959TIP3   OH260291   3.179   2.275   0.293  0.3377  0.2067  0.0790
12959TIP3    H160292   3.107   2.323   0.250  0.6098  0.6108  0.0688
12959TIP3    H260293   3.258   2.305   0.249  0.5853  0.3294  0.5925
12960TIP3   OH260294   5.561   1.103  11.775  0.2344  0.3376  0.2427
12960TIP3    H160295   5.478   1.079  11.734 -0.1277 -0.8778  1.6148
12960TIP3    H260296   5.611   1.022  11.777  1.2195  0.9218  0.0166
12961TIP3   OH260297   2.344   3.938  14.282  0.0749 -0.3900 -0.0255
12961TIP3    H160298   2.250   3.925  14.267 -0.4302  2.5235 -0.1161
12961TIP3    H260299   2.353   4.033  14.286  2.8801 -0.6438  1.1608
12962TIP3   OH260300   0.532   4.980  15.626  0.2335  0.1835 -0.5252
12962TIP3    H160301   0.536   4.892  15.588 -0.2988 -0.3837  0.6702
12962TIP3    H260302   0.623   5.001  15.646  0.4938  0.3828 -1.8106
12963TIP3   OH260303   1.982   5.424   4.254  0.1166 -0.0294 -0.4597
12963TIP3    H160304   1.904   5.379   4.221 -0.9519 -0.7162  2.6309
12963TIP3    H260305   2.012   5.370   4.327  1.6568  1.8030  0.3535
12964TIP3   OH260306   0.156   3.395   2.475 -0.2424  0.1474  0.4263
12964TIP3    H160307   0.210   3.315   2.477  0.4785  0.6320  0.7852
12964TIP3    H260308   0.175   3.435   2.390  0.3770  0.5879  0.7649
12965TIP3   OH260309   4.255   3.471   0.888 -0.6196 -0.1562 -0.0247
12965TIP3    H160310   4.198   3.395   0.879  0.5041 -1.2677  1.6217
12965TIP3    H260311   4.334   3.448   0.840  0.2365 -0.6296  1.5399
12966TIP3   OH260312   0.244   1.406   2.155 -0.3856 -0.1167 -0.4191
12966TIP3    H160313   0.310   1.364   2.101  0.9884 -1.0334  1.8416
12966TIP3    H260314   0.224   1.488   2.110  1.3485 -0.4142 -1.8154
12967TIP3   OH260315   3.810   3.469  14.648 -0.0437  0.1774  0.6520
12967TIP3    H160316   3.757   3.521  14.709  0.0717  0.7020  0.3046
12967TIP3    H260317   3.898   3.507  14.654  0.6061 -1.3941  2.0735
12968TIP3   OH260318   4.315   0.949   3.302 -0.6104  0.2571 -0.4243
12968TIP3    H160319   4.295   0.985   3.388  1.5639 -1.4854  0.9501
12968TIP3    H260320   4.275   0.862   3.302 -0.4157  0.1572 -1.0730
12969TIP3   OH260321   6.624   6.089   3.959  0.3878 -0.0303  0.2570
12969TIP3    H160322   6.595   6.016   4.013  0.5784 -0.4271 -0.1678
12969TIP3    H260323   6.574   6.080   3.878  0.8605 -0.0502 -0.0359
12970TIP3   OH260324   4.125   1.038  14.929 -0.5314 -0.1052 -0.6750
12970TIP3    H160325   4.124   1.037  15.024 -3.9380  1.7723 -0.5140
12970TIP3    H260326   4.115   0.947  14.903  0.7848 -0.6741  0.7197
12971TIP3   OH260327   4.820   4.071  16.595  0.7794 -0.7152  0.0941
12971TIP3    H160328   4.796   4.074  16.688  0.9973  0.7931  0.1229
12971TIP3    H260329   4.738   4.052  16.550 -0.2396  2.5127  0.3329
12972TIP3   OH260330   5.747   5.296  16.480  0.0476  0.7472  0.5552
12972TIP3    H160331   5.685   5.316  16.550 -1.9883 -0.7759 -0.6765
12972TIP3    H260332   5.757   5.379  16.433  0.9081  1.6113  2.1812
12973TIP3   OH260333   0.480   0.397   0.672 -0.0951 -0.2002  0.3325
12973TIP3    H160334   0.538   0.448   0.615  0.2867 -1.9871 -0.9919
12973TIP3    H260335   0.425   0.462   0.716  0.8501  1.3658 -0.7148
12974TIP3   OH260336   3.951   5.963   2.294  0.4407  0.2568  0.2682
12974TIP3    H160337   3.957   6.057   2.313  0.0265  0.9930 -2.8271
12974TIP3    H260338   4.026   5.925   2.339  0.3637  1.9585  1.9807
12975TIP3   OH260339   6.692   0.076  12.228  0.4255 -0.2524 -0.3147
12975TIP3    H160340   6.716   0.003  12.285  0.4712  1.4362  1.9131
12975TIP3    H260341   6.604   0.053  12.197 -0.7575 -0.0163  2.6087
12976TIP3   OH260342   3.058   6.175   4.872 -0.6107 -0.1713 -0.6595
12976TIP3    H160343   3.131   6.212   4.920 -0.9551 -0.5648  0.1871
12976TIP3    H260344   3.013   6.251   4.833 -1.4209  0.3537  1.1986
12977TIP3   OH260345   0.176   2.802   0.391 -0.6893  0.1587  0.2218
12977TIP3    H160346   0.103   2.839   0.440  0.8058  1.3343  1.6954
12977TIP3    H260347   0.203   2.725   0.441 -0.4142  0.1936  0.1322
12978TIP3   OH260348   6.634   1.265  13.572  0.2664 -0.2765 -0.0470
12978TIP3    H160349   6.688   1.196  13.533  0.2306 -0.2439 -0.1556
12978TIP3    H260350   6.655   1.343  13.522 -2.0264 -0.8360 -2.1052
12979TIP3   OH260351   2.616   2.451   2.288  0.0138  0.1231  0.7374
12979TIP3    H160352   2.654   2.536   2.264  1.7373 -0.4689  1.2168
12979TIP3    H260353   2.562   2.470   2.365  0.2608  0.8126  0.7478
12980TIP3   OH260354   6.273   1.222   1.646  0.1905  0.0505 -0.1686
12980TIP3    H160355   6.244   1.198   1.734 -0.4441 -1.1595 -0.6911
12980TIP3    H260356   6.356   1.176   1.634  0.1498  0.0135 -0.3055
12981TIP3   OH260357   1.914   0.166   1.510 -0.6197 -0.0712 -0.2317
12981TIP3    H160358   1.889   0.218   1.434  1.4429 -0.2876 -1.1246
12981TIP3    H260359   2.005   0.142   1.494 -0.6421 -1.5597  1.5155
12982TIP3   OH260360   6.244   6.294  17.119  0.0561  0.8917  0.5354
12982TIP3    H160361   6.227   6.238  17.194  1.2841 -1.4368 -0.7938
12982TIP3    H260362   6.340   6.301  17.116  0.0766  0.3507 -1.1388
12983TIP3   OH260363   4.835   0.035  12.045 -0.0734  0.4330 -0.0483
12983TIP3    H160364   4.789   0.091  12.107  1.6179  2.5160 -0.5614
12983TIP3    H260365   4.918   0.015  12.087 -0.8464 -2.3310  0.3871
12984TIP3   OH260366   3.643   4.609  13.309 -0.0226  0.0153 -0.0864
12984TIP3    H160367   3.720   4.607  13.253 -0.7037 -0.7405 -1.0225
12984TIP3    H260368   3.669   4.662  13.385  1.7268 -1.0579  0.0955
12985TIP3   OH260369   3.986   1.629   5.732  0.1129 -0.2137 -0.3318
12985TIP3    H160370   3.925   1.582   5.789  0.4313 -0.9760 -0.6133
12985TIP3    H260371   4.040   1.561   5.693  1.3935  0.4735  0.1941
12986TIP3   OH260372   0.676   5.362  15.035 -0.1002 -0.1110 -0.0083
12986TIP3    H160373   0.619   5.325  15.102  0.3437  1.9005  1.5900
12986TIP3    H260374   0.681   5.455  15.057  1.7497  0.2350 -1.6217
12987TIP3   OH260375   0.756   0.680   3.206  0.3851  0.2379  0.0367
12987TIP3    H160376   0.816   0.636   3.145  0.9521 -0.5016  1.0900
12987TIP3    H260377   0.697   0.610   3.236  1.7809 -0.0713  2.3291
12988TIP3   OH260378   0.310   3.971   5.057  0.3603 -0.2071  0.4040
12988TIP3    H160379   0.386   3.949   5.111 -0.6354  1.2362  2.5273
12988TIP3    H260380   0.274   4.049   5.098 -1.9072 -0.4748 -0.9477
12989TIP3   OH260381   3.453   1.402   0.171 -0.9040  0.0253 -0.6176
12989TIP3    H160382   3.449   1.325   0.228 -1.5175  0.2922 -0.2941
12989TIP3    H260383   3.479   1.367   0.086 -1.0388 -0.5231 -0.4385
12990TIP3   OH260384   0.459   0.236  16.524 -0.4212  0.3251  0.7725
12990TIP3    H160385   0.479   0.328  16.541 -2.6187  0.4178  3.5699
12990TIP3    H260386   0.476   0.192  16.607 -0.5450 -1.6156 -0.1740
12991TIP3   OH260387   5.516   0.626   5.359  0.0793  0.2565  0.5764
12991TIP3    H160388   5.532   0.547   5.307 -0.3243  0.9742 -0.6884
12991TIP3    H260389   5.513   0.696   5.294  0.5154  1.3281  1.6921
12992TIP3   OH260390   3.461   6.678  12.734 -0.0957  0.1853 -0.3641
12992TIP3    H160391   3.452   6.750  12.671 -0.2887 -0.6020 -1.2743
12992TIP3    H260392   3.410   6.607  12.695 -1.1032  0.0084  1.2261
12993TIP3   OH260393   5.184   6.464   2.572  0.3873  0.1475  0.2740
12993TIP3    H160394   5.172   6.554   2.543  0.3519  0.3694  0.9571
12993TIP3    H260395   5.096   6.427   2.573  0.4382  0.0082 -0.3098
12994TIP3   OH260396   6.173   4.243   0.718 -0.0451 -0.1989  0.1695
12994TIP3    H160397   6.165   4.339   0.718  1.1156 -0.0871  0.4076
12994TIP3    H260398   6.192   4.221   0.627 -1.3034 -0.3191 -0.0877
12995TIP3   OH260399   0.645   4.180   2.263 -0.1666  0.0415  0.2045
12995TIP3    H160400   0.736   4.151   2.275 -0.3094 -1.7733 -2.2895
12995TIP3    H260401   0.647   4.232   2.182 -1.3392 -0.0695  0.0873
12996TIP3   OH260402   4.467   0.802   4.085 -0.0755  0.3275  0.3107
12996TIP3    H160403   4.469   0.769   3.995  0.9796 -0.0003  0.4427
12996TIP3    H260404   4.471   0.897   4.075 -0.0146  0.2944  0.0108
12997TIP3   OH260405   4.690   6.233   1.119 -0.7522 -0.3617  0.2003
12997TIP3    H160406   4.627   6.186   1.065 -0.9026  1.2271 -1.0988
12997TIP3    H260407   4.740   6.285   1.057 -0.1035  0.6117  1.4917
12998TIP3   OH260408   6.588   4.352  15.458  0.3626  0.3006 -0.1962
12998TIP3    H160409   6.602   4.323  15.368 -2.0549  1.6794 -1.1228
12998TIP3    H260410   6.494   4.340  15.473  0.4249  1.5936  1.5731
12999TIP3   OH260411   3.439   2.204  16.492  0.3028  0.0371 -0.5876
12999TIP3    H160412   3.522   2.164  16.520 -1.2107 -1.0415  2.9018
12999TIP3    H260413   3.453   2.298  16.505  0.2985 -0.2875  2.4871
13000TIP3   OH260414   6.756   4.564   3.470  0.4877 -0.3900 -0.3723
13000TIP3    H160415   6.709   4.501   3.524 -0.8981  0.1065 -0.9460
13000TIP3    H260416   6.690   4.628   3.445  1.6744  0.8497 -0.4869
13001TIP3   OH260417   6.594   5.644  11.165  0.4044 -0.1156  0.2943
13001TIP3    H160418   6.503   5.642  11.133 -0.6553  0.1357  3.0198
13001TIP3    H260419   6.603   5.564  11.217  1.3222  0.4646  1.0744
13002TIP3   OH260420   6.210   1.488   3.909  0.2613  0.1401  0.2967
13002TIP3    H160421   6.288   1.490   3.853  1.5076 -1.3240  1.9083
13002TIP3    H260422   6.206   1.398   3.942 -0.9813  0.7097  1.8000
13003TIP3   OH260423   4.323   4.747  13.172 -0.0667 -0.2067  0.8917
13003TIP3    H160424   4.300   4.839  13.183 -2.9523 -0.5748 -1.0786
13003TIP3    H260425   4.259   4.713  13.109  3.1867 -2.6437 -1.4582
13004TIP3   OH260426   1.567   0.081   4.916 -0.4030 -0.5153 -0.9257
13004TIP3    H160427   1.616   0.154   4.953 -0.9481 -0.0653 -1.0744
13004TIP3    H260428   1.620   0.004   4.935  0.1475 -0.0876 -0.7117
13005TIP3   OH260429   5.716   6.730  12.476 -0.1558  0.3835 -0.0988
13005TIP3    H160430   5.668   6.778  12.544  0.4760 -0.4116  0.9427
13005TIP3    H260431   5.688   6.639  12.486 -1.5022  0.5065 -2.1903
13006TIP3   OH260432   0.614   6.349  12.954  0.9212 -0.4878  0.5278
13006TIP3    H160433   0.549   6.416  12.976 -0.4653 -1.8472  0.7148
13006TIP3    H260434   0.697   6.396  12.956  0.3573  0.6562  3.5016
13007TIP3   OH260435   1.490   2.516  17.237 -0.4327 -0.6237  0.0211
13007TIP3    H160436   1.437   2.461  17.179 -1.0718 -0.0565  0.0493
13007TIP3    H260437   1.426   2.569  17.285  0.1615  0.1896 -0.0539
13008TIP3   OH260438   3.136   2.188   0.578 -0.3180 -0.9370  0.0688
13008TIP3    H160439   3.043   2.169   0.566 -0.1548 -0.8459 -1.5820
13008TIP3    H260440   3.167   2.209   0.490  1.5982 -2.4138  0.3506
13009TIP3   OH260441   6.451   0.162   4.348  0.0526 -0.0421  0.4736
13009TIP3    H160442   6.426   0.070   4.341  0.0505  0.0155 -0.2963
13009TIP3    H260443   6.458   0.193   4.258 -2.8421  1.4945  0.6204
13010TIP3   OH260444   1.309   3.366   1.453 -0.1176  0.1121  0.1229
13010TIP3    H160445   1.359   3.412   1.520 -1.0019  0.3108  0.6512
13010TIP3    H260446   1.218   3.388   1.471 -0.4268 -0.5070 -0.6354
13011TIP3   OH260447   4.067   3.072  14.551 -0.0400  0.4063  0.1631
13011TIP3    H160448   4.106   3.158  14.537  2.6324 -0.7347 -0.0019
13011TIP3    H260449   4.047   3.039  14.464  1.0916 -0.0168  0.0420
13012TIP3   OH260450   2.794   4.480   2.740  0.3004 -0.3635  0.2151
13012TIP3    H160451   2.767   4.396   2.775 -1.0259  0.3656  1.0327
13012TIP3    H260452   2.791   4.539   2.816 -0.5375  0.7897 -0.6721
13013TIP3   OH260453   2.121   5.841  15.153  0.2516 -0.1961 -0.4703
13013TIP3    H160454   2.179   5.771  15.122 -1.0156 -2.8527  2.5416
13013TIP3    H260455   2.177   5.896  15.207  0.5301 -1.3677  0.4885
13014TIP3   OH260456   0.841   4.370  14.892 -0.6115  0.4738  0.5405
13014TIP3    H160457   0.894   4.360  14.971 -0.7895 -0.3317  0.5700
13014TIP3    H260458   0.845   4.464  14.872  1.8085  0.2796 -0.1567
13015TIP3   OH260459   4.054   3.282   0.582  0.5210  0.1740 -0.3562
13015TIP3    H160460   4.076   3.314   0.669  0.5815  1.1351 -0.7121
13015TIP3    H260461   3.975   3.329   0.558 -0.6898 -1.5847 -0.0196
13016TIP3   OH260462   2.832   2.519  14.464  0.6894  0.0592 -0.1667
13016TIP3    H160463   2.811   2.481  14.378 -0.4155  1.8615 -0.7394
13016TIP3    H260464   2.857   2.443  14.518 -1.3680 -1.5047 -1.2509
13017TIP3   OH260465   5.129   4.650   4.048  0.1823 -0.1213  0.1454
13017TIP3    H160466   5.182   4.690   3.979  0.6507  0.5825  0.9079
13017TIP3    H260467   5.068   4.718   4.075 -0.6106 -0.6795 -0.1785
13018TIP3   OH260468   5.618   3.436  16.603  0.3172  0.3512 -0.1879
13018TIP3    H160469   5.632   3.345  16.631  1.1578  0.8476  1.1238
13018TIP3    H260470   5.524   3.450  16.616  0.2274 -0.2519 -0.1382
13019TIP3   OH260471   3.869   5.931  13.886  0.0733  0.1732 -0.8693
13019TIP3    H160472   3.849   5.861  13.949 -0.7081  0.9238 -0.2496
13019TIP3    H260473   3.783   5.957  13.851  0.5207 -0.5294 -2.6043
13020TIP3   OH260474   6.428   6.634   4.465  0.7185  0.6223 -0.2451
13020TIP3    H160475   6.520   6.645   4.489  0.3636 -0.9949  2.2233
13020TIP3    H260476   6.387   6.597   4.543 -1.5161 -1.1283 -2.0948
13021TIP3   OH260477   3.834   1.123  13.732 -0.0312  0.2064 -0.4657
13021TIP3    H160478   3.852   1.030  13.749 -0.9021 -0.3219 -2.1951
13021TIP3    H260479   3.920   1.162  13.721  0.3756 -0.2415  0.9295
13022TIP3   OH260480   0.164   5.384  15.501  0.8264 -0.0759 -0.5175
13022TIP3    H160481   0.082   5.425  15.529  0.7197  0.2316 -1.2426
13022TIP3    H260482   0.230   5.417  15.563  0.2984 -0.8877  0.5081
13023TIP3   OH260483   2.092   2.830   6.441 -0.1889  0.3733 -0.3176
13023TIP3    H160484   2.009   2.784   6.458  0.3021  0.0709  1.4713
13023TIP3    H260485   2.159   2.762   6.448  0.2945  0.7998 -0.7557
13024TIP3   OH260486   4.605   2.498   4.150 -0.1085  0.3026  0.1473
13024TIP3    H160487   4.637   2.575   4.103 -1.1725  1.0473  0.6144
13024TIP3    H260488   4.680   2.469   4.202  1.3064 -0.8926 -2.3540
13025TIP3   OH260489   0.664   4.331  11.901 -0.2766 -0.0411 -0.3538
13025TIP3    H160490   0.634   4.422  11.895  1.8131  0.6109 -1.8882
13025TIP3    H260491   0.686   4.318  11.993 -3.1631  0.0445  0.4692
13026TIP3   OH260492   1.827   5.854  14.124 -0.0284 -0.2019 -0.2993
13026TIP3    H160493   1.908   5.903  14.109 -0.0815 -0.1816 -0.5118
13026TIP3    H260494   1.855   5.762  14.129 -0.0414 -0.2297 -0.7400
13027TIP3   OH260495   2.328   0.945   5.070  0.3393 -0.1780  0.1211
13027TIP3    H160496   2.317   0.907   4.983 -0.0965  0.6974 -0.2158
13027TIP3    H260497   2.420   0.969   5.074  0.1041  0.9699 -0.6226
13028TIP3   OH260498   3.558   0.631  15.853 -0.0102  0.4995  0.1817
13028TIP3    H160499   3.497   0.636  15.779 -1.2153 -1.0394  1.0115
13028TIP3    H260500   3.502   0.617  15.929  1.2552  1.2746  1.2951
13029TIP3   OH260501   2.220   2.239  14.786  0.0682 -0.0539 -0.0101
13029TIP3    H160502   2.157   2.302  14.753  0.0802  0.2542  0.5511
13029TIP3    H260503   2.275   2.289  14.847 -0.1734 -0.6958  0.7450
13030TIP3   OH260504   1.892   0.426  14.256  0.3767 -0.3034 -0.3741
13030TIP3    H160505   1.974   0.386  14.286  1.8559  0.0810 -3.4556
13030TIP3    H260506   1.835   0.351  14.238  1.0571 -0.7460 -0.7446
13031TIP3   OH260507   3.979   6.688  11.543 -0.1089 -0.0729 -0.0513
13031TIP3    H160508   3.906   6.730  11.499 -1.5229 -3.3342 -1.0869
13031TIP3    H260509   4.049   6.754  11.542 -0.8935  1.0608 -4.8092
13032TIP3   OH260510   4.248   4.936   0.293 -0.0525 -0.9647  0.2862
13032TIP3    H160511   4.197   4.998   0.242  3.8864  0.7253 -1.9695
13032TIP3    H260512   4.227   4.957   0.384 -2.5585  0.1615 -0.4496
13033TIP3   OH260513   4.707   2.476  12.408 -0.2500  0.1676 -0.5407
13033TIP3    H160514   4.694   2.461  12.315  2.0313  0.0745 -0.8824
13033TIP3    H260515   4.627   2.442  12.449 -1.2363  0.1014 -2.4226
13034TIP3   OH260516   0.889   5.226  16.976  0.1687  0.1264 -0.5797
13034TIP3    H160517   0.889   5.249  16.882 -1.2067  0.3315 -0.5604
13034TIP3    H260518   0.850   5.303  17.018  1.2666  0.2502  0.2395
13035TIP3   OH260519   5.862   0.061  12.172  0.7398  0.4521  0.1755
13035TIP3    H160520   5.834   0.057  12.081  0.9451  2.4235 -0.0151
13035TIP3    H260521   5.780   0.063  12.222  0.5593  2.2173 -0.1508
13036TIP3   OH260522   0.552   5.502  13.299  0.1994  0.0004 -0.0271
13036TIP3    H160523   0.459   5.524  13.304  0.2085 -0.2098  1.7508
13036TIP3    H260524   0.595   5.562  13.360  1.7503  2.2850 -3.0834
13037TIP3   OH260525   5.837   4.538   5.421  0.0488  0.6747  0.1725
13037TIP3    H160526   5.862   4.561   5.510  0.2470  1.2838 -0.0316
13037TIP3    H260527   5.890   4.596   5.366 -0.6674  0.8828 -0.3120
13038TIP3   OH260528   6.566   1.351   4.656 -0.4992 -0.5419  0.4417
13038TIP3    H160529   6.480   1.334   4.618 -0.7581 -1.0872  1.2366
13038TIP3    H260530   6.565   1.444   4.677 -0.1310 -0.0945 -1.3716
13039TIP3   OH260531   5.005   4.166   0.878 -0.0531  0.1897 -0.1864
13039TIP3    H160532   4.994   4.099   0.811  0.9335 -0.4782  0.2912
13039TIP3    H260533   4.978   4.247   0.835 -1.4349 -0.5216 -0.7107
13040TIP3   OH260534   6.567   2.342   3.217 -0.0702 -0.0199  0.1935
13040TIP3    H160535   6.531   2.341   3.306  0.9415  1.2584  0.6534
13040TIP3    H260536   6.632   2.413   3.219  1.4889 -1.3348 -0.9445
13041TIP3   OH260537   5.173   5.132   5.018  0.2869 -0.2863 -0.1147
13041TIP3    H160538   5.126   5.201   4.972 -1.3557 -1.9851 -1.1532
13041TIP3    H260539   5.256   5.124   4.971 -1.4919 -2.2586 -3.3508
13042TIP3   OH260540   3.192   2.823   1.986  0.4461 -0.4999  0.0532
13042TIP3    H160541   3.105   2.801   2.018  0.5814 -1.8365 -0.4441
13042TIP3    H260542   3.198   2.918   1.996 -0.7724 -0.4814  0.7987
13043TIP3   OH260543   5.702   2.994  17.153  0.3784  0.3052 -0.6475
13043TIP3    H160544   5.751   3.048  17.091  0.9573 -0.4470 -0.8716
13043TIP3    H260545   5.762   2.921  17.173 -0.8779 -0.9904 -1.4461
13044TIP3   OH260546   6.593   4.867  15.249 -0.2930  0.0156 -0.9386
13044TIP3    H160547   6.515   4.879  15.303  0.7651 -1.3518  1.0590
13044TIP3    H260548   6.575   4.789  15.197 -0.2652 -0.3328 -0.4345
13045TIP3   OH260549   2.352   0.896   3.898  0.0345  0.4656  0.5415
13045TIP3    H160550   2.413   0.956   3.940 -0.7354  1.3579  0.4073
13045TIP3    H260551   2.318   0.944   3.823 -0.4964 -0.1774  0.3552
13046TIP3   OH260552   1.065   1.085   0.723  0.6678 -0.2487 -0.0837
13046TIP3    H160553   1.072   1.176   0.750 -2.0255 -0.2451  0.9376
13046TIP3    H260554   1.061   1.087   0.628  0.9765  0.6702 -0.0795
13047TIP3   OH260555   3.997   5.710  13.254  0.2968 -0.0326  0.0358
13047TIP3    H160556   3.938   5.783  13.239 -0.2873 -0.5618 -0.3196
13047TIP3    H260557   3.960   5.664  13.329 -2.1960 -2.7143 -2.5712
13048TIP3   OH260558   4.318   1.345  12.872  0.0734 -0.4340  0.4275
13048TIP3    H160559   4.315   1.251  12.852 -0.0195 -0.5549  0.9963
13048TIP3    H260560   4.407   1.372  12.848  0.2470 -0.7669  0.6942
13049TIP3   OH260561   4.957   4.941  12.097  0.0062  0.5025 -0.4007
13049TIP3    H160562   4.955   4.996  12.019  2.8382 -0.2669 -1.1076
13049TIP3    H260563   4.958   5.003  12.170 -0.7478  1.2683 -1.0221
13050TIP3   OH260564   0.783   2.220   3.136 -0.8224  0.5148  0.2143
13050TIP3    H160565   0.831   2.293   3.175  2.5657 -1.2856 -0.1774
13050TIP3    H260566   0.817   2.143   3.180 -0.7946 -1.1705 -2.5253
13051TIP3   OH260567   3.191   6.746   6.770  0.5091  0.3975 -0.3501
13051TIP3    H160568   3.231   6.810   6.828 -1.8792 -0.2762  2.3109
13051TIP3    H260569   3.219   6.661   6.804  1.0033 -0.0453 -1.7731
13052TIP3   OH260570   2.804   2.583   5.363 -0.1893 -0.1600  0.9124
13052TIP3    H160571   2.869   2.540   5.307  0.4021 -1.7422  2.7169
13052TIP3    H260572   2.728   2.595   5.306  1.6727  2.0304 -1.3587
13053TIP3   OH260573   2.954   0.080  15.782  0.9539  0.3965  0.2277
13053TIP3    H160574   2.900   0.155  15.756  0.7988  0.7008  1.3840
13053TIP3    H260575   3.042   0.115  15.792  0.8494  0.4708  0.9333
13054TIP3   OH260576   0.505   3.696   0.966  0.4589  0.0756  0.3924
13054TIP3    H160577   0.462   3.780   0.950 -2.2080 -1.2208  0.1190
13054TIP3    H260578   0.461   3.662   1.044  0.3725 -1.7122 -0.3994
13055TIP3   OH260579   6.761   2.429   2.596 -0.4177  0.0116  0.4021
13055TIP3    H160580   6.714   2.373   2.535 -0.3036 -1.6476  1.7562
13055TIP3    H260581   6.694   2.486   2.633 -1.1881 -1.4796  1.3956
13056TIP3   OH260582   5.581   0.252   5.540 -0.4654  0.0453 -0.2859
13056TIP3    H160583   5.539   0.166   5.544  1.3208 -0.8205  0.7028
13056TIP3    H260584   5.599   0.265   5.446 -0.7903 -0.6437 -0.4504
13057TIP3   OH260585   6.356   2.832  16.340 -0.1295  0.2732 -0.2867
13057TIP3    H160586   6.329   2.859  16.428 -3.0372 -0.0451 -0.9600
13057TIP3    H260587   6.375   2.739  16.349 -2.5579 -0.2886 -0.3274
13058TIP3   OH260588   4.825   6.488  11.921  0.3791 -0.1711  0.2894
13058TIP3    H160589   4.869   6.469  12.003  0.5593 -3.6207 -0.4704
13058TIP3    H260590   4.896   6.500  11.858  0.2982 -1.6050 -0.1103
13059TIP3   OH260591   0.721   2.721   6.474 -0.4366  0.1356 -0.0578
13059TIP3    H160592   0.760   2.780   6.538 -0.1761  0.6289 -0.6618
13059TIP3    H260593   0.705   2.776   6.397 -2.4595 -0.0094  0.2127
13060TIP3   OH260594   1.006   2.544  17.344  0.3634  0.4405 -0.8084
13060TIP3    H160595   1.034   2.469  17.292  2.1332 -0.1952  0.9160
13060TIP3    H260596   1.064   2.615  17.318 -0.0472  0.6900 -1.0664
13061TIP3   OH260597   4.984   2.974   2.881  0.1662 -0.3172  0.1559
13061TIP3    H160598   5.059   3.032   2.891  0.4057 -0.1391 -2.1235
13061TIP3    H260599   4.908   3.031   2.890  0.2996 -0.3423  1.5963
13062TIP3   OH260600   6.193   3.476  16.001 -0.6964 -0.0535  0.8070
13062TIP3    H160601   6.281   3.439  16.001 -0.6270  0.0735  1.8912
13062TIP3    H260602   6.174   3.491  16.093 -2.2144 -0.9166  0.6607
13063TIP3   OH260603   4.914   5.318  14.660 -0.3091  0.0094 -0.2808
13063TIP3    H160604   4.884   5.254  14.595  0.9182  0.3242 -1.1908
13063TIP3    H260605   4.958   5.386  14.609  0.6373  0.2973  0.8707
13064TIP3   OH260606   3.542   5.815  14.563  0.3298 -0.1919  0.2817
13064TIP3    H160607   3.574   5.835  14.651  1.8930 -1.5081  0.0660
13064TIP3    H260608   3.592   5.737  14.537  0.3437  0.5080 -1.9963
13065TIP3   OH260609   5.199   0.168   4.863 -0.6166  0.0001 -0.1280
13065TIP3    H160610   5.257   0.117   4.918 -0.6564 -0.6326 -0.6536
13065TIP3    H260611   5.257   0.213   4.802 -0.6875 -1.2173 -1.1412
13066TIP3   OH260612   6.014   5.902  11.792  0.0245 -0.4371  0.2904
13066TIP3    H160613   6.067   5.974  11.759 -1.4231 -0.0779 -1.3888
13066TIP3    H260614   6.076   5.846  11.840  1.4681  1.0482  0.2184
13067TIP3   OH260615   1.447   4.793  12.729  0.1740 -0.3921  0.0534
13067TIP3    H160616   1.367   4.781  12.779  0.8066 -1.3411  0.8776
13067TIP3    H260617   1.447   4.720  12.667 -1.0058  1.2153 -1.9613
13068TIP3   OH260618   6.083   3.501   2.828  0.0436  0.1848 -0.1607
13068TIP3    H160619   6.097   3.588   2.864  2.1188  0.3318 -1.1686
13068TIP3    H260620   6.064   3.446   2.904 -0.3883  1.3476  0.5878
13069TIP3   OH260621   3.674   4.598   0.079 -0.0959 -0.2577 -0.0286
13069TIP3    H160622   3.628   4.678   0.103  1.1026  0.6194 -0.5706
13069TIP3    H260623   3.761   4.607   0.118  0.4695 -0.7110 -1.1260
13070TIP3   OH260624   4.221   2.748  13.902 -0.0231 -0.1693 -0.0514
13070TIP3    H160625   4.270   2.692  13.843 -0.8146  0.1186 -1.0053
13070TIP3    H260626   4.276   2.826  13.913  1.3664 -1.3170  1.7658
13071TIP3   OH260627   0.023   5.432  14.248 -0.5372 -0.2728  0.1641
13071TIP3    H160628   0.115   5.457  14.240 -0.6506 -0.1166 -0.7393
13071TIP3    H260629  -0.023   5.515  14.258 -0.5637 -0.3653  0.8502
13072TIP3   OH260630   5.651   6.273  13.395  0.2797 -0.4696  0.3308
13072TIP3    H160631   5.660   6.345  13.457 -2.5426  0.2421  0.0698
13072TIP3    H260632   5.691   6.305  13.314  2.0809 -0.5858  1.1343
13073TIP3   OH260633   3.066   5.781   5.037 -0.2772 -0.0204 -0.2498
13073TIP3    H160634   3.019   5.711   5.083  0.5474 -0.5018 -0.1185
13073TIP3    H260635   3.007   5.809   4.968  0.1843 -2.3020 -1.6604
13074TIP3   OH260636   0.915   1.489  16.310  1.1809  0.1368  0.0338
13074TIP3    H160637   0.949   1.563  16.360 -0.8916  1.1274  0.1172
13074TIP3    H260638   0.899   1.524  16.223 -1.6646  0.4478  0.5812
13075TIP3   OH260639   5.260   1.943   7.139  0.3777 -0.4738 -0.1435
13075TIP3    H160640   5.245   1.936   7.045 -0.9788  0.4605 -0.0235
13075TIP3    H260641   5.292   2.032   7.153  1.2758 -0.8344  0.2167
13076TIP3   OH260642   5.638   4.429  17.199 -0.0365 -0.0634  0.5342
13076TIP3    H160643   5.586   4.397  17.126  0.8479 -0.5416  0.1048
13076TIP3    H260644   5.595   4.394  17.277  1.0253 -2.5787  0.0898
13077TIP3   OH260645   0.044   5.102  16.780  0.6588 -0.0170 -0.2421
13077TIP3    H160646   0.086   5.037  16.835 -1.0284  0.0220  1.1891
13077TIP3    H260647   0.094   5.101  16.699  2.3451 -1.1081  0.7564
13078TIP3   OH260648   6.015   6.743   2.259 -0.0351 -0.9859  0.2383
13078TIP3    H160649   6.009   6.706   2.348  3.2525  1.0542  1.4688
13078TIP3    H260650   6.030   6.836   2.273 -2.7639  0.0559 -2.6567
13079TIP3   OH260651   2.339   5.511   4.052  0.1434 -0.0570  0.0519
13079TIP3    H160652   2.271   5.579   4.044 -0.2807 -0.4694  0.0812
13079TIP3    H260653   2.403   5.534   3.985  0.7424  1.1915  1.0077
13080TIP3   OH260654   5.049   3.356   1.925 -0.0374  0.1481  0.1836
13080TIP3    H160655   5.010   3.443   1.925 -0.2867  0.0365  0.2786
13080TIP3    H260656   5.119   3.362   1.990 -0.8032 -0.0522  1.0421
13081TIP3   OH260657   4.021   4.955  11.478  0.0079 -0.1204  0.1644
13081TIP3    H160658   3.961   4.891  11.516  1.2427 -1.1086  0.5491
13081TIP3    H260659   4.020   4.936  11.384 -0.8809  0.4170  0.0549
13082TIP3   OH260660   2.644   1.457  16.277 -0.1326 -0.7565 -0.4167
13082TIP3    H160661   2.559   1.482  16.313 -1.0206 -2.4778 -1.1983
13082TIP3    H260662   2.707   1.504  16.330 -1.5739  0.8390 -0.0348
13083TIP3   OH260663   6.259   2.094   5.735 -0.0558 -0.0473  0.0042
13083TIP3    H160664   6.260   2.053   5.822  1.0335  0.6305  0.3240
13083TIP3    H260665   6.334   2.153   5.735  1.5265 -1.8893 -2.2808
13084TIP3   OH260666   0.300   6.172  11.660  0.6200  0.1673  0.4967
13084TIP3    H160667   0.361   6.236  11.696  2.3410 -2.1528  2.0374
13084TIP3    H260668   0.357   6.103  11.623 -1.0131 -1.9597  1.7376
13085TIP3   OH260669   2.610   1.800   4.266 -0.1658 -0.2371  0.6741
13085TIP3    H160670   2.656   1.814   4.349 -1.5574 -0.8909  1.6091
13085TIP3    H260671   2.517   1.807   4.290 -0.5851 -0.3527 -0.8611
13086TIP3   OH260672   1.635   5.580   4.911 -0.2414 -0.5074  0.0435
13086TIP3    H160673   1.707   5.522   4.889  0.1568  0.1834 -0.4840
13086TIP3    H260674   1.656   5.663   4.870 -2.0917 -0.7215 -1.4788
13087TIP3   OH260675   1.991   1.821  12.262 -0.0062 -0.1862 -0.2877
13087TIP3    H160676   2.058   1.754  12.249 -0.1946 -0.2360 -1.0555
13087TIP3    H260677   2.039   1.897  12.293  0.3708 -0.3138 -0.5509
13088TIP3   OH260678   6.086   6.349   1.028  0.2510 -0.2496  0.5697
13088TIP3    H160679   6.159   6.299   1.064 -1.2009 -2.2960  0.8697
13088TIP3    H260680   6.043   6.387   1.104  0.2819 -0.0822  0.5041
13089TIP3   OH260681   0.710   4.962   1.518  0.8819 -0.1134 -0.3468
13089TIP3    H160682   0.662   4.884   1.545  2.0614 -1.3058 -1.5332
13089TIP3    H260683   0.655   5.001   1.450  0.6820 -0.3949 -0.3470
13090TIP3   OH260684   4.956   5.690   5.750 -0.0519 -0.4133  0.0063
13090TIP3    H160685   4.881   5.633   5.766 -0.7719  0.5009 -0.0116
13090TIP3    H260686   5.019   5.635   5.705 -0.1060 -1.6123  1.3180
13091TIP3   OH260687   1.494   1.444   6.333 -0.2380 -0.3477  0.5148
13091TIP3    H160688   1.486   1.351   6.309 -2.1992  0.4301 -2.4763
13091TIP3    H260689   1.406   1.470   6.358  0.2767  0.7594  1.2475
13092TIP3   OH260690   5.767   5.430  15.672  0.6926  0.8021 -0.0618
13092TIP3    H160691   5.795   5.437  15.763 -0.2353 -2.8402  0.6555
13092TIP3    H260692   5.671   5.432  15.677  0.5461 -1.6985 -0.5669
13093TIP3   OH260693   1.920   6.291   4.803 -0.6437 -0.2689  0.5287
13093TIP3    H160694   1.843   6.297   4.859 -0.0707 -0.8871  1.4054
13093TIP3    H260695   1.971   6.369   4.823 -1.3149  0.4510 -0.4937
13094TIP3   OH260696   4.610   4.158   6.082  0.2245  0.2713 -0.0567
13094TIP3    H160697   4.602   4.217   6.158  1.4943  0.0737  0.2442
13094TIP3    H260698   4.681   4.099   6.105 -0.1516 -0.5445 -0.9316
13095TIP3   OH260699   0.874   2.695  14.741  0.5018  0.0928 -0.0589
13095TIP3    H160700   0.782   2.718  14.754  0.1896 -0.3400 -1.3969
13095TIP3    H260701   0.922   2.775  14.759 -0.1219  0.2856  0.7844
13096TIP3   OH260702   6.487   5.285  14.722 -0.0856 -0.0793 -0.1849
13096TIP3    H160703   6.393   5.271  14.712 -0.3477 -0.0218  1.7909
13096TIP3    H260704   6.523   5.196  14.733 -0.4941  0.0474  2.9865
13097TIP3   OH260705   0.060   4.592   1.283  0.6690 -0.2419 -0.0401
13097TIP3    H160706   0.151   4.621   1.291  1.3160 -2.4877  2.1986
13097TIP3    H260707   0.061   4.503   1.319 -2.0350 -1.1647 -1.9718
13098TIP3   OH260708   2.533   0.896   0.135 -0.5427  0.1943 -0.1936
13098TIP3    H160709   2.464   0.855   0.082  0.6609  0.6890 -2.2475
13098TIP3    H260710   2.532   0.988   0.111  0.0446  0.4461  0.6673
13099TIP3   OH260711   0.562   6.375  11.466 -0.2369 -0.0904  0.0152
13099TIP3    H160712   0.567   6.361  11.561 -0.4065  0.8795  0.1857
13099TIP3    H260713   0.498   6.446  11.456  0.3810  0.3675 -0.7671
13100TIP3   OH260714   1.043   2.546  12.195  0.2025  0.2348 -0.4794
13100TIP3    H160715   1.061   2.637  12.217  0.8243  0.8488 -3.1502
13100TIP3    H260716   0.965   2.524  12.246 -0.8677  2.7511 -0.8750
13101TIP3   OH260717   3.090   2.704  14.983  0.6902  0.1949 -0.4212
13101TIP3    H160718   3.007   2.709  14.934 -0.1502 -1.3333  0.7871
13101TIP3    H260719   3.081   2.772  15.050  1.4520  1.6480 -1.7212
13102TIP3   OH260720   4.722   4.504   5.836  0.3669  0.5640  0.1032
13102TIP3    H160721   4.656   4.461   5.891  0.7031 -1.7579 -1.1438
13102TIP3    H260722   4.682   4.587   5.811 -0.6061  0.7762  2.1615
13103TIP3   OH260723   3.601   1.507  16.790  0.4112  0.1571 -0.3351
13103TIP3    H160724   3.528   1.568  16.783 -1.3333 -1.6578  0.6746
13103TIP3    H260725   3.620   1.480  16.700  2.4143  3.3433 -1.0132
13104TIP3   OH260726   0.021   5.221   2.275 -0.5751  0.3390  0.0714
13104TIP3    H160727  -0.017   5.262   2.197  0.9151  1.7512  0.0326
13104TIP3    H260728   0.017   5.289   2.342 -0.1829 -0.2578  0.7112
13105TIP3   OH260729   0.205   0.900   2.508  0.2016  0.0603  0.3321
13105TIP3    H160730   0.253   0.901   2.591 -0.6672  1.2503  0.8540
13105TIP3    H260731   0.116   0.925   2.533 -0.4061 -0.9454 -0.7745
13106TIP3   OH260732   5.471   3.542  15.387 -0.2336 -0.1979  0.0653
13106TIP3    H160733   5.428   3.574  15.467  0.9006 -0.4383  0.7888
13106TIP3    H260734   5.408   3.560  15.318 -0.7871  1.0406  0.8530
13107TIP3   OH260735   6.322   2.744  14.970 -0.6589 -0.3895  0.1417
13107TIP3    H160736   6.336   2.700  15.054 -2.2815 -1.4788 -0.1055
13107TIP3    H260737   6.363   2.686  14.905 -0.9121 -0.4278  0.0161
13108TIP3   OH260738   2.751   1.393  13.383 -0.3558  0.0407  0.5706
13108TIP3    H160739   2.820   1.416  13.445  0.4262  1.8630 -0.8836
13108TIP3    H260740   2.779   1.310  13.345 -0.7043 -0.9543  2.3918
13109TIP3   OH260741   2.883   4.146  11.511 -0.4617  0.2443  0.2328
13109TIP3    H160742   2.931   4.135  11.593 -0.6070  0.9430  0.4177
13109TIP3    H260743   2.833   4.065  11.501  0.8159 -0.5520 -0.0150
13110TIP3   OH260744   0.114   3.680  14.149 -0.0142 -0.6238  0.3487
13110TIP3    H160745   0.082   3.597  14.185 -1.3529  0.0104  0.6948
13110TIP3    H260746   0.146   3.728  14.225 -0.2975 -0.3724  0.3101
13111TIP3   OH260747   1.312   0.464  16.349 -0.3860  0.3647 -0.1099
13111TIP3    H160748   1.224   0.456  16.387  0.1925 -1.1115  1.0194
13111TIP3    H260749   1.371   0.463  16.424  0.6530  0.4120 -0.9033
13112TIP3   OH260750   2.418   4.640   0.615 -0.3748 -0.4154  0.5234
13112TIP3    H160751   2.442   4.559   0.569 -0.4788 -0.6486  0.8683
13112TIP3    H260752   2.435   4.710   0.552 -0.9879 -0.7638 -0.0514
13113TIP3   OH260753   4.294   6.534  13.399 -0.1901  0.0448 -0.1832
13113TIP3    H160754   4.266   6.616  13.439  0.3984 -0.1495  0.6719
13113TIP3    H260755   4.283   6.547  13.305 -1.6732  0.5027  0.0296
13114TIP3   OH260756   6.701   1.469   1.072 -0.3603 -1.0641 -0.3519
13114TIP3    H160757   6.777   1.502   1.024 -0.1566 -1.1313 -0.0787
13114TIP3    H260758   6.737   1.439   1.155 -1.1581  2.4096  1.4395
13115TIP3   OH260759   0.511   1.148  12.070  0.3871  0.4414 -0.6975
13115TIP3    H160760   0.590   1.112  12.029 -0.9364 -2.2596 -1.0872
13115TIP3    H260761   0.486   1.083  12.136 -0.5737  2.0911  0.6428
13116TIP3   OH260762   0.679   0.676   5.894 -0.6426  0.3019  0.5153
13116TIP3    H160763   0.619   0.690   5.967  0.1311  1.2318  0.9994
13116TIP3    H260764   0.763   0.710   5.925 -0.3696  1.0298 -0.9205
13117TIP3   OH260765   3.892   0.854   4.545 -0.2254 -0.1121  0.2121
13117TIP3    H160766   3.964   0.865   4.483  0.4670 -1.2509  0.7832
13117TIP3    H260767   3.876   0.942   4.580 -0.4326  0.4885 -1.3332
13118TIP3   OH260768   1.535   6.295   3.780  0.2355  0.3178 -0.2178
13118TIP3    H160769   1.536   6.356   3.854 -0.0929 -1.6696  1.5211
13118TIP3    H260770   1.615   6.243   3.790  0.7973  0.7655 -1.9820
13119TIP3   OH260771   5.633   0.332  16.761  0.2088  0.0216  0.6385
13119TIP3    H160772   5.693   0.296  16.697  0.2882  0.0440  0.7011
13119TIP3    H260773   5.583   0.256  16.792 -2.5159  0.4478 -2.2017
13120TIP3   OH260774   0.807   3.721   4.784 -0.1579 -0.6909  0.4184
13120TIP3    H160775   0.793   3.800   4.836  2.7944  0.1924  0.0653
13120TIP3    H260776   0.769   3.650   4.837  0.4198  0.5036  2.5485
13121TIP3   OH260777   1.697   6.288   4.962 -0.2392 -0.2818  0.0443
13121TIP3    H160778   1.607   6.321   4.967 -0.4503 -0.4238 -1.9064
13121TIP3    H260779   1.693   6.202   5.005 -1.0721 -0.3306 -0.1012
13122TIP3   OH260780   6.537   3.729  16.219 -0.0570  0.3549  0.4013
13122TIP3    H160781   6.554   3.677  16.141 -1.4554  0.3692  0.0459
13122TIP3    H260782   6.614   3.784  16.229  0.6038 -0.4158 -0.3405
13123TIP3   OH260783   6.204   1.797  16.874  0.4631 -0.1742  0.1626
13123TIP3    H160784   6.143   1.724  16.870  0.9729 -0.6420  0.7242
13123TIP3    H260785   6.151   1.872  16.901 -0.5568  0.2509 -2.7099
13124TIP3   OH260786   6.282   0.028  15.294 -0.3370  0.3261 -0.4119
13124TIP3    H160787   6.316  -0.003  15.377 -0.7101 -0.0965 -0.4168
13124TIP3    H260788   6.217   0.095  15.317 -1.3726 -0.6922 -0.3121
13125TIP3   OH260789   3.388   1.894  15.477  0.4408  0.2691  0.0656
13125TIP3    H160790   3.315   1.916  15.418  0.7038  0.4978 -0.1767
13125TIP3    H260791   3.444   1.837  15.424 -0.0813 -0.7579  0.5907
13126TIP3   OH260792   5.950   1.761  15.699  0.2995 -0.0057  0.3055
13126TIP3    H160793   5.914   1.723  15.779  0.8418 -0.1259  0.5003
13126TIP3    H260794   5.978   1.686  15.647  0.5707  0.0949  0.3041
13127TIP3   OH260795   5.581   5.841  12.988 -0.0512 -0.1897 -0.4397
13127TIP3    H160796   5.606   5.889  12.909  0.3712 -2.6889 -1.9132
13127TIP3    H260797   5.664   5.825  13.034 -0.3270  1.5744  0.8093
13128TIP3   OH260798   3.968   5.755  16.332  0.4939 -0.0550 -0.6142
13128TIP3    H160799   4.013   5.675  16.360  0.1444 -0.4069 -1.0521
13128TIP3    H260800   3.996   5.768  16.242 -2.6728 -2.0687 -2.0484
13129TIP3   OH260801   0.466   1.010  11.242  0.4326 -0.7812 -0.7458
13129TIP3    H160802   0.553   0.969  11.233  0.8300  0.1054 -1.0080
13129TIP3    H260803   0.427   0.965  11.317  1.7294 -0.1505  0.3555
13130TIP3   OH260804   0.543   4.542  15.026 -0.4393  0.1156 -0.0132
13130TIP3    H160805   0.568   4.525  14.935  0.4174  1.6172 -0.0844
13130TIP3    H260806   0.482   4.616  15.021 -1.0110 -0.3047  0.5845
13131TIP3   OH260807   5.517   2.668   4.030  0.3025 -0.1379 -0.0943
13131TIP3    H160808   5.604   2.649   4.066  0.3161  0.3321  0.1319
13131TIP3    H260809   5.496   2.754   4.065 -0.5621 -0.5526  0.4360
13132TIP3   OH260810   6.508   3.471  16.864  0.2082  0.2058 -0.6772
13132TIP3    H160811   6.568   3.441  16.795  1.1394 -1.1266  0.6214
13132TIP3    H260812   6.566   3.489  16.939 -0.8180  1.0805 -0.0762
13133TIP3   OH260813   1.545   4.002  16.049 -0.0843  0.2244  0.3574
13133TIP3    H160814   1.485   4.069  16.082  0.1035  1.3305 -1.4540
13133TIP3    H260815   1.593   3.973  16.127 -1.9816  0.3014  1.6019
13134TIP3   OH260816   0.325   4.777  11.200  0.1789  0.2602  0.1796
13134TIP3    H160817   0.400   4.785  11.259  0.5813 -0.2874 -0.2443
13134TIP3    H260818   0.303   4.684  11.203  1.0204 -0.0224 -1.5002
13135TIP3   OH260819   5.099   3.770   3.946 -0.3094  0.5454 -0.6924
13135TIP3    H160820   5.125   3.817   3.866 -1.0275  0.2558 -1.1112
13135TIP3    H260821   5.087   3.679   3.917 -0.0382  0.3241 -0.1292
13136TIP3   OH260822   1.830   1.853   5.930 -0.8333 -0.5926  0.3503
13136TIP3    H160823   1.896   1.912   5.967 -0.6307  0.0970 -1.0314
13136TIP3    H260824   1.829   1.778   5.988  0.1303  0.0392  1.2108
13137TIP3   OH260825   2.021   1.592   0.245 -0.3777 -0.2441 -0.0094
13137TIP3    H160826   1.950   1.605   0.182 -1.8265  0.7043  1.7393
13137TIP3    H260827   2.099   1.583   0.191 -1.5360  0.6551 -1.9438
13138TIP3   OH260828   3.441   3.950   2.083  0.3744  0.0745 -0.0415
13138TIP3    H160829   3.448   3.872   2.028 -0.2902 -0.6398  0.8694
13138TIP3    H260830   3.349   3.951   2.110  0.6858  0.4401  1.0249
13139TIP3   OH260831   2.224   1.329  14.983  0.0564  0.4401  0.4704
13139TIP3    H160832   2.189   1.410  14.946 -0.8533  0.2047  0.7972
13139TIP3    H260833   2.251   1.278  14.907 -0.4264  0.5755  0.2058
13140TIP3   OH260834   4.033   6.748   1.441 -0.0466 -0.0833 -0.7340
13140TIP3    H160835   4.038   6.753   1.536 -1.1224 -1.6281 -0.5500
13140TIP3    H260836   4.073   6.829   1.410  1.5281 -0.1413  0.9802
13141TIP3   OH260837   3.892   4.350   2.654  0.8664 -0.5449  0.4251
13141TIP3    H160838   3.862   4.290   2.721 -1.1986 -0.2689 -0.1648
13141TIP3    H260839   3.813   4.371   2.604  1.8809  1.1518 -0.5693
13142TIP3   OH260840   2.273   2.726  11.819  0.5350  0.4161  0.1491
13142TIP3    H160841   2.250   2.636  11.796 -0.1467  0.4459  0.6885
13142TIP3    H260842   2.368   2.732  11.803  0.8396 -0.7923  1.3661
13143TIP3   OH260843   5.532   6.472   0.692 -0.1522  0.4337  0.2038
13143TIP3    H160844   5.506   6.525   0.617 -1.4174  0.5660  0.6992
13143TIP3    H260845   5.604   6.520   0.732  1.0032  0.0119 -1.2970
13144TIP3   OH260846   4.504   1.035  16.618 -0.1468  0.6724 -0.3629
13144TIP3    H160847   4.454   0.963  16.658  0.9754  0.2655  0.3445
13144TIP3    H260848   4.475   1.035  16.526  0.6481 -1.4618 -0.6898
13145TIP3   OH260849   6.511   5.227  10.475 -0.2254 -0.0356 -0.8338
13145TIP3    H160850   6.572   5.179  10.532 -0.2027 -0.8454 -1.5203
13145TIP3    H260851   6.565   5.294  10.433  0.4631 -1.4024 -2.2255
13146TIP3   OH260852   1.159   4.566  11.731  0.9399 -0.4415  0.0936
13146TIP3    H160853   1.114   4.633  11.681 -2.0793 -0.8500  2.0338
13146TIP3    H260854   1.173   4.495  11.668  1.0373  0.6126 -1.1199
13147TIP3   OH260855   2.562   5.842   0.455  0.5948 -0.5696  0.3393
13147TIP3    H160856   2.496   5.791   0.502  0.0800 -0.7761 -0.5774
13147TIP3    H260857   2.539   5.832   0.363  1.7613 -0.4323  0.0098
13148TIP3   OH260858   4.557   2.150  14.640 -0.1273 -0.4426 -0.1190
13148TIP3    H160859   4.571   2.146  14.546  2.1204 -0.9383  0.1721
13148TIP3    H260860   4.554   2.059  14.669  0.6791 -0.3025  0.4462
13149TIP3   OH260861   4.114   5.762   3.476 -0.4683  0.0272 -0.4134
13149TIP3    H160862   4.171   5.834   3.502  1.5585 -2.0305  1.1838
13149TIP3    H260863   4.121   5.759   3.380 -0.9047  2.1021 -0.5587
13150TIP3   OH260864   3.583   1.012   4.792 -0.6780 -0.4722  0.1954
13150TIP3    H160865   3.646   1.075   4.826 -0.1286 -1.1161  0.3902
13150TIP3    H260866   3.575   1.033   4.699 -1.0513  0.3394  0.4014
13151TIP3   OH260867   4.128   6.737   2.731  0.5758  0.4978 -0.4080
13151TIP3    H160868   4.193   6.807   2.733  1.8117 -0.5885 -1.1742
13151TIP3    H260869   4.164   6.672   2.670 -2.3223  0.9070 -2.7553
13152TIP3   OH260870   6.584   5.555  13.208  0.1503  0.4431  0.1896
13152TIP3    H160871   6.642   5.582  13.279  0.7650 -0.3982  0.0223
13152TIP3    H260872   6.565   5.636  13.161  0.5466  0.8542  0.7186
13153TIP3   OH260873   5.537   1.540   6.515 -0.2697 -0.2465 -0.5188
13153TIP3    H160874   5.584   1.599   6.456  0.1981  0.2021  0.2766
13153TIP3    H260875   5.446   1.570   6.512  0.1345  1.2372  0.6735
13154TIP3   OH260876   2.418   5.771  12.162  0.0913 -0.1387  0.1931
13154TIP3    H160877   2.423   5.867  12.160 -0.6357 -0.1031 -0.2338
13154TIP3    H260878   2.402   5.746  12.071 -0.0849 -0.6429  0.3597
13155TIP3   OH260879   4.025   4.681   5.891  0.2090 -0.0855 -0.2171
13155TIP3    H160880   4.121   4.683   5.893  0.2774 -1.3835 -0.8141
13155TIP3    H260881   4.002   4.594   5.925 -0.7951  0.4000  0.4158
13156TIP3   OH260882   5.912   3.002  13.963  0.0613 -0.5628 -0.1470
13156TIP3    H160883   5.969   2.947  14.017 -0.9308 -0.4450  1.0717
13156TIP3    H260884   5.952   3.001  13.876  1.1477 -1.5906  0.3450
13157TIP3   OH260885   4.512   5.298   1.575 -0.0324 -0.2849 -0.1077
13157TIP3    H160886   4.508   5.393   1.558 -1.7031 -0.4914 -1.1487
13157TIP3    H260887   4.552   5.291   1.661  1.5260  1.2860 -0.6283
13158TIP3   OH260888   0.587   5.736  11.004 -0.1663 -0.1270  0.4214
13158TIP3    H160889   0.678   5.756  10.980 -0.0545  0.3668  1.2143
13158TIP3    H260890   0.574   5.645  10.975  0.3798  0.0050 -0.2541
13159TIP3   OH260891   5.767   2.524  13.501 -0.2669  0.0910 -0.7817
13159TIP3    H160892   5.819   2.584  13.448 -0.0592  1.7294  1.1584
13159TIP3    H260893   5.723   2.580  13.565 -1.0829 -1.7015  0.3166
13160TIP3   OH260894   4.504   1.745  16.460  0.3659  0.2450 -0.7740
13160TIP3    H160895   4.500   1.814  16.526 -0.1840  0.4274 -0.9917
13160TIP3    H260896   4.573   1.686  16.491  0.8564  0.8985 -0.5992
13161TIP3   OH260897   2.417   0.446  15.038  0.0445  0.0221 -0.8893
13161TIP3    H160898   2.451   0.358  15.023 -1.2506 -0.5515 -0.5777
13161TIP3    H260899   2.427   0.460  15.132 -0.3315 -0.0429 -0.8393
13162TIP3   OH260900   6.350   5.711  11.044  0.2803  0.2650  0.7285
13162TIP3    H160901   6.357   5.749  10.957 -1.6455 -0.6020  0.1380
13162TIP3    H260902   6.310   5.779  11.097 -2.1939 -0.4539 -0.0770
13163TIP3   OH260903   0.083   0.605  12.539 -0.4360  0.2766 -0.0833
13163TIP3    H160904   0.032   0.578  12.462  0.4213 -0.1860 -0.5163
13163TIP3    H260905   0.144   0.532  12.553 -0.4978  0.4185  0.9612
13164TIP3   OH260906   3.604   2.038   3.853  0.4757 -0.1899 -0.3582
13164TIP3    H160907   3.536   2.020   3.789 -1.5297 -1.5738  1.9733
13164TIP3    H260908   3.558   2.079   3.927  2.3903  0.0126  0.8093
13165TIP3   OH260909   4.874   0.195   4.139 -0.4197 -0.5117  0.1813
13165TIP3    H160910   4.942   0.242   4.189 -1.0241 -0.3441  0.8716
13165TIP3    H260911   4.904   0.199   4.048  0.4477 -0.3640  0.4619
13166TIP3   OH260912   3.556   3.610   4.060  0.2845 -0.1510 -0.0680
13166TIP3    H160913   3.484   3.548   4.058  0.5666 -0.5934  1.6525
13166TIP3    H260914   3.607   3.590   3.982 -0.6085 -0.8788 -0.4814
13167TIP3   OH260915   1.566   4.962  13.700  0.3309  0.1093 -0.0087
13167TIP3    H160916   1.631   4.926  13.761  0.7108  1.0568  0.1551
13167TIP3    H260917   1.484   4.919  13.725  0.0866  1.7595  2.3721
13168TIP3   OH260918   3.294   3.189   5.348  0.3193 -0.1645 -0.1059
13168TIP3    H160919   3.216   3.155   5.304 -1.1480  1.3948  1.1131
13168TIP3    H260920   3.324   3.117   5.404 -1.2836 -0.2777  0.6570
13169TIP3   OH260921   6.405   1.168   3.874 -0.2481 -0.1129  0.5131
13169TIP3    H160922   6.483   1.112   3.874  0.2609  0.5733  1.1170
13169TIP3    H260923   6.376   1.170   3.783 -0.0977 -1.1077  0.4365
13170TIP3   OH260924   0.169   5.057  14.336 -0.3152  0.3338  0.7292
13170TIP3    H160925   0.168   5.134  14.280 -1.4981 -0.8804 -1.0473
13170TIP3    H260926   0.089   5.064  14.388 -0.6397  0.1010  0.2637
13171TIP3   OH260927   2.258   3.095   3.333  0.5100 -0.4006  0.0256
13171TIP3    H160928   2.313   3.048   3.271 -0.7918  0.4631 -1.8890
13171TIP3    H260929   2.170   3.059   3.320 -0.1526  1.1769 -0.1158
13172TIP3   OH260930   1.967   2.851  16.914  0.5994 -0.4886 -0.1035
13172TIP3    H160931   2.019   2.781  16.875  0.5268 -0.3920 -0.3746
13172TIP3    H260932   1.899   2.805  16.964  2.2648 -0.6731  2.1502
13173TIP3   OH260933   5.177   0.130  14.975 -0.1314 -0.5871  0.1475
13173TIP3    H160934   5.216   0.189  15.040 -0.6739 -1.5021  1.3461
13173TIP3    H260935   5.086   0.157  14.970 -0.7212 -2.1653  1.7383
13174TIP3   OH260936   1.110   2.493  13.856  0.1096  0.2799 -0.1613
13174TIP3    H160937   1.058   2.553  13.910  0.5240  1.1911 -0.7603
13174TIP3    H260938   1.045   2.442  13.808 -0.2740 -0.5754  1.1904
13175TIP3   OH260939   3.462   0.024   4.528  0.0393  0.1700 -0.2837
13175TIP3    H160940   3.448   0.102   4.474 -0.1071  0.0825 -0.3725
13175TIP3    H260941   3.375   0.005   4.565  0.0688  0.0312 -0.2874
13176TIP3   OH260942   5.130   1.622  12.231  0.1639  0.3016 -0.3145
13176TIP3    H160943   5.046   1.601  12.190  0.2142 -2.3832  0.7137
13176TIP3    H260944   5.136   1.717  12.227 -2.5659  0.5300 -1.1147
13177TIP3   OH260945   1.541   0.969   5.897 -0.0056  0.3634 -0.3540
13177TIP3    H160946   1.558   1.055   5.935  0.5913  0.8814 -1.7104
13177TIP3    H260947   1.484   0.926   5.960 -0.2859  1.7414  0.3831
13178TIP3   OH260948   3.310   2.579  13.459 -0.2405 -0.4725  0.1427
13178TIP3    H160949   3.404   2.597  13.461 -0.3294  0.1741 -0.6531
13178TIP3    H260950   3.300   2.510  13.394 -0.4299  0.3763 -0.7597
13179TIP3   OH260951   1.336   4.617  14.054  0.1795 -0.4922  0.4373
13179TIP3    H160952   1.400   4.596  14.122  0.7856  0.3282  0.1356
13179TIP3    H260953   1.270   4.549  14.062  1.2967 -1.6151  0.4925
13180TIP3   OH260954   4.059   6.486  14.603 -0.0954  0.1896  0.3694
13180TIP3    H160955   4.119   6.462  14.532 -2.2087 -0.9890 -1.1330
13180TIP3    H260956   3.994   6.543  14.560 -0.9984  0.0694  1.5322
13181TIP3   OH260957   3.459   0.555   5.257  0.2392 -0.3143 -0.3441
13181TIP3    H160958   3.522   0.580   5.324  0.9228  4.5209 -2.3634
13181TIP3    H260959   3.375   0.588   5.289  0.6900  2.7244 -1.8764
13182TIP3   OH260960   6.462   5.945  16.158  0.2734 -0.3220 -0.2046
13182TIP3    H160961   6.544   5.918  16.197  0.0561 -0.2645  0.3014
13182TIP3    H260962   6.435   5.871  16.104  0.7218 -0.2886 -0.4742
13183TIP3   OH260963   6.757   2.164  15.071 -0.2050 -0.2007 -0.2211
13183TIP3    H160964   6.690   2.096  15.071  1.7646 -2.2634 -0.9469
13183TIP3    H260965   6.840   2.117  15.067  1.3820  2.2075  1.2398
13184TIP3   OH260966   0.085   5.769  16.042 -0.4335  0.3424  0.0970
13184TIP3    H160967   0.035   5.716  15.980 -0.1513 -0.3255  0.4274
13184TIP3    H260968   0.156   5.712  16.070  2.6731  2.3035 -2.9606
13185TIP3   OH260969   2.518   3.991  12.103  0.5667  0.0506  0.0724
13185TIP3    H160970   2.441   3.976  12.048 -1.0092 -0.1372  2.2187
13185TIP3    H260971   2.590   3.947  12.056 -0.2296  1.5008 -2.7559
13186TIP3   OH260972   1.272   3.967   5.675  0.1082  0.0311  0.3732
13186TIP3    H160973   1.194   3.918   5.648 -0.1634  0.4901  0.3235
13186TIP3    H260974   1.277   4.041   5.615  1.3323 -0.7056 -0.4764
13187TIP3   OH260975   3.940   1.894   0.705 -0.5155  0.1617  0.1156
13187TIP3    H160976   3.982   1.848   0.777  0.1866 -0.9724 -0.9709
13187TIP3    H260977   3.863   1.936   0.744 -0.5772 -1.0451  1.3735
13188TIP3   OH260978   5.251   1.046  11.236 -0.1472 -0.6481 -0.1057
13188TIP3    H160979   5.193   1.116  11.268  1.3038  1.6385 -2.2031
13188TIP3    H260980   5.325   1.091  11.197  0.8887 -3.3987 -1.6006
13189TIP3   OH260981   5.643   4.455   5.101 -0.5985 -0.1914 -0.0764
13189TIP3    H160982   5.557   4.447   5.060 -0.2287  0.0304 -0.9075
13189TIP3    H260983   5.629   4.425   5.191 -1.7638  0.7759  0.0878
13190TIP3   OH260984   2.785   2.885  12.698 -0.3548  0.9558  0.0179
13190TIP3    H160985   2.755   2.855  12.613  1.0839 -0.7585  0.0442
13190TIP3    H260986   2.758   2.976  12.704 -0.5634  1.0727 -2.2230
13191TIP3   OH260987   0.595   5.647  12.488  0.3253  0.0075 -0.1127
13191TIP3    H160988   0.606   5.611  12.576 -1.3637 -0.6124 -0.1189
13191TIP3    H260989   0.553   5.732  12.502  0.3727  0.0648 -0.3142
13192TIP3   OH260990   4.075   5.764   0.531  0.6936 -0.1488  0.0416
13192TIP3    H160991   3.995   5.732   0.489  1.2212 -0.1899 -0.9758
13192TIP3    H260992   4.072   5.728   0.620 -0.3502 -0.2484 -0.0301
13193TIP3   OH260993   1.444   2.459  14.663 -0.1159  0.2597 -0.7937
13193TIP3    H160994   1.450   2.456  14.758 -1.7115  2.0233 -0.5857
13193TIP3    H260995   1.527   2.497  14.635 -0.0320  0.6650 -0.0300
13194TIP3   OH260996   0.489   6.212   0.563 -0.2651 -0.0747 -0.4820
13194TIP3    H160997   0.439   6.130   0.572  2.2253 -1.5114  1.6287
13194TIP3    H260998   0.525   6.209   0.474 -1.0296 -0.7324 -0.7832
13195TIP3   OH260999   6.716   5.209  14.445 -0.2222  0.7237 -0.4541
13195TIP3    H161000   6.735   5.285  14.390 -0.1638 -0.8404 -2.7372
13195TIP3    H261001   6.640   5.167  14.404 -0.1772 -0.5264  0.6516
13196TIP3   OH261002   4.256   3.161  15.494 -0.1677 -0.0424 -0.5849
13196TIP3    H161003   4.324   3.190  15.434  0.6206  0.0882  0.3374
13196TIP3    H261004   4.216   3.243  15.526  1.5824  0.0801  1.4818
13197TIP3   OH261005   3.749   0.846   3.759  0.5594 -0.8076 -0.4796
13197TIP3    H161006   3.707   0.763   3.781 -0.6106 -0.1155 -0.0338
13197TIP3    H261007   3.719   0.907   3.826  0.4365  0.2657 -1.4733
13198TIP3   OH261008   3.135   4.281   5.786 -0.6306 -0.0541 -0.1547
13198TIP3    H161009   3.220   4.237   5.796 -0.0775  0.7561 -1.1619
13198TIP3    H261010   3.071   4.213   5.807  0.2643 -0.5583  1.0445
13199TIP3   OH261011   3.475   3.243   4.341 -0.0667 -0.4629  0.2537
13199TIP3    H161012   3.505   3.287   4.261 -0.6550 -1.0041 -0.2830
13199TIP3    H261013   3.419   3.172   4.309 -1.6281  0.2807  1.1704
13200TIP3   OH261014   5.871   1.733   4.666 -0.0305  0.9534  0.1622
13200TIP3    H161015   5.796   1.739   4.725  1.3371 -0.0418  2.1594
13200TIP3    H261016   5.945   1.712   4.724  1.9798  2.7263 -1.5803
13201TIP3   OH261017   4.898   0.679  14.121 -0.1135 -0.5105  0.0740
13201TIP3    H161018   4.867   0.645  14.204 -1.2422  0.2453 -0.0170
13201TIP3    H261019   4.841   0.638  14.055 -2.0380  2.0042  0.0156
13202TIP3   OH261020   4.024   1.264   2.056 -0.1442 -0.0045 -0.2839
13202TIP3    H161021   3.943   1.228   2.020 -0.4623  0.6515 -0.2528
13202TIP3    H261022   4.012   1.259   2.151 -0.8551  1.5641 -0.2592
13203TIP3   OH261023   2.703   4.812  11.604 -0.2324  0.5382  0.0757
13203TIP3    H161024   2.687   4.722  11.575  1.7679 -0.1061  0.8254
13203TIP3    H261025   2.672   4.813  11.695  0.8137  0.2371  0.4514
13204TIP3   OH261026   3.898   5.584  12.130 -0.3520 -0.0750 -0.1197
13204TIP3    H161027   3.813   5.546  12.107 -0.4686 -0.2816  0.5953
13204TIP3    H261028   3.942   5.514  12.179 -0.2254  0.4127  0.4805
13205TIP3   OH261029   0.202   2.451  11.064 -0.2628 -0.5924  0.1116
13205TIP3    H161030   0.140   2.523  11.049  1.1183  0.8859  1.1405
13205TIP3    H261031   0.230   2.425  10.976 -2.3144 -1.3493 -0.3900
13206TIP3   OH261032   2.330   4.342   3.916  0.0436  0.5366 -0.2227
13206TIP3    H161033   2.264   4.345   3.846 -0.6605  1.4656  0.4574
13206TIP3    H261034   2.344   4.248   3.931  1.0704  0.2949 -2.3694
13207TIP3   OH261035   3.089   2.966  12.308  0.5560  0.2384  0.0816
13207TIP3    H161036   3.089   3.061  12.320 -0.2818  0.3783 -0.9232
13207TIP3    H261037   3.001   2.946  12.276  1.4746 -0.5336 -2.1954
13208TIP3   OH261038   4.924   5.138   3.315  0.8252 -0.2265 -0.0797
13208TIP3    H161039   4.949   5.058   3.362  0.9699 -0.2501 -0.1972
13208TIP3    H261040   4.915   5.204   3.384  1.3475 -0.1833 -0.0518
13209TIP3   OH261041   0.618   2.079  16.789  0.0334 -0.4057 -0.8093
13209TIP3    H161042   0.607   2.174  16.782  0.2116 -0.4114 -1.1901
13209TIP3    H261043   0.640   2.051  16.700  0.9762 -0.6735 -0.5086
13210TIP3   OH261044   5.801   4.001   3.012 -0.7678 -0.0040  0.2159
13210TIP3    H161045   5.707   4.016   3.021 -1.1111 -1.1852 -1.0431
13210TIP3    H261046   5.809   3.949   2.932  0.8783 -0.7256  0.8124
13211TIP3   OH261047   2.482   2.228  13.129 -0.0149  0.1069  0.2314
13211TIP3    H161048   2.502   2.138  13.155  0.9650  0.8642  2.3115
13211TIP3    H261049   2.550   2.251  13.066  1.1548  0.1208  1.4601
13212TIP3   OH261050   1.475   5.517  11.077 -0.7220 -0.0102 -0.1308
13212TIP3    H161051   1.566   5.541  11.094 -0.8079  0.5700 -0.4814
13212TIP3    H261052   1.432   5.599  11.054 -0.9664 -0.5102 -1.5770
13213TIP3   OH261053   1.691   6.728  14.851 -0.1654  0.1515  0.5225
13213TIP3    H161054   1.722   6.761  14.767 -0.9594  1.4783  0.7261
13213TIP3    H261055   1.710   6.634  14.848  1.1912  0.4183 -0.5180
13214TIP3   OH261056   3.441   1.412   3.143 -0.1302  0.3612 -0.0790
13214TIP3    H161057   3.481   1.330   3.114  1.2969  0.7922  0.5985
13214TIP3    H261058   3.356   1.387   3.178 -1.7317 -0.3030 -3.9080
13215TIP3   OH261059   5.483   0.840  12.145  0.0391  0.4406  0.0126
13215TIP3    H161060   5.481   0.746  12.126 -0.1196  0.2665  0.8255
13215TIP3    H261061   5.396   0.871  12.120  0.1249  0.3906 -0.3489
13216TIP3   OH261062   0.077   3.314  12.809 -0.1558 -0.5368 -0.7240
13216TIP3    H161063   0.139   3.387  12.800 -0.1741 -0.4390 -0.0925
13216TIP3    H261064   0.122   3.251  12.865 -0.3853 -0.7439 -0.7721
13217TIP3   OH261065   2.815   2.467   0.690 -0.9732 -0.2443 -0.1435
13217TIP3    H161066   2.861   2.550   0.676  0.0058 -0.6153  0.7278
13217TIP3    H261067   2.722   2.488   0.677 -0.6004  0.5769 -1.6937
13218TIP3   OH261068   4.812   0.859   1.782  0.1787  0.3564  0.3598
13218TIP3    H161069   4.763   0.871   1.701 -1.6695 -1.3214  1.1424
13218TIP3    H261070   4.903   0.855   1.755 -0.3131  0.8165 -1.4935
13219TIP3   OH261071   1.319   1.677   5.605  0.0876  0.5102 -0.2877
13219TIP3    H161072   1.257   1.711   5.540  1.4908  0.1162 -1.9045
13219TIP3    H261073   1.372   1.753   5.629 -2.2405  1.3602  2.7026
13220TIP3   OH261074   0.002   2.077   3.697 -0.2453 -0.0386 -0.2286
13220TIP3    H161075   0.015   2.107   3.787  0.4828 -0.7218 -0.0985
13220TIP3    H261076  -0.082   2.031   3.699 -0.9005  1.1126 -0.2187
13221TIP3   OH261077   3.966   3.559   4.682  0.1677  0.3344  0.0582
13221TIP3    H161078   4.049   3.553   4.635  0.6688  0.9215  0.8295
13221TIP3    H261079   3.912   3.617   4.630  0.7172  0.9810  0.2052
13222TIP3   OH261080   1.078   0.611  12.183 -0.0524  0.3183 -0.3077
13222TIP3    H161081   1.019   0.557  12.236  0.3724 -0.3747 -0.5229
13222TIP3    H261082   1.067   0.576  12.094 -1.0069  1.6742 -0.7585
13223TIP3   OH261083   3.032   5.536  16.615 -0.3447  0.4598  0.6769
13223TIP3    H161084   3.079   5.484  16.680  0.2589 -0.8252 -0.7120
13223TIP3    H261085   3.090   5.536  16.538 -2.1803 -0.3758 -0.7784
13224TIP3   OH261086   4.379   3.586  15.352  0.3233  0.0821  0.0036
13224TIP3    H161087   4.384   3.581  15.448 -0.3134 -0.0096  0.0361
13224TIP3    H261088   4.292   3.622  15.335 -0.2894 -1.6149 -0.5949
13225TIP3   OH261089   6.772   5.976  15.042 -0.2173  0.1081  0.3811
13225TIP3    H161090   6.731   5.969  14.956 -0.6609 -0.7588  0.6459
13225TIP3    H261091   6.815   6.062  15.042 -1.3952  0.7176 -0.1838
13226TIP3   OH261092   0.933   0.836   1.908  0.0814  0.0270 -0.5566
13226TIP3    H161093   0.851   0.884   1.921 -0.7109 -0.9218 -1.8160
13226TIP3    H261094   0.922   0.755   1.959 -0.5959 -0.9820 -2.2315
13227TIP3   OH261095   0.371   5.773  16.908 -0.4434  0.5221  0.6729
13227TIP3    H161096   0.438   5.708  16.888 -0.7365  0.3182  0.3356
13227TIP3    H261097   0.418   5.856  16.908 -0.5194  0.6344 -1.5645
13228TIP3   OH261098   0.507   0.416   3.863  0.4680  0.6911  0.3563
13228TIP3    H161099   0.591   0.378   3.837  0.0837  0.4680 -0.5905
13228TIP3    H261100   0.531   0.500   3.904  1.1832  0.3651  0.6298
13229TIP3   OH261101   0.427   0.192  12.418 -0.3062  0.3656  0.2155
13229TIP3    H161102   0.447   0.122  12.355 -1.3638  0.2567 -0.0133
13229TIP3    H261103   0.499   0.254  12.407  1.0622 -1.0096  0.9379
13230TIP3   OH261104   2.622   1.450   2.840  0.4893  0.0462 -0.2633
13230TIP3    H161105   2.550   1.460   2.903 -1.0264  1.5209 -2.0866
13230TIP3    H261106   2.681   1.523   2.859  0.7644 -0.3112  0.2914
13231TIP3   OH261107   4.969   3.270  14.934  0.2001 -0.2146 -0.4709
13231TIP3    H161108   5.011   3.281  15.019  0.3385  1.6798 -0.7424
13231TIP3    H261109   5.036   3.229  14.879  2.0690  3.2686 -1.0533
13232TIP3   OH261110   1.195   1.157   4.756  0.2126 -0.2845  0.1011
13232TIP3    H161111   1.287   1.145   4.779  0.7528 -0.0318 -1.7695
13232TIP3    H261112   1.155   1.071   4.772  0.4497 -0.0656  2.1259
13233TIP3   OH261113   5.981   5.808  15.508 -0.4777  0.1539 -0.1792
13233TIP3    H161114   5.992   5.896  15.543  0.5645 -0.3604  0.8209
13233TIP3    H261115   5.886   5.795  15.507 -0.5876  0.7426  1.0565
13234TIP3   OH261116   6.049   0.559  11.255  0.4528  0.7635  0.1553
13234TIP3    H161117   6.002   0.541  11.336 -0.0322 -0.8695 -0.4414
13234TIP3    H261118   6.094   0.476  11.234 -2.4417 -0.2462 -3.1329
13235TIP3   OH261119   0.667   5.960  12.113  0.2785 -0.1089 -0.7123
13235TIP3    H161120   0.650   5.870  12.142  1.7911 -0.5000 -0.9413
13235TIP3    H261121   0.581   5.994  12.088 -0.9465 -0.1910  2.8923
13236TIP3   OH261122   0.027   3.587   0.822  0.2058  0.3241 -0.1364
13236TIP3    H161123   0.002   3.677   0.800 -1.6191 -0.0786  0.1290
13236TIP3    H261124   0.026   3.541   0.738  1.9387  0.7081 -0.3879
13237TIP3   OH261125   0.446   0.328   4.532  0.2564  0.2357 -0.2364
13237TIP3    H161126   0.399   0.362   4.456  1.0200 -0.1416 -0.9040
13237TIP3    H261127   0.440   0.397   4.598 -1.6085  0.0029 -0.1264
13238TIP3   OH261128   2.820   2.979  11.155  0.1758  0.4165  0.1423
13238TIP3    H161129   2.800   2.904  11.212  0.8005  0.7154  0.7706
13238TIP3    H261130   2.776   2.959  11.073 -1.9747  0.6375  1.1682
13239TIP3   OH261131   2.035   1.832   5.747 -0.3567 -0.2988  0.0311
13239TIP3    H161132   1.943   1.819   5.766 -0.4952 -0.5523 -0.7722
13239TIP3    H261133   2.043   1.926   5.730 -0.0609  0.1053  2.1229
13240TIP3   OH261134   6.204   1.888  15.764 -0.5505 -0.0728  0.4582
13240TIP3    H161135   6.251   1.828  15.705 -0.3598 -0.1634  0.6971
13240TIP3    H261136   6.112   1.875  15.743 -0.4712  0.0987 -0.0113
13241TIP3   OH261137   1.490   2.204   3.341  0.1486 -0.3333 -0.1943
13241TIP3    H161138   1.443   2.162   3.413  0.1953  0.3848  0.2657
13241TIP3    H261139   1.567   2.244   3.382  1.6753 -2.2164 -1.0567
13242TIP3   OH261140   6.586   2.129  15.906 -0.4360 -0.2734  1.0398
13242TIP3    H161141   6.580   2.181  15.826 -0.5634  0.3827  1.4665
13242TIP3    H261142   6.665   2.076  15.895 -1.3663 -1.4895 -0.2720
13243TIP3   OH261143   3.738   0.936   1.199  0.2959 -0.1830  0.4234
13243TIP3    H161144   3.711   0.975   1.116 -1.3532  0.6802  1.3191
13243TIP3    H261145   3.751   1.011   1.257 -0.8178 -0.8537  1.5757
13244TIP3   OH261146   1.221   2.414  15.888 -0.2059 -0.6421 -0.0620
13244TIP3    H161147   1.283   2.346  15.860 -0.0945 -0.3703 -0.4966
13244TIP3    H261148   1.160   2.421  15.815  0.5435  0.6263 -0.6025
13245TIP3   OH261149   1.852   3.508   2.854  0.2448  0.5706 -0.4756
13245TIP3    H161150   1.846   3.414   2.841  2.2758 -0.1417  2.7962
13245TIP3    H261151   1.915   3.537   2.788  0.7894 -0.6511 -0.5251
13246TIP3   OH261152   2.533   5.146  14.343  0.2258  0.0849  0.6070
13246TIP3    H161153   2.587   5.211  14.388  0.8725  1.4738 -1.9830
13246TIP3    H261154   2.596   5.095  14.292 -0.5739 -0.7119  0.3963
13247TIP3   OH261155   4.691   0.787   2.075 -0.6923 -0.2427  0.1125
13247TIP3    H161156   4.775   0.749   2.052 -0.5988 -0.4932  0.8456
13247TIP3    H261157   4.673   0.850   2.005  0.9064  1.0659  0.8335
13248TIP3   OH261158   5.316   3.281   2.354  0.2906 -0.0363  0.3513
13248TIP3    H161159   5.350   3.266   2.266 -1.8500 -0.1539 -0.5298
13248TIP3    H261160   5.320   3.195   2.396 -0.9378 -0.5624 -0.5322
13249TIP3   OH261161   6.521   5.423  14.945  0.6950  0.3827 -0.0084
13249TIP3    H161162   6.489   5.392  14.860  0.1419  1.2864 -0.1420
13249TIP3    H261163   6.472   5.503  14.961 -1.0740 -1.0353  2.3506
13250TIP3   OH261164   4.807   3.287  16.384 -0.0842  0.0355  0.1390
13250TIP3    H161165   4.886   3.235  16.366  0.2747  0.5068  0.3353
13250TIP3    H261166   4.746   3.263  16.314 -0.1796 -1.1574  0.6097
13251TIP3   OH261167   0.887   3.505   2.097 -0.2297  0.4755 -0.4594
13251TIP3    H161168   0.954   3.508   2.166 -0.0464  0.5712 -0.6430
13251TIP3    H261169   0.844   3.420   2.110  0.1228  0.2854 -0.5276
13252TIP3   OH261170   0.096   0.620   0.737  0.0816  0.2230  0.2586
13252TIP3    H161171   0.060   0.534   0.716  1.9225 -0.1619 -1.6464
13252TIP3    H261172   0.182   0.602   0.774  0.3441  1.2342  0.1752
13253TIP3   OH261173   5.789   5.173   3.786  0.2688  0.7731 -0.2159
13253TIP3    H161174   5.834   5.167   3.869 -0.7752  0.0309  0.3213
13253TIP3    H261175   5.817   5.096   3.737 -1.6374 -0.6425  0.7846
13254TIP3   OH261176   0.743   6.208   4.380  0.6274  0.1696  0.8596
13254TIP3    H161177   0.754   6.163   4.296 -1.5686 -0.9884  1.0987
13254TIP3    H261178   0.733   6.300   4.357  3.2738  0.3715  0.1836
13255TIP3   OH261179   1.948   3.902  12.417 -0.2543 -0.2578 -0.3842
13255TIP3    H161180   1.975   3.890  12.509 -1.7883  2.6440  0.6032
13255TIP3    H261181   2.030   3.914  12.370  0.5339 -0.8063  0.7949
13256TIP3   OH261182   0.622   2.682   5.825  0.1278  0.2625  0.1074
13256TIP3    H161183   0.597   2.593   5.852 -0.5717  0.5509  0.4335
13256TIP3    H261184   0.681   2.712   5.895  0.9863 -0.2243 -0.3955
13257TIP3   OH261185   6.698   4.807   0.756 -0.3128 -0.2687  0.7087
13257TIP3    H161186   6.622   4.856   0.786 -0.7312 -1.5336  1.8504
13257TIP3    H261187   6.662   4.737   0.702 -0.2702 -2.2816  3.1122
13258TIP3   OH261188   0.141   1.768   4.053  0.0469  0.8756  0.2892
13258TIP3    H161189   0.186   1.722   3.983  0.5372 -1.1266  1.8250
13258TIP3    H261190   0.088   1.833   4.009  0.3111 -0.3346 -1.9444
13259TIP3   OH261191   4.450   6.284  16.639  0.0965 -0.5802 -0.8298
13259TIP3    H161192   4.378   6.224  16.620 -0.0903 -0.3995 -0.6860
13259TIP3    H261193   4.412   6.371  16.634  0.7522 -0.3487 -2.9076
13260TIP3   OH261194   1.183   6.736  10.986 -0.2003 -0.6689 -0.5982
13260TIP3    H161195   1.099   6.691  10.976 -1.1503  0.5056  1.4099
13260TIP3    H261196   1.236   6.703  10.914 -1.8602 -2.6110 -1.0490
13261TIP3   OH261197   3.466   4.942  17.211  0.3077  0.3605 -0.2209
13261TIP3    H161198   3.439   4.874  17.273 -0.6352  0.8327 -0.1035
13261TIP3    H261199   3.448   4.905  17.125  1.4651 -0.2315 -0.2307
13262TIP3   OH261200   3.720   5.536   0.948  0.0150 -0.1689 -0.2768
13262TIP3    H161201   3.698   5.455   0.995  0.9196 -1.0671 -1.3525
13262TIP3    H261202   3.805   5.562   0.985 -1.2405  1.5593  1.6305
13263TIP3   OH261203   3.606   1.863  16.145 -0.2760 -0.7893  0.1327
13263TIP3    H161204   3.534   1.914  16.181 -2.0852 -2.0821 -1.4369
13263TIP3    H261205   3.672   1.928  16.119 -2.0824  0.7019 -0.9519
13264TIP3   OH261206   0.136   5.492   5.337 -0.1185  0.1512  0.0479
13264TIP3    H161207   0.060   5.452   5.380  0.7405 -0.4360  1.0773
13264TIP3    H261208   0.169   5.423   5.279  0.2999 -0.0175  0.4760
13265TIP3   OH261209   1.063   3.272   5.155  0.1413  0.2985 -0.6065
13265TIP3    H161210   1.019   3.195   5.191  1.1006 -0.0327 -0.0969
13265TIP3    H261211   1.128   3.296   5.221  1.3097  0.2359 -1.6833
13266TIP3   OH261212   0.514   0.775   2.950  0.1702  0.1045  0.1603
13266TIP3    H161213   0.499   0.681   2.955 -1.1772  0.2214 -0.9279
13266TIP3    H261214   0.485   0.799   2.862  0.7639  1.4924  0.3198
13267TIP3   OH261215   0.719   2.851  13.856 -0.0016  0.5415 -0.3894
13267TIP3    H161216   0.777   2.814  13.789  1.2003 -0.0068  0.8950
13267TIP3    H261217   0.668   2.777  13.887  0.2067  0.5690  0.0289
13268TIP3   OH261218   5.624   5.090  16.716 -0.4427 -0.6612 -0.6411
13268TIP3    H161219   5.612   5.073  16.622  0.6865  1.2399 -1.1669
13268TIP3    H261220   5.595   5.180  16.728  0.4306 -0.5317  0.6252
13269TIP3   OH261221   4.572   1.977  17.286  0.0643 -0.3361  0.3480
13269TIP3    H161222   4.629   2.043  17.326 -0.4182  0.5399 -0.3776
13269TIP3    H261223   4.627   1.899  17.279  1.0584  0.3669  0.0560
13270TIP3   OH261224   3.965   2.786   3.721 -0.1466 -0.4145  0.1285
13270TIP3    H161225   3.922   2.718   3.670 -1.6041  0.7627 -0.2718
13270TIP3    H261226   4.018   2.834   3.657 -1.7027  0.8441 -0.2775
13271TIP3   OH261227   1.481   6.215  17.034 -0.0923  0.9741 -0.1390
13271TIP3    H161228   1.532   6.294  17.047 -0.8582  1.4722 -0.1019
13271TIP3    H261229   1.426   6.208  17.112  0.1163  0.2924 -0.0459
13272TIP3   OH261230   3.401   6.496  16.551  0.4909 -0.1420  0.3067
13272TIP3    H161231   3.489   6.462  16.538 -0.3528 -2.8038  0.8865
13272TIP3    H261232   3.347   6.450  16.487 -0.2352  3.2522 -1.8189
13273TIP3   OH261233   0.383   2.459  13.017  0.1667 -0.0639  0.6353
13273TIP3    H161234   0.468   2.501  13.003 -0.5902  0.9740 -1.1589
13273TIP3    H261235   0.322   2.532  13.025 -0.7447 -0.8104  0.6031
13274TIP3   OH261236   6.172   5.146  12.528  0.2387 -0.2397 -0.1604
13274TIP3    H161237   6.182   5.094  12.448  0.4708  1.0025 -0.9664
13274TIP3    H261238   6.086   5.186  12.519  1.5754  2.5731 -1.4691
13275TIP3   OH261239   2.370   1.209   1.414 -0.2451 -0.0050 -1.0260
13275TIP3    H161240   2.366   1.156   1.493 -2.2344  0.9105 -0.4495
13275TIP3    H261241   2.318   1.161   1.349  0.5697 -0.2720 -1.5021
13276TIP3   OH261242   2.117   1.306   1.729  0.1662 -0.4322  0.2785
13276TIP3    H161243   2.047   1.366   1.756 -0.5838 -0.9048 -0.5572
13276TIP3    H261244   2.115   1.307   1.634  1.7104 -0.0087  0.2244
13277TIP3   OH261245   4.211   6.188  16.969  0.1008 -0.6355  0.6523
13277TIP3    H161246   4.131   6.230  16.935 -0.3741 -1.7521  0.3371
13277TIP3    H261247   4.213   6.212  17.061 -1.7407 -2.2267  1.1757
13278TIP3   OH261248   5.476   4.307  12.329 -0.4205  0.3946 -0.4541
13278TIP3    H161249   5.552   4.284  12.275  0.3400  0.4323  0.5615
13278TIP3    H261250   5.421   4.229  12.328 -0.2673  0.2909 -1.0382
13279TIP3   OH261251   1.144   2.646  13.592 -0.1715  0.0375  0.0329
13279TIP3    H161252   1.167   2.559  13.623 -0.9438 -0.1290  0.1585
13279TIP3    H261253   1.162   2.644  13.498 -0.3003 -0.2971  0.0146
13280TIP3   OH261254   2.281   2.941   2.507  0.4192  0.3347 -0.1952
13280TIP3    H161255   2.253   2.855   2.539  2.8216 -0.4125  0.0989
13280TIP3    H261256   2.317   2.985   2.584 -1.3338  1.9457 -0.1928
13281TIP3   OH261257   1.524   0.203  12.233  0.9810  0.1899  0.1179
13281TIP3    H161258   1.516   0.187  12.139  0.5250  0.1873  0.1540
13281TIP3    H261259   1.600   0.150  12.260 -1.8828 -4.1335  0.6806
13282TIP3   OH261260   3.490   6.672  11.797 -0.5903 -0.0558 -0.8781
13282TIP3    H161261   3.456   6.748  11.750 -2.0008  0.5218  0.9745
13282TIP3    H261262   3.433   6.662  11.873 -0.1932 -2.7247 -0.8065
13283TIP3   OH261263   5.922   3.664   2.052  0.0630 -0.2223 -0.1592
13283TIP3    H161264   5.945   3.577   2.084  0.7884 -1.0512 -2.6930
13283TIP3    H261265   6.005   3.712   2.052 -0.4374  0.7517  1.8138
13284TIP3   OH261266   3.158   4.230   0.069  0.4428  0.0623 -0.0191
13284TIP3    H161267   3.115   4.182   0.140  2.7409 -0.9641  0.7737
13284TIP3    H261268   3.216   4.292   0.114  1.2556  0.0359 -0.9962
13285TIP3   OH261269   0.376   6.741   1.512  0.5528 -0.2294 -0.2879
13285TIP3    H161270   0.288   6.708   1.528  0.4221  0.1599 -0.1992
13285TIP3    H261271   0.432   6.663   1.517  0.2469 -0.4381 -0.0856
13286TIP3   OH261272   4.392   3.291  15.304  0.2003 -0.0483 -0.1410
13286TIP3    H161273   4.392   3.382  15.332 -0.3173 -0.5565  1.6145
13286TIP3    H261274   4.481   3.276  15.273  0.5181  0.8415  0.2976
13287TIP3   OH261275   1.921   5.889  17.234 -0.0339 -0.6787 -0.2512
13287TIP3    H161276   1.949   5.798  17.249 -2.2023 -1.2972  0.3556
13287TIP3    H261277   1.887   5.890  17.144 -0.1240 -0.4950 -0.2166
13288TIP3   OH261278   6.680   3.090   3.144  0.1373  0.0120  0.2299
13288TIP3    H161279   6.747   3.157   3.140 -1.1712  1.3739  0.2066
13288TIP3    H261280   6.655   3.087   3.237 -1.0493  0.8600 -0.0456
13289TIP3   OH261281   1.909   6.480   0.276 -0.8087 -0.1086  0.6069
13289TIP3    H161282   1.873   6.565   0.251 -0.9024  0.1377  1.5359
13289TIP3    H261283   1.865   6.418   0.219 -0.8797  0.4430  0.0431
13290TIP3   OH261284   0.205   4.398   3.469  0.4764 -0.7237  0.2775
13290TIP3    H161285   0.276   4.415   3.407  2.0811  1.0398  2.4381
13290TIP3    H261286   0.125   4.424   3.422  1.2100 -2.3436 -2.0626
13291TIP3   OH261287   5.977   1.773   4.058  0.6677  0.4254  0.2090
13291TIP3    H161288   5.948   1.842   3.999  2.4482  0.6425 -0.4674
13291TIP3    H261289   6.041   1.816   4.115  1.1036 -0.4408  0.3880
13292TIP3   OH261290   0.669   4.658  12.677 -0.0826  0.1108  0.4774
13292TIP3    H161291   0.666   4.640  12.583  0.8595  1.5500  0.1348
13292TIP3    H261292   0.709   4.580  12.715  0.4381 -0.0910 -0.4452
13293TIP3   OH261293   6.499   2.888   3.619  0.4813 -0.0603 -0.4126
13293TIP3    H161294   6.465   2.803   3.645 -1.0505 -0.0808 -2.1770
13293TIP3    H261295   6.511   2.936   3.700 -0.2659 -1.3872  0.5122
13294TIP3   OH261296   6.163   4.774   1.852 -0.0736 -0.1459 -0.1362
13294TIP3    H161297   6.136   4.687   1.881  0.4110 -0.3885 -0.4044
13294TIP3    H261298   6.223   4.805   1.920  1.8785 -1.1363 -1.3127
13295TIP3   OH261299   6.060   1.028  11.072 -0.2553 -0.2931  0.5282
13295TIP3    H161300   6.044   1.116  11.106  0.5896  0.6895 -1.4503
13295TIP3    H261301   6.109   1.042  10.991  0.1679 -2.6140  0.3115
13296TIP3   OH261302   5.521   5.914  14.282 -0.9372 -1.1123 -0.2972
13296TIP3    H161303   5.497   5.999  14.317 -1.2635 -0.8242 -1.1842
13296TIP3    H261304   5.551   5.932  14.193  0.2924 -1.7639 -0.0473
13297TIP3   OH261305   3.436   2.927  15.415  0.1660 -0.2617  0.1270
13297TIP3    H161306   3.372   2.909  15.347 -1.4736  1.8001  1.0294
13297TIP3    H261307   3.498   2.988  15.374  0.9106 -1.3188 -0.3724
13298TIP3   OH261308   6.191   3.299   1.845 -0.0717 -0.3051  0.5388
13298TIP3    H161309   6.115   3.338   1.802  0.9477  0.8556 -0.2894
13298TIP3    H261310   6.155   3.254   1.922 -1.5598  0.3211  0.2430
13299TIP3   OH261311   5.759   1.607   2.798 -0.5933  0.1929  0.1588
13299TIP3    H161312   5.677   1.635   2.839 -1.1252 -0.2343 -0.5899
13299TIP3    H261313   5.792   1.538   2.855 -1.2925 -0.3507 -0.0809
13300TIP3   OH261314   0.443   6.609   4.003 -0.4606  0.5491  0.2522
13300TIP3    H161315   0.517   6.639   3.951 -0.5809 -0.6831 -0.6779
13300TIP3    H261316   0.379   6.680   3.998 -0.9478  0.0087 -2.2759
13301TIP3   OH261317   3.213   1.246   3.243  0.3487 -0.4171  0.6380
13301TIP3    H161318   3.144   1.182   3.229  0.6455 -0.6835  0.3876
13301TIP3    H261319   3.168   1.331   3.239 -0.0453 -0.6068  0.9847
13302TIP3   OH261320   2.899   1.455   6.441 -0.3891  0.1279 -0.1710
13302TIP3    H161321   2.946   1.442   6.523 -1.8495 -0.7274  0.5710
13302TIP3    H261322   2.907   1.371   6.395 -3.0918 -0.8999  1.0312
13303TIP3   OH261323   2.607   6.300   4.786  0.1006  0.4184  0.2597
13303TIP3    H161324   2.545   6.230   4.806 -0.2540  0.6884  0.1149
13303TIP3    H261325   2.556   6.364   4.736  0.1104  1.3361  1.3702
13304TIP3   OH261326   3.552   3.384  16.732  0.5156  0.5106 -0.4708
13304TIP3    H161327   3.526   3.352  16.645  1.8086 -0.8405 -0.3848
13304TIP3    H261328   3.493   3.339  16.792  0.7976  0.0544 -0.5286
13305TIP3   OH261329   1.287   6.040  12.264  0.0915  0.0085 -0.0053
13305TIP3    H161330   1.324   6.125  12.239  0.6281 -0.3810 -0.5524
13305TIP3    H261331   1.313   5.980  12.194  0.0524 -0.6993  0.5687
13306TIP3   OH261332   0.067   3.086  16.409 -0.3103 -0.1301 -0.0058
13306TIP3    H161333   0.081   3.163  16.354 -0.9109  0.2506  0.3546
13306TIP3    H261334   0.021   3.120  16.486 -1.4342 -1.0027 -0.2687
13307TIP3   OH261335   2.293   6.654   5.231  0.4374  1.0230  0.4180
13307TIP3    H161336   2.302   6.713   5.306  0.6967  0.0849  1.1395
13307TIP3    H261337   2.356   6.687   5.167  1.7596  0.5836  1.4418
13308TIP3   OH261338   0.944   4.747  12.832  0.6460  0.2620  0.5125
13308TIP3    H161339   0.941   4.702  12.747  2.3773  0.6318  0.2177
13308TIP3    H261340   0.913   4.682  12.895 -0.8635  0.0469 -0.4039
13309TIP3   OH261341   6.765   2.028   5.648  0.5201 -0.5600  0.1736
13309TIP3    H161342   6.760   2.123   5.656  0.9512 -0.6070  1.0452
13309TIP3    H261343   6.808   1.998   5.728 -1.0864 -1.6348  0.7049
13310TIP3   OH261344   5.605   2.670   2.079  0.3253 -0.1209  0.7167
13310TIP3    H161345   5.516   2.706   2.073  0.8268  1.3425  1.6773
13310TIP3    H261346   5.642   2.685   1.992  0.0394  0.3792  0.6763
13311TIP3   OH261347   2.772   2.823  11.815  0.2298  0.0986  1.0455
13311TIP3    H161348   2.718   2.750  11.784  1.4751 -0.6588  0.5554
13311TIP3    H261349   2.845   2.780  11.860  0.1103  1.1103  2.2365
13312TIP3   OH261350   0.210   6.335   2.127 -0.2875 -0.2380 -0.3097
13312TIP3    H161351   0.220   6.270   2.058  0.9194 -0.6438  0.2181
13312TIP3    H261352   0.118   6.359   2.125 -0.8343 -2.2210 -0.3025
13313TIP3   OH261353   5.389   1.251  16.945 -0.2039 -0.0168 -1.1422
13313TIP3    H161354   5.336   1.229  16.869 -0.5907  0.4930 -1.0251
13313TIP3    H261355   5.327   1.292  17.006  0.5018  1.5218 -1.4083
13314TIP3   OH261356   6.576   5.704  13.986 -0.2031  0.2276 -0.5121
13314TIP3    H161357   6.596   5.680  13.896 -1.1808  0.5177 -0.8184
13314TIP3    H261358   6.517   5.635  14.017 -0.7843  0.7211 -0.4810
13315TIP3   OH261359   4.650   0.778   0.776  0.3097 -0.3230 -0.2725
13315TIP3    H161360   4.606   0.693   0.771 -0.7840  0.2493 -0.7685
13315TIP3    H261361   4.732   0.765   0.730 -0.0442 -0.9956 -0.7389
13316TIP3   OH261362   0.267   4.233   5.147 -0.0813 -0.3431  0.3011
13316TIP3    H161363   0.292   4.246   5.239  0.1178 -0.5676  0.2792
13316TIP3    H261364   0.185   4.282   5.137  0.8134  1.1930  0.1333
13317TIP3   OH261365   2.267   2.759  12.922  0.3464 -0.1033 -0.2411
13317TIP3    H161366   2.284   2.776  12.829 -1.3124  1.7662 -0.2872
13317TIP3    H261367   2.178   2.723  12.924  0.9165 -1.5318  0.5405
13318TIP3   OH261368   1.913   2.170   2.607 -0.3017  0.0515 -0.6081
13318TIP3    H161369   1.853   2.195   2.678 -0.1034 -1.0144 -0.0327
13318TIP3    H261370   1.944   2.253   2.571 -1.1205  0.6150 -0.0529
13319TIP3   OH261371   3.408   3.293   3.831  0.1555  0.2067  0.1247
13319TIP3    H161372   3.475   3.233   3.800  1.0184  1.6912 -1.0361
13319TIP3    H261373   3.359   3.317   3.753 -0.3526  0.7793  0.6020
13320TIP3   OH261374   2.900   6.737   3.590  0.4582  0.2539  0.0241
13320TIP3    H161375   2.846   6.686   3.529  0.3318  1.3427 -0.8001
13320TIP3    H261376   2.908   6.823   3.548  1.4006  0.6345  0.9669
13321TIP3   OH261377   0.545   0.897  16.410  0.5382  0.0659 -0.2104
13321TIP3    H161378   0.535   0.923  16.502 -1.5047 -0.1259 -0.3399
13321TIP3    H261379   0.639   0.882  16.400  0.8653  0.5191  1.7294
13322TIP3   OH261380   3.258   2.386   1.266 -0.5440  0.2273  0.3885
13322TIP3    H161381   3.226   2.321   1.328  0.8027 -0.5786  0.2646
13322TIP3    H261382   3.268   2.466   1.319  0.2357 -0.3498  1.1446
13323TIP3   OH261383   1.683   5.841   4.863 -0.2677 -0.3874  0.2265
13323TIP3    H161384   1.705   5.912   4.803  0.2441 -1.8240 -1.3978
13323TIP3    H261385   1.754   5.841   4.927  1.0438 -0.8743 -1.1534
13324TIP3   OH261386   4.136   1.320   6.538 -0.2668  0.1411 -0.1873
13324TIP3    H161387   4.069   1.334   6.471 -0.2359  1.2972 -0.0033
13324TIP3    H261388   4.187   1.401   6.537 -1.0118  0.6964  2.0667
13325TIP3   OH261389   0.636   3.623  11.702 -0.5806 -0.6954  0.4137
13325TIP3    H161390   0.720   3.586  11.677 -0.2125 -0.2049  0.8971
13325TIP3    H261391   0.657   3.684  11.773 -1.3759 -0.7824  0.7336
13326TIP3   OH261392   2.535   6.008  17.019 -0.1289  0.6406  0.9582
13326TIP3    H161393   2.464   5.981  16.961  0.7859  0.4890 -0.1401
13326TIP3    H261394   2.605   6.036  16.959  0.2850  1.9565  2.0204
13327TIP3   OH261395   2.276   0.261  12.984 -0.0377  0.5297  0.0622
13327TIP3    H161396   2.197   0.212  12.962 -0.1546  1.2116 -1.1324
13327TIP3    H261397   2.344   0.194  12.993 -0.1233  0.1306 -1.8484
13328TIP3   OH261398   2.407   5.187  11.261 -0.2186  0.2552  0.1105
13328TIP3    H161399   2.387   5.127  11.332 -0.2546 -0.8413 -0.8140
13328TIP3    H261400   2.382   5.141  11.181 -0.0182  1.3939 -0.6409
13329TIP3   OH261401   4.863   4.663  11.710  0.2248 -0.4592  0.5595
13329TIP3    H161402   4.858   4.608  11.788 -1.4512 -0.7114  0.3156
13329TIP3    H261403   4.819   4.612  11.642 -0.6420  0.8058  0.1287
13330TIP3   OH261404   1.951   2.245  12.926  0.1980  0.5033  0.2168
13330TIP3    H161405   2.046   2.259  12.934  0.3536 -0.4547  0.2112
13330TIP3    H261406   1.943   2.171  12.866 -0.5141 -0.0632  0.9932
13331TIP3   OH261407   0.646   1.101  17.093  0.3693 -0.4572  0.4168
13331TIP3    H161408   0.684   1.022  17.132  2.4059  0.6559  0.8140
13331TIP3    H261409   0.700   1.118  17.016 -0.3649  0.2615  0.0506
13332TIP3   OH261410   1.477   1.656  13.109  0.3108  0.2060 -0.2439
13332TIP3    H161411   1.450   1.655  13.018  1.6525 -0.5533 -0.6749
13332TIP3    H261412   1.468   1.747  13.137 -0.2518  0.4122 -1.0870
13333TIP3   OH261413   4.560   5.401  13.463  0.2435 -0.6988 -0.4784
13333TIP3    H161414   4.544   5.464  13.393 -1.2137 -0.6576 -0.1291
13333TIP3    H261415   4.656   5.392  13.465  0.3419 -0.3798 -2.1673
13334TIP3   OH261416   0.951   3.173   0.322  0.1875  0.2858  0.3305
13334TIP3    H161417   0.922   3.093   0.278  0.6115  1.3236 -1.9910
13334TIP3    H261418   0.876   3.232   0.316  0.1609  0.3651  1.3047
13335TIP3   OH261419   3.702   5.010   0.863 -0.2537  0.4271 -0.7590
13335TIP3    H161420   3.722   4.961   0.943  0.2905  2.3941  0.3783
13335TIP3    H261421   3.788   5.038   0.830 -0.5538  0.7639 -1.2692
13336TIP3   OH261422   6.606   4.493   1.194  0.7081 -1.0553 -0.3177
13336TIP3    H161423   6.676   4.527   1.250  1.0793 -2.7090  0.2826
13336TIP3    H261424   6.527   4.499   1.248  0.0893  1.7680 -1.3466
13337TIP3   OH261425   4.286   5.614   6.198  0.1600 -0.1320  0.2756
13337TIP3    H161426   4.265   5.626   6.291  0.4741 -0.9295  0.4513
13337TIP3    H261427   4.216   5.661   6.152  0.5429  1.1154  0.9113
13338TIP3   OH261428   2.966   3.928   1.212  0.4254  0.0700 -0.2142
13338TIP3    H161429   2.985   4.008   1.261 -1.7694  0.6123 -0.1871
13338TIP3    H261430   2.905   3.880   1.267 -0.0487 -0.5452 -1.2474
13339TIP3   OH261431   5.001   1.887  15.998  0.7206  0.1061  0.3809
13339TIP3    H161432   4.999   1.976  15.964 -0.5055  0.3964  1.1393
13339TIP3    H261433   4.934   1.841  15.948  0.4652 -0.0521  0.8629
13340TIP3   OH261434   0.657   3.642  14.470 -0.4900  0.1140  0.2171
13340TIP3    H161435   0.715   3.693  14.527 -0.7538 -1.1410  1.6804
13340TIP3    H261436   0.696   3.650  14.383 -0.2972  2.4397  0.4462
13341TIP3   OH261437   0.194   0.188   6.705  0.0453 -0.1932  0.0394
13341TIP3    H161438   0.237   0.113   6.746  0.2602  1.0348  2.2332
13341TIP3    H261439   0.101   0.175   6.723 -0.0417 -0.4863 -0.5901
13342TIP3   OH261440   1.080   0.666  15.966 -0.1499  0.5114  0.5082
13342TIP3    H161441   1.119   0.581  15.948  0.4352  0.9254 -0.2434
13342TIP3    H261442   1.154   0.724  15.985 -0.5781  0.7312  1.5777
13343TIP3   OH261443   0.948   4.573  15.480  0.4250 -0.3654 -0.1002
13343TIP3    H161444   0.909   4.543  15.562  0.5062 -1.5571 -0.4882
13343TIP3    H261445   0.922   4.508  15.415  0.0787  0.7513 -1.1068
13344TIP3   OH261446   0.525   6.344   4.058  0.0048 -0.1060 -0.0351
13344TIP3    H161447   0.586   6.310   4.124  1.3538  0.9383 -0.6976
13344TIP3    H261448   0.512   6.436   4.082 -1.8945 -0.4615  0.4809
13345TIP3   OH261449   3.369   1.881  17.336  0.1785 -0.3298  0.3119
13345TIP3    H161450   3.289   1.842  17.301  0.3963 -0.4670 -0.0331
13345TIP3    H261451   3.430   1.808  17.345  0.8055  0.0034 -0.9296
13346TIP3   OH261452   6.403   6.370  15.057 -0.4084 -0.1518  0.1485
13346TIP3    H161453   6.420   6.276  15.060  1.7179  0.1998  1.0546
13346TIP3    H261454   6.426   6.402  15.144 -0.9736  1.2307 -0.1786
13347TIP3   OH261455   0.079   6.571  14.717  0.4996 -0.3336 -0.8364
13347TIP3    H161456   0.104   6.611  14.634  0.6464 -0.1205 -0.6896
13347TIP3    H261457  -0.015   6.558  14.710  0.4758 -0.1073 -0.9484
13348TIP3   OH261458   1.174   2.735   0.722 -0.7257  0.0913 -0.1412
13348TIP3    H161459   1.085   2.765   0.705 -0.2080  0.4807 -2.5933
13348TIP3    H261460   1.197   2.772   0.807 -2.1247  1.8327 -0.4757
13349TIP3   OH261461   3.604   5.281   5.563 -0.3697  0.1263  0.2453
13349TIP3    H161462   3.520   5.312   5.531 -0.5706 -0.1193  0.5363
13349TIP3    H261463   3.660   5.358   5.562 -0.4593  0.1855 -0.4112
13350TIP3   OH261464   2.635   2.980  13.445 -0.2342  0.2096  0.4050
13350TIP3    H161465   2.727   2.984  13.422 -0.6441 -0.4102 -1.4323
13350TIP3    H261466   2.621   2.891  13.478  0.1520  0.8225  2.3993
13351TIP3   OH261467   4.781   0.685   5.554 -0.0128  0.4037 -0.4200
13351TIP3    H161468   4.775   0.695   5.459 -0.7016 -0.6102 -0.4994
13351TIP3    H261469   4.690   0.684   5.584  0.2199  1.9389  0.4062
13352TIP3   OH261470   6.394   1.110  11.329  0.5171  0.6845 -0.1742
13352TIP3    H161471   6.332   1.142  11.395 -1.2169 -2.5200 -0.0567
13352TIP3    H261472   6.436   1.034  11.371  1.2138  0.0865 -1.8672
13353TIP3   OH261473   4.149   4.206   3.644  0.7526 -0.7267 -0.1909
13353TIP3    H161474   4.181   4.256   3.568  1.3723  0.7593  0.9783
13353TIP3    H261475   4.101   4.133   3.607  1.7177 -0.4843 -2.0213
13354TIP3   OH261476   5.053   5.797  15.182  0.2055  0.1787 -0.2483
13354TIP3    H161477   5.082   5.710  15.209  2.9731  0.5044 -1.8050
13354TIP3    H261478   5.058   5.850  15.262  2.4165 -0.2213 -0.0641
13355TIP3   OH261479   3.127   5.477  11.844  0.6591 -0.2626  0.2143
13355TIP3    H161480   3.083   5.419  11.781  1.1433  1.2564 -1.6263
13355TIP3    H261481   3.103   5.565  11.816  2.4488  0.5205  0.9651
13356TIP3   OH261482   4.987   3.702   2.861 -0.3144 -0.4009  0.1845
13356TIP3    H161483   4.982   3.787   2.905  0.9130 -0.3658  0.2733
13356TIP3    H261484   4.974   3.638   2.931  0.8582 -0.3244  0.4906
13357TIP3   OH261485   6.144   6.531  13.843  0.3572 -0.4973  0.3371
13357TIP3    H161486   6.176   6.526  13.933  0.0527  0.0744  0.4806
13357TIP3    H261487   6.075   6.465  13.838 -0.8115  0.6273  1.0314
13358TIP3   OH261488   6.297   2.267   0.418  0.1460  0.2478 -0.5604
13358TIP3    H161489   6.361   2.207   0.379 -0.0569  0.4255 -1.1821
13358TIP3    H261490   6.251   2.213   0.482 -0.5650 -0.5147 -1.6579
13359TIP3   OH261491   3.333   2.627  16.492 -0.2957  0.0615  0.4831
13359TIP3    H161492   3.318   2.671  16.576  1.2507  0.3730  0.6248
13359TIP3    H261493   3.426   2.605  16.493  0.0847  1.2785 -1.6951
13360TIP3   OH261494   1.129   1.418   2.241 -0.2138  0.3326 -0.5198
13360TIP3    H161495   1.068   1.454   2.306  0.2107  0.4872 -0.2072
13360TIP3    H261496   1.135   1.486   2.173  0.5642  0.8528  0.0546
13361TIP3   OH261497   5.344   1.019   5.206  0.3751  0.3803  0.6596
13361TIP3    H161498   5.332   1.047   5.297  1.1405 -2.4439  1.7290
13361TIP3    H261499   5.429   0.976   5.205 -0.3713 -1.1872 -0.9575
13362TIP3   OH261500   2.322   0.346   1.560 -0.2724 -0.5183 -0.2258
13362TIP3    H161501   2.260   0.418   1.553  1.2971  0.8435 -0.6313
13362TIP3    H261502   2.332   0.313   1.471  0.2484 -0.1464 -0.3085
13363TIP3   OH261503   0.426   5.536   0.131  0.2933 -0.0929  0.2514
13363TIP3    H161504   0.462   5.584   0.206  2.8286 -0.6429 -0.4918
13363TIP3    H261505   0.353   5.590   0.101  0.1500  0.8952  2.1888
13364TIP3   OH261506   6.510   4.827   5.456  0.3585 -0.0220 -0.1414
13364TIP3    H161507   6.453   4.838   5.532  1.9629 -0.2856  1.1659
13364TIP3    H261508   6.495   4.736   5.428  0.2790 -0.1571  0.3280
13365TIP3   OH261509   4.028   2.248  11.081  0.2741 -0.3338 -0.1200
13365TIP3    H161510   4.068   2.330  11.109  0.5349 -1.1753  2.2140
13365TIP3    H261511   4.101   2.199  11.042  0.6560 -0.3452  0.5882
13366TIP3   OH261512   5.647   0.986  13.732  0.0959  0.7797  0.0401
13366TIP3    H161513   5.699   0.906  13.742  0.3942  0.9144 -0.3997
13366TIP3    H261514   5.568   0.970  13.782  0.0855  0.1422 -0.1806
13367TIP3   OH261515   1.542   0.576  15.056 -0.0030 -0.1380 -0.1599
13367TIP3    H161516   1.547   0.507  15.122 -2.4859 -0.0668  0.1670
13367TIP3    H261517   1.593   0.542  14.982  0.4648 -1.4347  0.7296
13368TIP3   OH261518   5.137   4.811  10.572 -0.3005  0.4193  0.5748
13368TIP3    H161519   5.132   4.774  10.660 -2.5174 -2.5642 -0.6328
13368TIP3    H261520   5.214   4.771  10.533 -1.1491 -0.8823  0.1696
13369TIP3   OH261521   6.582   2.677  11.882  0.3861 -0.5302  0.3797
13369TIP3    H161522   6.491   2.698  11.901  0.5988 -1.4416  2.5982
13369TIP3    H261523   6.581   2.648  11.790 -1.2529  0.9509 -0.1349
13370TIP3   OH261524   6.419   3.281   4.937  0.2391  0.1368  0.2835
13370TIP3    H161525   6.405   3.203   4.882 -2.2964  1.3432 -0.9122
13370TIP3    H261526   6.345   3.283   4.996 -0.3620  2.2131 -0.4552
13371TIP3   OH261527   4.772   6.659  11.006 -0.3426  0.4488 -0.1012
13371TIP3    H161528   4.699   6.601  10.985 -0.2449  0.7833 -1.4897
13371TIP3    H261529   4.768   6.728  10.940 -1.1881  2.7705  2.2487
13372TIP3   OH261530   6.121   1.271  15.490  0.6110 -0.4240 -0.8116
13372TIP3    H161531   6.102   1.223  15.571  1.1423 -0.0069 -0.4286
13372TIP3    H261532   6.147   1.204  15.427  0.1592 -0.7569 -0.6510
13373TIP3   OH261533   4.922   0.818  13.043  1.0488 -0.1678 -0.4643
13373TIP3    H161534   4.896   0.727  13.031 -0.8570  0.6162 -3.1171
13373TIP3    H261535   4.875   0.847  13.121  0.6014 -1.0645 -0.3968
13374TIP3   OH261536   3.236   3.805  12.703  0.4683  0.1317 -0.1495
13374TIP3    H161537   3.189   3.768  12.628  0.6436 -0.9736  0.2758
13374TIP3    H261538   3.175   3.800  12.776  0.8915 -0.4095  0.1785
13375TIP3   OH261539   1.811   3.293   3.205  0.4052 -0.0879  0.3798
13375TIP3    H161540   1.807   3.210   3.159 -0.5864  0.2032 -0.0834
13375TIP3    H261541   1.762   3.354   3.149 -0.8130  0.2782  1.7912
13376TIP3   OH261542   5.915   6.223  16.494  0.3763 -0.0999 -0.2563
13376TIP3    H161543   5.854   6.196  16.426  0.1095 -1.1743  0.3815
13376TIP3    H261544   5.884   6.179  16.573 -0.0050  2.0469  0.8394
13377TIP3   OH261545   4.960   3.954  15.475 -0.0511  0.1874  0.5843
13377TIP3    H161546   4.916   3.949  15.390 -2.2343  1.5761  1.5580
13377TIP3    H261547   4.964   3.864  15.506  0.0242 -0.2349 -0.6190
13378TIP3   OH261548   5.981   3.578  16.497 -0.1242  0.2547  0.4128
13378TIP3    H161549   6.035   3.635  16.443  0.1116 -1.1872 -0.9560
13378TIP3    H261550   6.000   3.490  16.466 -2.3366 -0.4050  0.7333
13379TIP3   OH261551   5.606   0.763   4.009 -0.3327 -0.1154 -0.5508
13379TIP3    H161552   5.543   0.696   3.984  0.4959 -0.5769 -1.5035
13379TIP3    H261553   5.657   0.779   3.929  2.6732 -1.8475  0.8405
13380TIP3   OH261554   0.384   1.783   1.128  0.5323 -0.0097  0.6415
13380TIP3    H161555   0.398   1.690   1.149 -0.4301 -0.0300  1.2767
13380TIP3    H261556   0.468   1.825   1.147  0.1288 -0.2466  3.4548
13381TIP3   OH261557   2.772   5.780   0.163 -0.4151 -0.2632 -0.2243
13381TIP3    H161558   2.810   5.807   0.247  1.4452 -0.5009 -0.9428
13381TIP3    H261559   2.715   5.853   0.139  1.7715  1.5278 -0.4149
13382TIP3   OH261560   1.571   1.853   5.048 -0.0529 -0.0256  0.9791
13382TIP3    H161561   1.497   1.914   5.047  0.3431  0.5135 -1.0720
13382TIP3    H261562   1.531   1.768   5.031 -0.2348  0.2499 -0.0441
13383TIP3   OH261563   4.255   6.348   1.472 -0.0569 -0.1501  0.2055
13383TIP3    H161564   4.205   6.335   1.553 -0.9776 -1.0273 -0.4808
13383TIP3    H261565   4.233   6.437   1.444 -0.5667 -0.2220  0.3619
13384TIP3   OH261566   0.522   3.433  15.661 -0.2977 -0.1682 -0.0430
13384TIP3    H161567   0.475   3.361  15.621 -1.7755 -0.2227  1.6660
13384TIP3    H261568   0.459   3.506  15.662  0.3930  0.4437  0.2778
13385TIP3   OH261569   1.434   3.788   4.192  0.2261  0.8417 -0.0425
13385TIP3    H161570   1.401   3.767   4.105 -0.6989  0.9255  0.2740
13385TIP3    H261571   1.388   3.727   4.250 -0.5286  1.9546  0.5846
13386TIP3   OH261572   1.739   0.145   5.807 -0.2462  0.4328  0.1412
13386TIP3    H161573   1.647   0.161   5.825 -0.3412  0.4620 -0.3528
13386TIP3    H261574   1.765   0.215   5.747  0.0847  0.3987  0.2396
13387TIP3   OH261575   6.537   1.988   3.742  0.4077  0.1860  0.0172
13387TIP3    H161576   6.528   2.008   3.835  2.6385  0.5242  0.2063
13387TIP3    H261577   6.451   1.954   3.717 -0.2234  0.0038  2.2082
13388TIP3   OH261578   6.668   1.385   5.639 -0.0375  0.8420  0.3909
13388TIP3    H161579   6.646   1.293   5.654  1.6112  0.3549  0.0071
13388TIP3    H261580   6.621   1.433   5.707 -3.4563  0.1018 -1.2255
13389TIP3   OH261581   0.923   1.904  12.076  0.2115 -0.1551 -0.1322
13389TIP3    H161582   0.947   1.841  12.144 -0.7078 -2.0549 -1.4642
13389TIP3    H261583   0.861   1.857  12.021  0.3115  1.5829 -1.8422
13390TIP3   OH261584   1.076   2.284   5.818 -0.2861 -0.2503 -0.0532
13390TIP3    H161585   1.165   2.256   5.840 -0.6409 -1.6544 -0.3307
13390TIP3    H261586   1.029   2.282   5.902 -0.6044 -1.6904 -0.2335
13391TIP3   OH261587   2.218   5.916  12.798  0.0236  0.1478  0.1338
13391TIP3    H161588   2.172   5.863  12.863 -1.7809  0.6549 -0.6633
13391TIP3    H261589   2.275   5.855  12.753 -1.2837 -0.9561 -0.1012
13392TIP3   OH261590   3.569   6.143   0.550  0.5041 -0.1503  0.0330
13392TIP3    H161591   3.662   6.164   0.541  0.3732  0.1894 -0.5122
13392TIP3    H261592   3.553   6.149   0.644  0.3310  2.8149 -0.0855
13393TIP3   OH261593   2.217   1.873   2.136  0.4336 -0.3321  0.0781
13393TIP3    H161594   2.233   1.892   2.044 -0.0825  2.2542  0.4609
13393TIP3    H261595   2.262   1.942   2.184 -2.2071  0.5011  1.5799
13394TIP3   OH261596   2.648   1.880   3.288  0.3264 -0.0309  0.0903
13394TIP3    H161597   2.572   1.906   3.235  0.9056 -0.1448 -0.8262
13394TIP3    H261598   2.694   1.816   3.233  1.5285  0.6504  0.2764
13395TIP3   OH261599   3.495   2.982   2.713 -0.3318 -0.5206 -0.2813
13395TIP3    H161600   3.502   3.006   2.620  3.0211 -0.7590 -0.2256
13395TIP3    H261601   3.563   2.916   2.726 -0.6939 -0.4796  2.3556
13396TIP3   OH261602   0.708   5.039  14.573  0.0344 -0.0361  0.2348
13396TIP3    H161603   0.657   5.118  14.591  0.7509  1.1930 -2.5425
13396TIP3    H261604   0.715   4.995  14.657 -0.1340  2.9995  1.9740
13397TIP3   OH261605   5.394   3.367   1.633  0.0138 -0.3096 -0.3274
13397TIP3    H161606   5.365   3.370   1.542 -3.7089 -0.4816  0.7072
13397TIP3    H261607   5.387   3.457   1.663 -0.4601 -0.5171  0.2088
13398TIP3   OH261608   1.009   3.409   2.370 -0.0387 -0.1968 -0.4228
13398TIP3    H161609   1.021   3.504   2.378 -0.5228 -0.2661  1.8109
13398TIP3    H261610   0.954   3.386   2.444 -0.7233 -2.1216 -1.4662
13399TIP3   OH261611   3.565   6.756   2.543 -0.3080 -0.6037 -0.3597
13399TIP3    H161612   3.657   6.776   2.560  0.2481 -1.2006 -2.4029
13399TIP3    H261613   3.559   6.751   2.447 -3.0811  2.3995 -0.5370
13400TIP3   OH261614   0.489   5.404   2.724 -0.0466 -0.0936  0.7686
13400TIP3    H161615   0.494   5.396   2.629  0.4060 -0.5056  0.8246
13400TIP3    H261616   0.403   5.368   2.747 -0.7976  1.3850  0.3808
13401TIP3   OH261617   2.193   2.868  16.372 -0.7827 -0.0159 -0.4851
13401TIP3    H161618   2.113   2.818  16.384 -0.4822 -0.8385 -1.7078
13401TIP3    H261619   2.180   2.917  16.292 -0.0703 -0.1661 -0.7056
13402TIP3   OH261620   3.708   2.874  11.664 -0.0734  0.8064 -0.2867
13402TIP3    H161621   3.638   2.920  11.618 -1.1183  0.1053  0.5487
13402TIP3    H261622   3.672   2.786  11.680  1.6389 -0.1537 -1.3475
13403TIP3   OH261623   0.227   6.212  14.981 -0.4262  0.4005 -0.6606
13403TIP3    H161624   0.205   6.234  14.891  1.2922  2.9164 -0.5714
13403TIP3    H261625   0.275   6.288  15.014 -1.5149 -0.1379  2.6018
13404TIP3   OH261626   0.909   4.246   5.245 -0.3062  0.0041  0.1133
13404TIP3    H161627   0.863   4.166   5.219  0.1476  0.6388 -2.9906
13404TIP3    H261628   0.999   4.232   5.215 -0.0588  1.3935  0.1590
13405TIP3   OH261629   6.424   5.991   5.255  0.5016 -0.1349  0.0477
13405TIP3    H161630   6.416   6.013   5.347 -1.8303  1.0535 -0.3674
13405TIP3    H261631   6.389   5.902   5.248  0.7961 -0.2738  0.3072
13406TIP3   OH261632   5.614   4.368  11.883  0.3942 -0.2760 -0.1062
13406TIP3    H161633   5.567   4.442  11.846  1.5657  0.7239  0.3204
13406TIP3    H261634   5.602   4.297  11.820 -0.6240  0.3066 -0.5922
13407TIP3   OH261635   2.179   5.422   2.948 -0.6602  0.8504 -0.5768
13407TIP3    H161636   2.175   5.506   2.903  1.3864  1.3935  0.1404
13407TIP3    H261637   2.249   5.433   3.013 -1.5365 -0.8446  0.7365
13408TIP3   OH261638   3.293   6.486   5.428  0.0882  0.2425  0.0002
13408TIP3    H161639   3.317   6.577   5.407 -1.3840  0.4897 -0.7206
13408TIP3    H261640   3.341   6.433   5.364 -0.3927  0.6406 -0.6977
13409TIP3   OH261641   2.390   6.118  12.968 -0.1188  0.0266 -0.1256
13409TIP3    H161642   2.310   6.123  13.020 -0.1981 -0.7613 -0.1476
13409TIP3    H261643   2.368   6.056  12.898  0.8431 -1.0511  0.4972
13410TIP3   OH261644   5.612   3.972   5.398  0.4161  0.6105  0.2305
13410TIP3    H161645   5.622   3.995   5.305  0.8301  1.0510  0.3786
13410TIP3    H261646   5.653   4.044   5.445  0.7839  0.0791  0.7440
13411TIP3   OH261647   0.031   3.650   3.390  0.5025  0.3151  0.2958
13411TIP3    H161648   0.125   3.648   3.371  0.3834 -0.3788 -0.2419
13411TIP3    H261649   0.008   3.742   3.386  1.3608  0.6144  1.4464
13412TIP3   OH261650   6.766   6.388  15.988  0.0649  0.4496 -0.1008
13412TIP3    H161651   6.783   6.335  15.910  0.9271  1.3406 -0.5469
13412TIP3    H261652   6.803   6.474  15.967  0.0990  0.7774  1.2011
13413TIP3   OH261653   2.082   6.470  15.236 -0.0809  0.3558 -0.7253
13413TIP3    H161654   2.021   6.471  15.310  1.6353 -0.5879  0.7834
13413TIP3    H261655   2.151   6.531  15.261  0.2527  0.4421 -1.8153
13414TIP3   OH261656   0.563   6.772  16.402  0.0177  0.7795  0.2715
13414TIP3    H161657   0.529   6.861  16.414 -1.0698  0.8061 -2.2002
13414TIP3    H261658   0.658   6.782  16.402 -0.0842  1.8102  0.8410
13415TIP3   OH261659   1.035   1.756  12.252  0.1358  0.6803  0.1113
13415TIP3    H161660   1.075   1.819  12.312 -0.7915  0.8116  0.6066
13415TIP3    H261661   1.105   1.693  12.233  0.1917  0.0564  2.1297
13416TIP3   OH261662   2.916   1.447  11.592 -0.6772 -0.2181 -0.3420
13416TIP3    H161663   3.004   1.411  11.600 -0.1499  1.1607  0.3555
13416TIP3    H261664   2.880   1.407  11.513  0.8314 -0.2468 -1.0310
13417TIP3   OH261665   6.706   1.509   0.684 -0.0762  0.2450 -0.2426
13417TIP3    H161666   6.787   1.539   0.726 -0.1884  0.3604 -0.1095
13417TIP3    H261667   6.648   1.487   0.756 -0.4387  0.9041 -0.3254
13418TIP3   OH261668   0.894   4.278   2.406  0.4744 -0.2960  0.3179
13418TIP3    H161669   0.877   4.186   2.424  0.7052 -0.1017  1.5883
13418TIP3    H261670   0.850   4.325   2.476 -0.4257  0.6240 -0.8337
13419TIP3   OH261671   5.104   6.284  15.159  0.4359 -0.0632 -0.2856
13419TIP3    H161672   5.123   6.281  15.065  1.0363  2.0452 -0.2838
13419TIP3    H261673   5.160   6.216  15.197  0.9470 -0.2618 -1.3423
13420TIP3   OH261674   1.962   6.218  14.835 -0.3355 -0.0927 -0.0070
13420TIP3    H161675   1.912   6.172  14.903  0.2191  0.0228  0.4853
13420TIP3    H261676   2.048   6.177  14.837  0.6028  1.8256  1.3668
13421TIP3   OH261677   1.956   2.397   0.881 -0.3412  0.1964 -0.6641
13421TIP3    H161678   1.914   2.470   0.927 -0.1081 -0.5081  0.7469
13421TIP3    H261679   1.893   2.325   0.889 -0.1749 -0.0115 -1.2318
13422TIP3   OH261680   4.653   1.318   1.906  0.2900 -0.5354  0.2921
13422TIP3    H161681   4.611   1.282   1.829 -1.8314  1.4472  0.4317
13422TIP3    H261682   4.695   1.243   1.948 -0.5736 -2.0715 -1.4844
13423TIP3   OH261683   4.945   0.090   4.905  0.2309  0.1306  0.0824
13423TIP3    H161684   4.890   0.067   4.829 -0.2393  2.4743 -0.3607
13423TIP3    H261685   5.019   0.137   4.867  0.9545 -0.2741  0.9598
13424TIP3   OH261686   6.250   2.437  12.533  0.4075 -0.1244 -0.0470
13424TIP3    H161687   6.297   2.404  12.610 -0.2160  0.7136  0.7114
13424TIP3    H261688   6.294   2.395  12.459  3.4582  1.8861  0.4530
13425TIP3   OH261689   0.302   3.976   2.945  0.1161  0.4691 -0.2573
13425TIP3    H161690   0.227   3.962   2.888  1.7072 -1.4116 -2.0560
13425TIP3    H261691   0.325   3.889   2.977  2.0996  0.8365 -0.5540
13426TIP3   OH261692   0.863   4.460   1.736  0.0542  0.2948  0.1280
13426TIP3    H161693   0.773   4.492   1.746  0.1943  1.1192 -1.1119
13426TIP3    H261694   0.900   4.514   1.667  1.7887  0.5280  1.1841
13427TIP3   OH261695   0.418   4.278   5.752  0.1973  0.5853  0.1411
13427TIP3    H161696   0.406   4.372   5.745  0.7778  0.7258  0.8713
13427TIP3    H261697   0.412   4.260   5.846 -0.1188 -0.1357 -0.0081
13428TIP3   OH261698   0.892   1.719  16.838 -0.4833 -0.0173 -0.0561
13428TIP3    H161699   0.896   1.766  16.754 -0.7006  1.4167  0.7047
13428TIP3    H261700   0.812   1.752  16.880 -1.4819 -2.1980 -0.1013
13429TIP3   OH261701   4.761   5.219  11.383  0.5062 -0.0059  0.0370
13429TIP3    H161702   4.775   5.310  11.409  1.2684  0.4102 -1.7054
13429TIP3    H261703   4.667   5.211  11.372  0.6056  1.5133 -2.7840
13430TIP3   OH261704   1.120   5.313  13.319  0.1090  0.1666 -0.3276
13430TIP3    H161705   1.196   5.356  13.357  1.5203 -2.0517 -0.4438
13430TIP3    H261706   1.051   5.325  13.384  0.6179  1.9130 -0.0534
13431TIP3   OH261707   0.547   1.416   4.208 -0.3249  0.0394 -0.1016
13431TIP3    H161708   0.503   1.415   4.292 -0.4896  0.3008 -0.1847
13431TIP3    H261709   0.616   1.481   4.218 -1.0272  0.8671 -0.5119
13432TIP3   OH261710   1.486   5.119  16.852 -0.6028  0.2988 -0.2623
13432TIP3    H161711   1.567   5.169  16.861  0.7329 -1.2122 -2.8084
13432TIP3    H261712   1.515   5.028  16.850 -2.6286 -0.4286  0.8253
13433TIP3   OH261713   6.419   0.007  12.408 -0.2579 -0.2659 -0.1583
13433TIP3    H161714   6.503   0.035  12.443 -0.2639 -0.5191  0.0608
13433TIP3    H261715   6.403  -0.078  12.448 -1.4066  0.5077  1.1008
13434TIP3   OH261716   5.426   3.475  17.025  0.8640  0.1699 -0.5565
13434TIP3    H161717   5.402   3.560  16.989  2.3850  0.1957 -1.6060
13434TIP3    H261718   5.514   3.488  17.061  1.6016 -1.2213 -1.7680
13435TIP3   OH261719   3.797   5.909   6.209 -0.2880 -0.0148 -0.4597
13435TIP3    H161720   3.710   5.944   6.226 -0.8898 -1.7876  0.3859
13435TIP3    H261721   3.857   5.972   6.250 -1.2532  0.4374  0.2929
13436TIP3   OH261722   3.101   1.572  15.456  0.5711 -0.2333  0.0701
13436TIP3    H161723   3.088   1.583  15.361 -1.2898 -0.4779  0.2563
13436TIP3    H261724   3.017   1.538  15.488  1.1734 -0.1763  1.8153
13437TIP3   OH261725   6.229   3.124   3.497  0.3549 -0.0868  0.4894
13437TIP3    H161726   6.137   3.135   3.476  0.6521  2.1493  0.1584
13437TIP3    H261727   6.259   3.054   3.438 -0.7587  0.2878 -0.5507
13438TIP3   OH261728   3.863   4.227   5.127  0.1707  0.9758 -0.4380
13438TIP3    H161729   3.850   4.174   5.049 -1.6608 -0.0951  0.5223
13438TIP3    H261730   3.883   4.164   5.196 -0.8832  1.6147  0.4899
13439TIP3   OH261731   1.459   5.534   4.031 -0.8479 -0.6755  0.2217
13439TIP3    H161732   1.550   5.546   4.002 -0.8061 -1.5173 -0.0223
13439TIP3    H261733   1.460   5.451   4.079 -0.7940  0.9019  3.1739
13440TIP3   OH261734   2.991   5.842  11.510 -0.6114  0.0449 -0.4960
13440TIP3    H161735   2.997   5.886  11.426 -1.2645 -0.9294 -1.0737
13440TIP3    H261736   3.080   5.842  11.544  0.4635 -2.7245 -2.8708
13441TIP3   OH261737   2.245   6.456  13.106 -0.3980 -0.0932 -0.2584
13441TIP3    H161738   2.264   6.420  13.192  1.8808  0.0551 -0.6578
13441TIP3    H261739   2.159   6.498  13.116 -1.6939 -2.7964  1.0581
13442TIP3   OH261740   6.554   5.594   2.903  0.2190  0.0646  0.0356
13442TIP3    H161741   6.489   5.576   2.971 -0.0435  0.0569 -0.2154
13442TIP3    H261742   6.507   5.582   2.821  0.8289 -1.0719 -0.1739
13443TIP3   OH261743   6.281   4.930  11.361 -0.5378  0.3646 -0.1469
13443TIP3    H161744   6.199   4.881  11.354 -0.3416 -0.0579  0.3998
13443TIP3    H261745   6.270   5.004  11.302 -1.3986  0.4247  0.0685
13444TIP3   OH261746   3.011   4.853  16.185  0.1997 -0.0172  0.1321
13444TIP3    H161747   3.091   4.839  16.136  0.0527 -1.9201  0.3761
13444TIP3    H261748   3.036   4.840  16.277 -0.3149 -0.2997  0.2352
13445TIP3   OH261749   6.143   5.959  13.639 -0.5915  0.3222 -0.0617
13445TIP3    H161750   6.135   5.964  13.544 -1.9613 -1.1477 -0.0595
13445TIP3    H261751   6.068   5.908  13.668 -0.2266  0.7531  1.8356
13446TIP3   OH261752   4.875   2.017   5.988  0.3828  0.4023  0.3371
13446TIP3    H161753   4.965   2.004   6.019  0.7630  0.2435 -0.7921
13446TIP3    H261754   4.851   1.934   5.949 -0.3658  0.3639  0.8633
13447TIP3   OH261755   6.230   4.638   4.072  0.2986  0.4719  0.4315
13447TIP3    H161756   6.143   4.670   4.095  0.5239 -0.5353  3.1761
13447TIP3    H261757   6.221   4.602   3.984 -1.7244  1.4998  0.1750
13448TIP3   OH261758   3.104   2.001   1.606 -0.3563 -0.0499  0.1482
13448TIP3    H161759   3.122   1.974   1.696 -1.7452  0.0027  0.4661
13448TIP3    H261760   3.074   1.922   1.562 -2.9450  0.5544  0.6683
13449TIP3   OH261761   0.808   3.053   0.536 -0.0783 -0.1528  0.1471
13449TIP3    H161762   0.759   3.031   0.456 -1.9456  2.7002  0.3806
13449TIP3    H261763   0.894   3.081   0.504 -0.8602  1.1262 -0.9274
13450TIP3   OH261764   0.928   5.085  11.817  0.7564 -0.3943  0.0100
13450TIP3    H161765   0.980   5.081  11.897  0.7201 -0.6275  0.0242
13450TIP3    H261766   0.848   5.131  11.842  0.9755  0.0077 -0.0227
13451TIP3   OH261767   2.225   4.404  16.340  0.1662  0.2055 -0.0935
13451TIP3    H161768   2.274   4.323  16.328 -0.4450 -0.2890  0.6092
13451TIP3    H261769   2.154   4.399  16.275 -0.0533  0.0153  0.1534
13452TIP3   OH261770   3.340   2.143  13.254  0.3660  0.2046  0.6920
13452TIP3    H161771   3.293   2.223  13.280  2.2694  2.1323 -1.3170
13452TIP3    H261772   3.283   2.102  13.189  0.0145  0.7419  0.6506
13453TIP3   OH261773   1.519   3.563  12.247 -0.4712  0.0769 -0.2876
13453TIP3    H161774   1.508   3.569  12.342 -0.0991  0.8094 -0.2840
13453TIP3    H261775   1.594   3.620  12.228 -0.4205 -0.2179 -0.9968
13454TIP3   OH261776   5.529   3.808  15.861  0.4767 -0.5510  0.6561
13454TIP3    H161777   5.521   3.832  15.769 -1.4998 -0.4827  0.8075
13454TIP3    H261778   5.570   3.884  15.903 -2.9755  1.5531  0.6150
13455TIP3   OH261779   2.143   1.291  17.181  0.4966 -0.1711  0.2815
13455TIP3    H161780   2.105   1.378  17.166  0.8816 -0.1009 -0.3390
13455TIP3    H261781   2.135   1.277  17.275 -2.0606 -0.6230  0.0511
13456TIP3   OH261782   4.012   0.049  12.016  0.0739  0.3378  0.1976
13456TIP3    H161783   3.921   0.030  12.037 -1.0819  0.2845 -3.8995
13456TIP3    H261784   4.014   0.145  12.005  0.4786  0.3278  0.1747
13457TIP3   OH261785   5.810   1.402   1.829  0.3969  0.1427  0.3493
13457TIP3    H161786   5.715   1.418   1.824  0.2338  0.5268  3.1325
13457TIP3    H261787   5.831   1.359   1.747 -2.1319  0.3467 -0.5010
13458TIP3   OH261788   3.517   2.354   2.436  0.1653  0.0962 -0.1578
13458TIP3    H161789   3.444   2.414   2.430 -0.8765 -1.1916 -0.9163
13458TIP3    H261790   3.502   2.306   2.518  0.2007 -0.1162 -0.2750
13459TIP3   OH261791   5.617   4.854   0.513  0.5925 -0.3689  0.0124
13459TIP3    H161792   5.602   4.809   0.596  0.1663  0.4890  0.4105
13459TIP3    H261793   5.566   4.805   0.449  0.1998 -0.4965  0.4236
13460TIP3   OH261794   4.020   0.250   2.862 -0.5126  0.4816 -0.0467
13460TIP3    H161795   3.987   0.324   2.811 -1.0797 -0.9880 -1.9752
13460TIP3    H261796   4.092   0.216   2.809  0.2925  0.1498  1.2324
13461TIP3   OH261797   0.712   2.513   1.125 -0.5182 -0.0743  0.0582
13461TIP3    H161798   0.677   2.427   1.147  0.6747 -0.9891 -1.3949
13461TIP3    H261799   0.769   2.497   1.049  0.0020  1.9415 -0.0375
13462TIP3   OH261800   3.146   1.843   3.419 -0.8128 -0.0359  0.0703
13462TIP3    H161801   3.118   1.762   3.461 -0.2488  0.7030  2.0230
13462TIP3    H261802   3.234   1.825   3.388  0.0585  0.3120  2.1721
13463TIP3   OH261803   2.361   0.800  13.742  0.0814 -0.1682  0.2758
13463TIP3    H161804   2.414   0.867  13.696  2.1935 -0.7418  1.7323
13463TIP3    H261805   2.331   0.844  13.821 -0.6815 -0.2235  0.0291
13464TIP3   OH261806   1.203   2.539  16.539  0.0702 -0.4272 -0.5176
13464TIP3    H161807   1.196   2.551  16.444  1.5298 -0.0892 -0.6052
13464TIP3    H261808   1.203   2.628  16.574 -1.4492 -0.5704 -0.0957
13465TIP3   OH261809   4.474   2.169  15.704 -0.7034  0.6287 -0.2048
13465TIP3    H161810   4.538   2.115  15.656 -1.5756 -0.6680  0.0424
13465TIP3    H261811   4.474   2.253  15.658  0.6332  0.4028 -0.6580
13466TIP3   OH261812   1.345   0.514   1.842  0.2954 -0.5183  0.0607
13466TIP3    H161813   1.296   0.440   1.879  1.5584 -1.4359 -0.0342
13466TIP3    H261814   1.278   0.569   1.801 -0.7777 -1.1070  0.9737
13467TIP3   OH261815   3.018   2.362   4.747 -0.1397 -0.1191 -0.1108
13467TIP3    H161816   3.043   2.368   4.840  2.1529 -1.9034 -0.5159
13467TIP3    H261817   2.979   2.275   4.739  0.1999 -0.2068 -0.9138
13468TIP3   OH261818   6.419   0.690   0.416  0.1555  0.2604  0.9131
13468TIP3    H161819   6.367   0.621   0.455  0.3977 -0.0957  0.6175
13468TIP3    H261820   6.462   0.648   0.341 -0.6515  1.0360 -0.0149
13469TIP3   OH261821   2.994   1.929   2.480 -0.2002  0.0193  0.0407
13469TIP3    H161822   2.985   2.006   2.536  0.8596  0.4476 -0.3723
13469TIP3    H261823   3.073   1.885   2.512 -0.3647 -0.4851 -0.2326
13470TIP3   OH261824   2.977   4.630  12.054  0.3099  0.0049 -0.5031
13470TIP3    H161825   2.955   4.604  11.964  1.5712  0.5607 -1.0113
13470TIP3    H261826   2.914   4.584  12.109 -2.1036  1.5258 -1.8003
13471TIP3   OH261827   6.152   3.890  15.567  0.1601  0.0549  0.5198
13471TIP3    H161828   6.067   3.870  15.607  0.3952 -1.1456  0.4567
13471TIP3    H261829   6.132   3.904  15.475 -0.0259  0.2373  0.5844
13472TIP3   OH261830   3.362   1.036  17.230  0.1935 -0.3958 -0.0624
13472TIP3    H161831   3.355   0.945  17.259 -1.7921 -0.4289 -0.5151
13472TIP3    H261832   3.276   1.056  17.193  1.2624  0.9924 -1.9738
13473TIP3   OH261833   4.930   2.273   6.557  0.2812  0.6130 -0.4679
13473TIP3    H161834   4.861   2.272   6.624  0.9398 -0.4469  0.2367
13473TIP3    H261835   4.904   2.206   6.494  0.2024  0.8655 -0.7072
13474TIP3   OH261836   2.620   2.804   3.381  0.5154 -0.7321  0.6855
13474TIP3    H161837   2.642   2.767   3.295  0.0378  2.0478 -0.7684
13474TIP3    H261838   2.649   2.895   3.376 -4.1925  1.0952  1.3731
13475TIP3   OH261839   6.117   3.339  15.074 -0.3508 -0.9830  0.5179
13475TIP3    H161840   6.142   3.333  15.166 -0.3997 -0.2214  0.5826
13475TIP3    H261841   6.025   3.365  15.075 -0.6390 -1.9431  0.2575
13476TIP3   OH261842   3.121   0.752   0.712 -0.8697 -0.1946 -0.2366
13476TIP3    H161843   3.154   0.665   0.735 -1.3672 -0.0551  1.1301
13476TIP3    H261844   3.056   0.735   0.644 -0.1421 -0.7591 -0.8143
13477TIP3   OH261845   0.028   2.524  12.166  0.1069  0.6093 -0.1591
13477TIP3    H161846   0.087   2.450  12.152 -1.2748 -0.6726  0.5204
13477TIP3    H261847   0.025   2.534  12.261 -1.3440  0.1321 -0.1310
13478TIP3   OH261848   3.442   4.585   6.326  0.7092 -0.2094  0.1270
13478TIP3    H161849   3.499   4.606   6.400  0.0387 -1.2620  0.9815
13478TIP3    H261850   3.395   4.667   6.308  1.2603  0.1988  0.5223
13479TIP3   OH261851   3.511   5.983  12.897 -0.0418 -0.0978 -0.3879
13479TIP3    H161852   3.446   5.983  12.968  1.2525 -1.5656  0.8449
13479TIP3    H261853   3.478   5.918  12.835  0.7111 -1.5806  0.7209
13480TIP3   OH261854   3.014   4.557  11.065  0.4451  0.1768  0.1121
13480TIP3    H161855   3.056   4.639  11.038 -1.8040  1.1930 -0.6461
13480TIP3    H261856   3.076   4.489  11.042  2.6355  1.6770  1.2757
13481TIP3   OH261857   0.289   3.426  14.247 -0.2404  0.2729  0.0523
13481TIP3    H161858   0.325   3.514  14.253  0.4259 -0.0544  1.4681
13481TIP3    H261859   0.364   3.368  14.264 -0.8084 -0.5381 -0.1270
13482TIP3   OH261860   5.976   4.086  15.074 -0.6946 -0.3477 -0.1661
13482TIP3    H161861   6.043   4.133  15.123  0.5053  0.2822 -2.3019
13482TIP3    H261862   6.019   4.061  14.992 -2.7123 -1.0556 -1.0736
13483TIP3   OH261863   2.284   3.278   2.304 -0.3463  0.0812 -0.1056
13483TIP3    H161864   2.265   3.189   2.335  0.0160  0.2717  0.6983
13483TIP3    H261865   2.325   3.266   2.218 -0.9464 -0.4890 -0.3197
13484TIP3   OH261866   6.555   6.178   4.831  0.2799  0.2218 -0.0434
13484TIP3    H161867   6.462   6.158   4.822  0.1066  0.7566  0.5018
13484TIP3    H261868   6.573   6.166   4.925  0.1639  2.5874  0.3367
13485TIP3   OH261869   0.174   0.387  13.571 -0.5495  0.4243 -0.0828
13485TIP3    H161870   0.147   0.308  13.524 -0.8962 -0.5529  1.6655
13485TIP3    H261871   0.228   0.354  13.643  2.2052  2.0617 -1.2747
13486TIP3   OH261872   1.817   5.837   6.689 -0.2274 -0.5221  0.2642
13486TIP3    H161873   1.766   5.794   6.757  2.3865 -0.8868  2.1580
13486TIP3    H261874   1.902   5.793   6.692  0.6307  0.8509 -1.8672
13487TIP3   OH261875   1.008   3.776  12.496 -0.0442 -0.4350  0.1283
13487TIP3    H161876   0.936   3.714  12.505 -0.2362 -0.3356 -0.6498
13487TIP3    H261877   1.010   3.798  12.403  1.4879 -1.0346 -0.0186
13488TIP3   OH261878   0.105   3.714  16.095 -0.2352 -0.1659  0.0062
13488TIP3    H161879   0.121   3.804  16.122 -0.0886 -0.6776  1.6882
13488TIP3    H261880   0.172   3.662  16.139 -0.3999 -1.1295 -0.8246
13489TIP3   OH261881   0.403   6.018  12.096  0.7632  0.1767 -0.3330
13489TIP3    H161882   0.341   6.013  12.023  2.5712  0.5444 -1.9894
13489TIP3    H261883   0.349   6.005  12.174 -0.9654 -2.6330 -1.8032
13490TIP3   OH261884   0.294   3.742   3.574 -0.0142 -0.1419  0.1072
13490TIP3    H161885   0.206   3.739   3.611  0.1173 -0.3072  0.4146
13490TIP3    H261886   0.343   3.677   3.625  0.4808  0.5034  0.4741
13491TIP3   OH261887   1.933   1.319  16.783  0.2846  0.5502  0.1845
13491TIP3    H161888   1.937   1.411  16.760 -0.4122  0.5031 -0.1680
13491TIP3    H261889   1.851   1.311  16.834 -0.1574 -0.0384 -0.5984
13492TIP3   OH261890   3.936   1.377   6.368  0.2492  0.0014  0.1665
13492TIP3    H161891   3.914   1.285   6.383  2.1780 -0.4244  0.6698
13492TIP3    H261892   3.851   1.421   6.364 -0.7131 -1.7225  0.3504
13493TIP3   OH261893   6.182   1.465  14.769  0.4385 -0.1633 -0.1536
13493TIP3    H161894   6.209   1.394  14.711  0.6292 -0.7671  0.6514
13493TIP3    H261895   6.260   1.482  14.824  0.0807 -0.0094  0.3162
13494TIP3   OH261896   1.569   5.198   5.416  0.3624 -0.0705  0.2046
13494TIP3    H161897   1.528   5.159   5.492 -0.0509  0.4912  0.2788
13494TIP3    H261898   1.504   5.192   5.347  1.5233 -2.6175 -0.7844
13495TIP3   OH261899   3.957   6.674  14.392 -0.7246  1.1057  0.2019
13495TIP3    H161900   3.868   6.648  14.369 -0.5273  0.5548  0.0432
13495TIP3    H261901   3.946   6.742  14.459 -1.2711  1.4529 -0.2317
13496TIP3   OH261902   2.538   1.336  12.045 -0.3132 -0.5168  0.0144
13496TIP3    H161903   2.623   1.365  12.079 -1.0700  1.7269  0.1389
13496TIP3    H261904   2.485   1.321  12.123 -0.9219  1.0109 -0.0888
13497TIP3   OH261905   2.982   3.393  11.036  0.3668  0.0204 -0.7517
13497TIP3    H161906   2.978   3.298  11.035 -0.4066  0.0217  0.2639
13497TIP3    H261907   3.018   3.417  10.951  0.0615 -1.1563 -1.2281
13498TIP3   OH261908   4.065   2.777  17.017 -0.0992  0.1694 -0.4534
13498TIP3    H161909   3.992   2.718  17.038 -1.1947  0.1474 -3.7924
13498TIP3    H261910   4.024   2.863  17.008  0.8212  0.7231  0.3998
13499TIP3   OH261911   6.334   6.641  16.606 -0.4714 -0.4475 -0.3088
13499TIP3    H161912   6.396   6.608  16.540 -0.5858  0.3689 -0.8397
13499TIP3    H261913   6.248   6.626  16.567 -0.5025  1.3660 -1.0231
13500TIP3   OH261914   5.670   1.065   3.360 -0.0475 -0.0355  0.5615
13500TIP3    H161915   5.673   1.023   3.446 -0.7967  1.2027  1.2242
13500TIP3    H261916   5.714   1.149   3.374  1.0993 -0.4122 -0.6373
13501TIP3   OH261917   0.075   0.940   3.433 -0.2157  0.1296 -0.6490
13501TIP3    H161918   0.152   0.961   3.485 -1.7042 -0.3648  1.9132
13501TIP3    H261919   0.069   0.845   3.436 -1.4812  0.2062  0.1242
13502TIP3   OH261920   3.463   5.721   5.800  0.3035  0.5795 -0.0535
13502TIP3    H161921   3.476   5.755   5.888 -0.3741  0.0103  0.2744
13502TIP3    H261922   3.547   5.680   5.777  0.1496 -0.2306  0.7676
13503TIP3   OH261923   5.772   2.396   4.753  0.7616  0.4251 -0.2801
13503TIP3    H161924   5.811   2.445   4.681 -1.1794  1.5723 -0.6063
13503TIP3    H261925   5.696   2.352   4.715  1.6838 -1.8399  0.3116
13504TIP3   OH261926   6.206   0.211   3.025 -0.0703 -0.2535  0.2363
13504TIP3    H161927   6.177   0.299   3.001  0.6766  0.2786  1.2176
13504TIP3    H261928   6.183   0.156   2.949 -0.5506  0.7746 -0.3782
13505TIP3   OH261929   1.014   3.887  11.777  0.0380  0.0070 -0.3806
13505TIP3    H161930   0.967   3.841  11.846 -2.9783 -0.1266 -2.3104
13505TIP3    H261931   1.054   3.817  11.725  0.1458 -0.0671 -0.1983
13506TIP3   OH261932   0.669   3.351   3.199  0.0419  0.3864  0.4027
13506TIP3    H161933   0.677   3.446   3.190  0.4729  0.2855 -0.3511
13506TIP3    H261934   0.593   3.328   3.146 -0.9797  0.4698  1.7672
13507TIP3   OH261935   5.540   6.246  11.894 -0.2546 -0.2054 -0.3666
13507TIP3    H161936   5.517   6.156  11.872 -1.0553 -0.0553 -0.1659
13507TIP3    H261937   5.616   6.239  11.951 -0.7817 -0.7868  0.2664
13508TIP3   OH261938   5.441   6.697   2.142  0.0684  0.1977 -0.4796
13508TIP3    H161939   5.350   6.697   2.113 -0.6653  0.5281  1.6708
13508TIP3    H261940   5.453   6.782   2.185  0.8487 -0.5154  0.7749
13509TIP3   OH261941   4.191   3.145   2.966  0.3727  0.2377 -0.1329
13509TIP3    H161942   4.144   3.224   2.938  0.9687  0.2060 -1.3029
13509TIP3    H261943   4.126   3.094   3.014 -0.8932  0.1115 -1.8497
13510TIP3   OH261944   1.731   4.901   5.235 -0.7142  0.2003 -0.3173
13510TIP3    H161945   1.679   4.849   5.296 -0.6854 -1.9019 -1.9417
13510TIP3    H261946   1.669   4.930   5.169 -0.6019  1.7439  0.2162
13511TIP3   OH261947   6.270   5.100   4.146  0.2901 -0.4455  0.0806
13511TIP3    H161948   6.361   5.092   4.119  0.2017  0.1880 -0.4432
13511TIP3    H261949   6.269   5.173   4.208  0.3928 -1.5084  1.3747
13512TIP3   OH261950   3.212   2.944   6.318 -0.4440  0.1456  0.0985
13512TIP3    H161951   3.151   2.887   6.271 -1.2425  0.1276  1.1220
13512TIP3    H261952   3.291   2.946   6.263 -0.9036 -0.8416 -0.6169
13513TIP3   OH261953   1.510   4.394   4.634  0.5634 -0.6497 -0.4460
13513TIP3    H161954   1.500   4.313   4.685  1.6341  0.3967  1.5579
13513TIP3    H261955   1.485   4.370   4.545  0.0945 -2.9773  0.2524
13514TIP3   OH261956   4.433   0.133  14.253 -0.3928  0.0180  0.0776
13514TIP3    H161957   4.395   0.163  14.335  0.4715  0.1188  0.4491
13514TIP3    H261958   4.454   0.213  14.205  1.7599  0.0701  0.9993
13515TIP3   OH261959   5.765   0.348   5.718  0.0057  0.1163  0.2569
13515TIP3    H161960   5.819   0.270   5.704 -0.1907  0.1492 -0.7242
13515TIP3    H261961   5.697   0.342   5.651 -0.7923  0.4492  1.0163
13516TIP3   OH261962   6.468   0.296  16.126 -0.3680  0.3477 -0.0649
13516TIP3    H161963   6.501   0.284  16.037 -1.6311  0.8888 -0.6305
13516TIP3    H261964   6.538   0.264  16.182  0.3745 -0.1815 -1.2562
13517TIP3   OH261965   2.544   0.185  15.137 -0.3549  0.5312  0.3528
13517TIP3    H161966   2.602   0.247  15.181 -1.0377  0.6920  1.0378
13517TIP3    H261967   2.547   0.106  15.191 -0.4871  0.4127  0.1886
13518TIP3   OH261968   0.900   2.520  15.565  0.5466 -0.4659 -0.4335
13518TIP3    H161969   0.877   2.590  15.504  0.6835 -1.4019 -1.5922
13518TIP3    H261970   0.952   2.564  15.633 -1.0028  0.9000 -0.0482
13519TIP3   OH261971   4.039   2.332  15.490 -0.1165  0.6364 -0.7052
13519TIP3    H161972   4.088   2.413  15.478  0.9011  0.1388  0.0125
13519TIP3    H261973   4.094   2.278  15.546 -1.0994 -0.2810 -0.5864
13520TIP3   OH261974   3.298   4.326  14.234 -0.1897  0.4159  0.8951
13520TIP3    H161975   3.240   4.356  14.164  1.0379 -2.7061 -1.7495
13520TIP3    H261976   3.247   4.259  14.279  0.5067 -0.7675 -0.0157
13521TIP3   OH261977   0.250   1.768   1.827 -0.4477 -0.3783 -0.3869
13521TIP3    H161978   0.204   1.829   1.770  1.2670  0.2619 -1.1407
13521TIP3    H261979   0.337   1.805   1.836 -0.0054 -1.6497  0.8500
13522TIP3   OH261980   2.050   3.054   3.690 -0.2839 -0.4412  0.6083
13522TIP3    H161981   2.016   2.967   3.715  1.3017 -0.7774  1.7153
13522TIP3    H261982   2.143   3.050   3.711  0.1745  0.9551 -0.9806
13523TIP3   OH261983   6.268   4.393  17.297 -0.0405 -0.5114 -0.1196
13523TIP3    H161984   6.317   4.330  17.351  0.2073  0.4229  0.7693
13523TIP3    H261985   6.336   4.447  17.256 -0.2956  0.8852  1.2316
13524TIP3   OH261986   3.871   0.851  13.769  0.1898 -0.2316  0.1688
13524TIP3    H161987   3.925   0.781  13.734 -1.5999 -1.2469 -0.7214
13524TIP3    H261988   3.782   0.817  13.764 -0.4221  0.6221  3.3194
13525TIP3   OH261989   5.666   3.329  15.306 -0.1595 -0.4303 -0.3018
13525TIP3    H161990   5.621   3.398  15.356  2.1257  1.3039 -0.4343
13525TIP3    H261991   5.644   3.248  15.352 -0.9203  0.6825  1.4280
13526TIP3   OH261992   1.616   0.871  14.832  0.1599  0.5046 -0.3568
13526TIP3    H161993   1.661   0.902  14.754 -0.2627 -1.5837 -1.5106
13526TIP3    H261994   1.665   0.792  14.858  0.3213  1.1834  1.5394
13527TIP3   OH261995   5.318   4.327   2.846 -0.5222 -0.7820  0.0981
13527TIP3    H161996   5.227   4.354   2.835 -0.2070  0.6784  0.8179
13527TIP3    H261997   5.361   4.403   2.885  0.8315 -1.7361  0.5490
13528TIP3   OH261998   2.699   0.686   3.587  0.6030 -0.7629  0.3126
13528TIP3    H161999   2.650   0.768   3.595  1.6117 -0.0590 -0.3667
13528TIP3    H262000   2.698   0.649   3.675  0.8701  0.4300  0.8450
13529TIP3   OH262001   5.142   0.811  14.039 -0.0345  0.1235  1.0432
13529TIP3    H162002   5.177   0.776  13.957 -0.1330 -0.7974  1.3811
13529TIP3    H262003   5.071   0.751  14.062 -0.6076  0.8972  1.3340
13530TIP3   OH262004   3.688   5.049  16.695 -0.8922  0.3316  0.6861
13530TIP3    H162005   3.772   5.074  16.656 -0.2887 -0.4664  1.4337
13530TIP3    H262006   3.638   5.131  16.699 -0.1689  0.8134  0.2107
13531TIP3   OH262007   5.248   4.550  13.541 -0.8211 -0.7129  0.0366
13531TIP3    H162008   5.265   4.644  13.550 -0.1860 -0.9397  1.3830
13531TIP3    H262009   5.170   4.545  13.486 -1.8161  0.6574  1.2536
13532TIP3   OH262010   0.173   5.136  10.966 -0.7666 -0.7938 -0.3562
13532TIP3    H162011   0.204   5.051  10.936  0.3173 -0.6531  0.2910
13532TIP3    H262012   0.231   5.199  10.922 -0.9470 -0.4483 -0.0993
13533TIP3   OH262013   0.490   4.927  17.160 -0.2422 -0.5665 -0.0626
13533TIP3    H162014   0.536   4.869  17.221  1.0168  0.5782  0.1195
13533TIP3    H262015   0.400   4.894  17.158  0.0979 -1.6202  1.1467
13534TIP3   OH262016   1.973   2.700  16.502  0.3939 -0.0595  0.1288
13534TIP3    H162017   1.933   2.784  16.478  0.9263  0.4885  1.0764
13534TIP3    H262018   1.902   2.636  16.494 -0.4438  0.7378  0.8929
13535TIP3   OH262019   3.646   5.044   2.558  0.0390  0.3417 -0.2851
13535TIP3    H162020   3.729   5.015   2.596 -0.1872 -0.3204 -0.2782
13535TIP3    H262021   3.607   4.964   2.523  0.1655  0.8907 -1.7746
13536TIP3   OH262022   4.703   6.444  12.605 -0.6142  0.1246 -0.1318
13536TIP3    H162023   4.726   6.354  12.581 -0.1989 -0.1814  1.3484
13536TIP3    H262024   4.607   6.443  12.609 -0.5963 -0.3874  0.3539
13537TIP3   OH262025   5.347   1.929   2.270 -0.3520 -0.0030 -0.1529
13537TIP3    H162026   5.429   1.887   2.295 -0.1739  0.2418 -0.3252
13537TIP3    H262027   5.348   2.013   2.314 -1.0150 -0.4375  0.7327
13538TIP3   OH262028   6.364   6.168  13.904 -0.7517  0.6265  0.3196
13538TIP3    H162029   6.386   6.075  13.916  0.7040  1.0045  0.8582
13538TIP3    H262030   6.297   6.186  13.969 -1.0903 -0.0595  0.1713
13539TIP3   OH262031   2.197   0.356   4.242 -0.4114  0.4917 -0.5920
13539TIP3    H162032   2.262   0.350   4.172 -0.5961  0.1564 -0.7381
13539TIP3    H262033   2.227   0.428   4.297  0.7870 -0.4961  0.0716
13540TIP3   OH262034   3.704   3.223  10.679 -0.5590 -0.3927  0.5845
13540TIP3    H162035   3.778   3.173  10.711  0.5357  0.4900 -0.4522
13540TIP3    H262036   3.644   3.158  10.644 -0.4674 -1.1448  1.7773
13541TIP3   OH262037   4.466   0.816  12.498 -0.2453 -0.6857 -0.1672
13541TIP3    H162038   4.433   0.850  12.415 -1.1547 -0.5941  0.2255
13541TIP3    H262039   4.399   0.838  12.562  0.5441 -0.5607  0.6423
13542TIP3   OH262040   4.791   4.096   1.248  0.6275  0.0396 -0.4774
13542TIP3    H162041   4.848   4.021   1.232  0.7591 -0.2533  1.1918
13542TIP3    H262042   4.851   4.167   1.271  0.3622 -0.0844  0.6148
13543TIP3   OH262043   6.511   4.944  12.956 -0.5672  0.3281 -0.3867
13543TIP3    H162044   6.568   5.015  12.985  1.7150 -1.4759 -0.1957
13543TIP3    H262045   6.535   4.930  12.865 -0.6811 -0.4557 -0.3018
13544TIP3   OH262046   4.488   4.951   0.107  0.2717 -0.2963  0.3156
13544TIP3    H162047   4.573   4.908   0.111  0.9423  1.0346  0.6805
13544TIP3    H262048   4.441   4.916   0.183  0.1714 -1.6286 -0.3238
13545TIP3   OH262049   1.144   4.692   4.032 -0.3177 -0.0207  0.1293
13545TIP3    H162050   1.066   4.727   4.075  1.4299  1.3749  2.4324
13545TIP3    H262051   1.206   4.677   4.103  2.8588  2.6074 -1.7647
13546TIP3   OH262052   6.304   2.000  16.559 -0.0429 -0.4977  0.0189
13546TIP3    H162053   6.262   2.051  16.490  1.0426 -0.1069 -0.3620
13546TIP3    H262054   6.310   1.911  16.524  1.8745  0.0052 -1.0351
13547TIP3   OH262055   0.924   0.755   5.988 -0.4032  0.6296 -0.0613
13547TIP3    H162056   0.992   0.731   5.925 -0.1207  1.2908 -0.0263
13547TIP3    H262057   0.969   0.758   6.073 -0.4059  1.3227 -0.0747
13548TIP3   OH262058   1.355   1.813   1.531  0.3493 -0.2816  0.4942
13548TIP3    H162059   1.339   1.898   1.571  0.0388 -0.3196  0.4542
13548TIP3    H262060   1.420   1.830   1.462  0.0739 -0.0272  0.2959
13549TIP3   OH262061   0.161   3.834  15.745 -0.2813  0.0181 -0.2771
13549TIP3    H162062   0.147   3.891  15.821 -0.5096  0.1083 -0.3852
13549TIP3    H262063   0.254   3.844  15.724  0.8631 -3.0316  2.4333
13550TIP3   OH262064   5.114   2.963  12.944 -0.0157  0.2273 -0.0106
13550TIP3    H162065   5.087   2.911  13.020  0.4227 -0.4926 -0.3460
13550TIP3    H262066   5.050   2.942  12.876  1.0804 -1.1114 -0.6531
13551TIP3   OH262067   5.221   2.305  16.160 -0.2382  0.3264  0.6981
13551TIP3    H162068   5.191   2.329  16.248  0.4896 -0.2425  1.1215
13551TIP3    H262069   5.146   2.319  16.103 -0.6660  0.8665  1.3922
13552TIP3   OH262070   1.853   6.530  13.414 -0.0323 -0.2038  0.6378
13552TIP3    H162071   1.900   6.590  13.472  0.9042 -0.4103  0.1022
13552TIP3    H262072   1.900   6.447  13.423  1.6106  0.3186 -2.1693
13553TIP3   OH262073   3.486   0.378   2.542 -0.0450  0.5943  0.2730
13553TIP3    H162074   3.467   0.471   2.557 -0.6176  0.1685  2.3769
13553TIP3    H262075   3.536   0.351   2.618  2.5852 -0.2117 -1.5816
13554TIP3   OH262076   4.814   4.710   0.866  0.0050  0.2726 -0.0545
13554TIP3    H162077   4.827   4.797   0.906 -0.0628 -0.1486  0.9210
13554TIP3    H262078   4.843   4.649   0.934  0.3013 -0.4690 -0.8341
13555TIP3   OH262079   5.934   2.401   1.298 -0.1211  0.3228  0.1452
13555TIP3    H162080   5.867   2.340   1.268  1.4088 -1.5734  0.3604
13555TIP3    H262081   6.004   2.394   1.232  0.9195  0.3123  1.2116
13556TIP3   OH262082   2.403   5.747   2.870 -0.3940 -0.0281  0.4766
13556TIP3    H162083   2.387   5.770   2.779  0.0433 -0.1398  0.3700
13556TIP3    H262084   2.316   5.744   2.910 -0.6245 -0.4454 -0.0463
13557TIP3   OH262085   1.937   0.393   1.981 -1.2309 -0.1435 -0.2540
13557TIP3    H162086   1.887   0.475   1.983  0.5706  1.0315 -1.1390
13557TIP3    H262087   1.963   0.383   1.890 -0.0254 -0.8189  0.1513
13558TIP3   OH262088   0.368   5.241   5.484 -0.6826  0.2294  0.3482
13558TIP3    H162089   0.344   5.270   5.396 -1.9177  0.0433  0.6033
13558TIP3    H262090   0.453   5.281   5.501  0.8335 -1.7466 -1.9032
13559TIP3   OH262091   4.485   5.446  14.471  0.2802  0.1452  0.5397
13559TIP3    H162092   4.546   5.394  14.522 -0.5019 -1.6070 -0.2470
13559TIP3    H262093   4.531   5.529  14.456  1.8413 -0.5592  1.2160
13560TIP3   OH262094   0.530   2.793   0.832 -0.4493  0.2290  0.3147
13560TIP3    H162095   0.567   2.770   0.748  0.7773  0.1275  0.8653
13560TIP3    H262096   0.438   2.814   0.813  0.0534  1.2419 -1.2088
13561TIP3   OH262097   2.183   4.818  11.325 -0.2276 -0.0540 -0.1880
13561TIP3    H162098   2.251   4.797  11.390 -0.8840  2.5402  1.4751
13561TIP3    H262099   2.232   4.838  11.245  0.8852  0.4973  0.6033
13562TIP3   OH262100   4.377   6.638   3.176 -0.2418 -0.2332  0.5906
13562TIP3    H162101   4.375   6.714   3.116 -1.6873 -1.4700 -1.0224
13562TIP3    H262102   4.316   6.661   3.246 -1.0100 -0.0635 -0.1182
13563TIP3   OH262103   4.298   2.341  11.999  0.9171  0.1663 -0.2354
13563TIP3    H162104   4.256   2.413  12.045 -1.0609 -1.1473  0.1654
13563TIP3    H262105   4.302   2.370  11.908  0.6385  0.9785  0.0007
13564TIP3   OH262106   2.929   1.364   4.578 -0.3856 -0.2250  0.1283
13564TIP3    H162107   3.002   1.317   4.618 -0.2846  0.6921  1.0478
13564TIP3    H262108   2.924   1.446   4.626 -2.8942 -0.8204  1.0294
13565TIP3   OH262109   1.801   4.836   1.258  0.7004 -0.0689  0.3452
13565TIP3    H162110   1.715   4.813   1.293  0.9282 -2.2684 -0.3620
13565TIP3    H262111   1.839   4.895   1.323 -0.6524 -0.4579  1.5274
13566TIP3   OH262112   3.698   3.972   6.456  0.3655 -0.2533 -0.7207
13566TIP3    H162113   3.699   3.996   6.363 -1.0801  0.0963 -0.6647
13566TIP3    H262114   3.653   4.044   6.499 -2.4451 -2.0933 -0.2934
13567TIP3   OH262115   6.604   3.691  16.662 -0.0994 -0.3145 -0.2055
13567TIP3    H162116   6.687   3.704  16.617 -0.6289  1.0948 -0.8316
13567TIP3    H262117   6.626   3.695  16.755  0.3114  2.2023 -0.3262
13568TIP3   OH262118   0.601   0.610  11.655 -0.8549 -0.0456 -0.5081
13568TIP3    H162119   0.666   0.540  11.659 -0.0675  0.6212 -1.2731
13568TIP3    H262120   0.650   0.687  11.628 -1.4127  1.1865  1.7363
13569TIP3   OH262121   1.645   3.086  11.593  0.5725 -0.1846  0.0576
13569TIP3    H162122   1.721   3.144  11.586 -0.6913  1.5599  0.0839
13569TIP3    H262123   1.600   3.115  11.672 -0.4570 -0.7758 -0.2906
13570TIP3   OH262124   4.709   3.557  16.704  0.4680  0.2366 -0.1704
13570TIP3    H162125   4.802   3.580  16.697  0.2378  0.8556 -1.8820
13570TIP3    H262126   4.664   3.629  16.660 -0.8124 -0.2081  0.3673
13571TIP3   OH262127   3.828   2.264   1.921 -0.0178 -0.1434 -0.5857
13571TIP3    H162128   3.857   2.185   1.967  1.2533  0.5250 -0.1864
13571TIP3    H262129   3.875   2.263   1.838  0.2881  0.3710 -0.4232
13572TIP3   OH262130   5.949   4.636   3.444 -0.3389 -0.4809  0.7448
13572TIP3    H162131   6.026   4.588   3.475  0.3067  0.2496  0.3037
13572TIP3    H262132   5.967   4.727   3.467 -0.7904 -0.2151  0.0741
13573TIP3   OH262133   0.262   3.220   6.201  0.8215  0.2762  0.2908
13573TIP3    H162134   0.227   3.146   6.151  1.4259 -0.6901  1.2520
13573TIP3    H262135   0.357   3.212   6.194  0.9571  2.5003 -1.7328
13574TIP3   OH262136   5.886   2.611  14.939 -0.5484 -0.3374 -0.4406
13574TIP3    H162137   5.862   2.535  14.886 -0.8676 -0.8943  0.4820
13574TIP3    H262138   5.921   2.574  15.020 -1.2718  0.4900  0.2667
13575TIP3   OH262139   4.810   0.042   4.665 -0.0912  0.2942  0.1093
13575TIP3    H162140   4.817  -0.053   4.672  2.3259  0.4430  0.7663
13575TIP3    H262141   4.782   0.057   4.575 -0.7051 -1.0215  0.0535
13576TIP3   OH262142   4.372   3.455  14.348  0.9872 -0.2301  0.2565
13576TIP3    H162143   4.284   3.491  14.337  1.7712  1.4624 -1.0174
13576TIP3    H262144   4.400   3.433  14.259  1.6904 -1.1639  0.6994
13577TIP3   OH262145   4.004   2.392  15.060  0.1463 -0.0570  0.6556
13577TIP3    H162146   3.949   2.407  14.984  1.3660  0.5854 -0.1379
13577TIP3    H262147   3.956   2.430  15.134  0.2668  2.0302 -0.2767
13578TIP3   OH262148   3.201   5.482  16.383 -0.1657  0.1728 -0.3363
13578TIP3    H162149   3.182   5.561  16.333  0.2877 -0.9905 -2.4822
13578TIP3    H262150   3.168   5.410  16.329 -0.6036 -1.1367  1.5524
13579TIP3   OH262151   2.163   0.357  12.238  0.1252  0.2152 -0.0332
13579TIP3    H162152   2.156   0.442  12.196 -0.0811  0.6757  0.9073
13579TIP3    H262153   2.074   0.322  12.237 -0.0940  0.7108  0.9841
13580TIP3   OH262154   2.385   0.740   4.532  0.0198 -0.5261  0.4256
13580TIP3    H162155   2.423   0.824   4.558 -0.0975 -0.3753  0.1194
13580TIP3    H262156   2.434   0.715   4.454  0.3746 -0.9779  0.7909
13581TIP3   OH262157   4.142   2.731   0.062 -0.2202  0.1798  0.5034
13581TIP3    H162158   4.050   2.749   0.043  0.4567  2.2069 -1.2740
13581TIP3    H262159   4.163   2.790   0.135  0.1414  1.2415 -0.4333
13582TIP3   OH262160   2.340   0.203   2.361  0.2817 -0.3068 -0.0380
13582TIP3    H162161   2.386   0.252   2.428 -2.0000  1.1288  0.5924
13582TIP3    H262162   2.298   0.270   2.307  1.0647 -1.4687 -2.2027
13583TIP3   OH262163   0.224   1.388  10.948 -0.4261 -0.6347  0.2483
13583TIP3    H162164   0.146   1.358  10.995  0.2847 -0.3068  1.6928
13583TIP3    H262165   0.271   1.307  10.925  0.4159 -0.7781  2.2636
13584TIP3   OH262166   2.321   3.833   2.445 -0.5316  0.5391  0.0176
13584TIP3    H162167   2.384   3.887   2.396  0.7465 -0.8407  0.0834
13584TIP3    H262168   2.292   3.766   2.383 -0.5666  0.0861  0.5149
13585TIP3   OH262169   2.643   6.634   5.176  0.0736 -0.2324  0.5199
13585TIP3    H162170   2.620   6.544   5.155  0.2255 -0.6922  2.1993
13585TIP3    H262171   2.738   6.633   5.184 -0.0203 -0.2112  1.7410
13586TIP3   OH262172   2.109   6.526   0.456  0.2192  0.1361  0.3644
13586TIP3    H162173   2.063   6.583   0.518  1.8261  1.6543  0.2441
13586TIP3    H262174   2.040   6.496   0.397 -1.0855 -0.1056  1.9508
13587TIP3   OH262175   5.635   3.452  13.164 -0.1700  0.3355  0.0282
13587TIP3    H162176   5.637   3.422  13.073 -0.9296 -1.1751  0.4743
13587TIP3    H262177   5.542   3.450  13.187  0.1242 -0.5204  1.2107
13588TIP3   OH262178   3.770   1.498  14.909 -0.3153  0.0497 -0.0454
13588TIP3    H162179   3.782   1.404  14.924  0.0211  0.0725 -0.1549
13588TIP3    H262180   3.701   1.524  14.970 -1.5362 -0.5807 -1.1232
13589TIP3   OH262181   1.013   3.822   6.546  0.0861 -0.0216 -0.0025
13589TIP3    H162182   0.957   3.747   6.528  2.1247 -1.7164  0.2652
13589TIP3    H262183   0.987   3.888   6.482 -1.0137 -1.3952 -1.0286
13590TIP3   OH262184   0.735   0.075  13.141 -0.1040 -0.2569  0.4501
13590TIP3    H162185   0.654   0.083  13.090 -0.4255 -0.4835  0.9125
13590TIP3    H262186   0.799   0.127  13.093 -0.1516 -1.2234 -0.6914
13591TIP3   OH262187   1.245   5.358  10.689 -0.4879  0.6068 -0.8472
13591TIP3    H162188   1.290   5.330  10.768  1.9275  0.6741 -2.0897
13591TIP3    H262189   1.189   5.284  10.665  0.8191 -0.5209 -0.5225
13592TIP3   OH262190   5.841   4.454  12.466  0.4731 -0.5058 -0.2048
13592TIP3    H162191   5.753   4.422  12.484 -2.1753  4.4008 -2.5069
13592TIP3    H262192   5.867   4.407  12.386 -1.6325  0.2794 -1.4383
13593TIP3   OH262193   3.403   5.843  12.654  0.2843 -0.9404 -0.4277
13593TIP3    H162194   3.359   5.829  12.571 -1.0864  4.1545 -0.8560
13593TIP3    H262195   3.493   5.865  12.630 -0.0461  0.2734 -0.6230
13594TIP3   OH262196   6.402   3.811  13.485  0.6420  0.2888 -0.3928
13594TIP3    H162197   6.374   3.871  13.416  0.1032  0.1944 -0.2619
13594TIP3    H262198   6.368   3.849  13.565 -0.4729 -0.6426 -0.4054
13595TIP3   OH262199   3.124   6.484   3.643 -0.2320  0.1493 -0.0061
13595TIP3    H162200   3.124   6.390   3.659  0.2241 -0.1208 -1.4215
13595TIP3    H262201   3.039   6.502   3.604 -0.4036  0.3671  0.4621
13596TIP3   OH262202   6.378   4.073  13.373 -0.1921  0.0617 -0.2323
13596TIP3    H162203   6.293   4.064  13.417  0.6999 -2.2499  1.1423
13596TIP3    H262204   6.412   4.157  13.405 -0.6418 -0.4256  1.6226
13597TIP3   OH262205   6.479   4.099   1.919  0.6999  0.1895  0.2091
13597TIP3    H162206   6.419   4.166   1.887 -0.3023 -0.4189  0.7620
13597TIP3    H262207   6.494   4.121   2.011 -1.0923 -1.3165  0.9273
13598TIP3   OH262208   4.436   2.646  15.784  0.8830  0.8053 -0.2328
13598TIP3    H162209   4.359   2.697  15.758  0.9401  1.2394  0.4383
13598TIP3    H262210   4.406   2.594  15.858  0.5237 -0.9591 -1.5439
13599TIP3   OH262211   0.234   4.423  14.480 -0.1361 -0.2728  0.4816
13599TIP3    H162212   0.241   4.429  14.575  0.2701 -0.8289  0.4917
13599TIP3    H262213   0.175   4.349  14.465 -0.3657 -0.0566  0.2999
13600TIP3   OH262214   0.690   2.964   1.975 -0.2652  0.5637 -0.4324
13600TIP3    H162215   0.779   2.930   1.972 -0.1665  0.8187 -0.3613
13600TIP3    H262216   0.699   3.056   2.000 -0.4887  0.8187 -1.2410
13601TIP3   OH262217   4.315   0.144  16.833 -0.1847 -0.4083  0.6140
13601TIP3    H162218   4.253   0.141  16.759  0.8436 -0.3956 -0.2761
13601TIP3    H262219   4.337   0.237  16.842  1.4404 -0.6214 -0.6126
13602TIP3   OH262220   3.608   2.361   3.266 -0.0743 -0.3105  0.0826
13602TIP3    H162221   3.692   2.406   3.250 -0.5060  0.7243  0.6464
13602TIP3    H262222   3.549   2.398   3.201 -0.8426  1.1450  1.5260
13603TIP3   OH262223   3.441   6.738   5.269 -0.3016  0.3567  0.2527
13603TIP3    H162224   3.513   6.746   5.206  1.0410 -0.2432  1.6594
13603TIP3    H262225   3.477   6.772   5.351 -0.0195 -3.9507  2.1838
13604TIP3   OH262226   5.945   3.102   6.262  0.3831  0.2337  0.2928
13604TIP3    H162227   6.015   3.045   6.230  1.1310  0.9706  0.5785
13604TIP3    H262228   5.983   3.146   6.338  0.6878  2.8768 -1.2754
13605TIP3   OH262229   4.370   0.691   0.987 -0.3479 -0.6053  0.4218
13605TIP3    H162230   4.449   0.673   1.037 -0.2472 -1.2561  0.0368
13605TIP3    H262231   4.342   0.777   1.017 -0.4505 -1.0913  1.8196
13606TIP3   OH262232   4.519   2.182  12.281  0.0915  0.3703 -0.1862
13606TIP3    H162233   4.553   2.263  12.244 -0.8008 -0.1060 -2.1812
13606TIP3    H262234   4.441   2.163  12.229 -0.5643 -0.9806  1.2293
13607TIP3   OH262235   1.495   1.001  15.970 -0.7611  0.7279 -0.1386
13607TIP3    H162236   1.526   1.031  16.056 -0.5113 -0.4851  0.2128
13607TIP3    H262237   1.528   1.067  15.909  0.6590  0.6526  0.4870
13608TIP3   OH262238   5.392   4.048  17.059 -0.1842 -0.7637 -0.0818
13608TIP3    H162239   5.308   4.027  17.016 -1.2759  2.2130  0.3431
13608TIP3    H262240   5.385   4.007  17.145 -0.3665 -2.0732 -0.6833
13609TIP3   OH262241   1.393   2.477  15.205 -0.1773  0.2417 -0.6904
13609TIP3    H162242   1.313   2.526  15.226  0.1025  0.1485  0.6629
13609TIP3    H262243   1.436   2.464  15.289 -0.2508 -2.3870 -0.9898
13610TIP3   OH262244   4.101   2.661  15.226 -0.0867 -0.2005  0.1090
13610TIP3    H162245   4.013   2.663  15.264 -0.2083 -0.1484 -0.1696
13610TIP3    H262246   4.125   2.753  15.216  0.5285 -0.2011  1.3798
13611TIP3   OH262247   2.885   0.980   0.563 -0.7311  0.1688 -0.0935
13611TIP3    H162248   2.924   0.899   0.531 -0.6004  0.4402 -0.6520
13611TIP3    H262249   2.838   1.015   0.487 -1.2058  0.3640  0.2843
13612TIP3   OH262250   3.454   3.149  11.819  0.2591 -0.1546 -0.0014
13612TIP3    H162251   3.537   3.167  11.862  0.3455 -0.2206 -0.1422
13612TIP3    H262252   3.477   3.129  11.729  0.1563 -0.9035  0.1374
13613TIP3   OH262253   0.365   5.325   6.058  0.2410 -0.2009 -0.0761
13613TIP3    H162254   0.343   5.302   5.968  0.4969  1.0595 -0.4727
13613TIP3    H262255   0.325   5.410   6.072 -0.1844 -0.5808  1.1698
13614TIP3   OH262256   1.148   1.190  13.908 -0.0074 -0.2743 -0.0532
13614TIP3    H162257   1.209   1.260  13.883  1.2505 -0.9080  1.1387
13614TIP3    H262258   1.132   1.142  13.827  1.2143 -0.1886 -0.3647
13615TIP3   OH262259   6.699   2.112  14.396 -0.1099  0.3835  0.0615
13615TIP3    H162260   6.758   2.106  14.472 -1.9811  0.8793  1.6467
13615TIP3    H262261   6.681   2.205  14.388  0.9006  0.4606 -1.7370
13616TIP3   OH262262   0.109   3.733   2.549  0.0427 -0.0202 -0.4251
13616TIP3    H162263   0.158   3.655   2.525 -0.4205 -0.4643  0.0473
13616TIP3    H262264   0.024   3.722   2.507 -0.1054  0.1082 -0.1633
13617TIP3   OH262265   0.785   5.794  16.831 -0.3124 -0.5250 -0.5070
13617TIP3    H162266   0.870   5.770  16.794 -0.0854  0.9076 -0.9380
13617TIP3    H262267   0.729   5.719  16.811  0.6987 -1.2621 -0.6864
13618TIP3   OH262268   1.009   4.616  12.532  0.1257  0.0380 -0.0480
13618TIP3    H162269   1.087   4.560  12.536 -0.2491 -0.4075  1.8031
13618TIP3    H262270   1.044   4.705  12.522  0.9014 -0.1370  0.9650
13619TIP3   OH262271   4.368   5.948  14.314  0.0068 -0.2647  0.5498
13619TIP3    H162272   4.441   5.924  14.257 -0.3179  2.4379 -1.1973
13619TIP3    H262273   4.405   5.947  14.402  0.9856 -2.9056  0.1986
13620TIP3   OH262274   4.154   3.294  13.996 -0.5429  0.3994  0.1971
13620TIP3    H162275   4.089   3.224  14.003 -2.2578  1.6404 -2.0164
13620TIP3    H262276   4.115   3.367  14.044 -0.5282  0.9833 -0.6762
13621TIP3   OH262277   2.314   2.947  12.457  0.6688  0.7166 -0.1435
13621TIP3    H162278   2.239   2.971  12.510  0.9298 -0.3036  0.7218
13621TIP3    H262279   2.327   3.022  12.398 -0.7706  1.0636 -0.0488
13622TIP3   OH262280   1.332   2.488   0.743 -0.4195  0.2234 -0.2072
13622TIP3    H162281   1.422   2.520   0.737 -0.8535  1.5178 -0.1114
13622TIP3    H262282   1.278   2.567   0.744 -1.5401 -0.5173  0.1468
13623TIP3   OH262283   2.610   1.228  11.213  0.3526  0.0535 -0.5483
13623TIP3    H162284   2.593   1.144  11.169  0.3907 -0.1602 -0.1554
13623TIP3    H262285   2.664   1.276  11.151 -3.3404  1.6444 -2.8927
13624TIP3   OH262286   0.488   1.293   6.413  0.0055  0.4976  0.1943
13624TIP3    H162287   0.565   1.243   6.442  0.4210  0.9856 -0.0400
13624TIP3    H262288   0.420   1.228   6.402 -0.4947  0.3355  3.2091
13625TIP3   OH262289   6.637   0.459   2.195 -0.2762 -0.1635  0.3472
13625TIP3    H162290   6.637   0.490   2.286 -0.0167  2.2133 -0.3934
13625TIP3    H262291   6.629   0.364   2.202  0.5917 -0.1174  2.8720
13626TIP3   OH262292   6.264   2.923  16.583  0.1993  0.6522 -0.1772
13626TIP3    H162293   6.177   2.889  16.561  0.6634  1.1965 -3.3397
13626TIP3    H262294   6.271   2.910  16.678 -2.3636 -1.6013 -0.1482
13627TIP3   OH262295   4.092   3.661  15.226 -0.2403 -0.6938  0.0593
13627TIP3    H162296   4.041   3.743  15.227 -1.2074 -1.2787  1.0649
13627TIP3    H262297   4.051   3.609  15.157 -1.3611 -1.3445  1.1687
13628TIP3   OH262298   0.400   5.816   1.289  0.2290 -0.0922 -0.2258
13628TIP3    H162299   0.484   5.821   1.243  0.3077 -1.0614 -0.2012
13628TIP3    H262300   0.346   5.883   1.247  0.9027  0.3097 -0.4666
13629TIP3   OH262301   1.393   5.817  12.015  0.3233 -0.2452  0.6194
13629TIP3    H162302   1.362   5.876  11.946  1.0201  0.3492  0.7981
13629TIP3    H262303   1.315   5.797  12.066  0.2045  1.1724  1.0249
13630TIP3   OH262304   5.460   1.050  12.758  0.3277 -0.2425  0.5923
13630TIP3    H162305   5.382   1.022  12.805  0.2592 -2.4213 -0.6794
13630TIP3    H262306   5.431   1.063  12.668  1.0129  1.0386  0.5383
13631TIP3   OH262307   5.151   5.592  12.195 -0.6717  0.4721 -0.0181
13631TIP3    H162308   5.172   5.648  12.269  1.4089  0.5404 -0.5919
13631TIP3    H262309   5.167   5.503  12.226 -0.2294  0.4739 -0.2183
13632TIP3   OH262310   3.102   5.984   2.256 -0.0970  0.2243 -0.3215
13632TIP3    H162311   3.100   6.033   2.338 -2.5898 -1.0498  0.4742
13632TIP3    H262312   3.108   6.052   2.188 -2.4589  1.6503  0.7735
13633TIP3   OH262313   0.319   1.135  10.854  0.0378 -0.3554  0.3451
13633TIP3    H162314   0.258   1.102  10.788 -0.2047  0.1136  0.3305
13633TIP3    H262315   0.396   1.079  10.845  1.0585  1.2546 -2.0961
13634TIP3   OH262316   0.823   6.129  15.958  0.2117 -0.5295 -0.3127
13634TIP3    H162317   0.746   6.074  15.969 -0.8629  0.5028 -2.0724
13634TIP3    H262318   0.810   6.200  16.021  0.1393 -0.7826 -0.0390
13635TIP3   OH262319   2.736   6.148  16.267  0.4052  0.0732 -0.4372
13635TIP3    H162320   2.782   6.175  16.347 -0.4920  0.5179 -0.0547
13635TIP3    H262321   2.657   6.202  16.266  0.6473  0.4270 -1.9024
13636TIP3   OH262322   2.905   6.384   1.063 -0.0770  0.3469 -0.0060
13636TIP3    H162323   2.951   6.311   1.021  1.7150  0.3940  1.7388
13636TIP3    H262324   2.817   6.350   1.079  0.2766 -0.9081 -0.5440
13637TIP3   OH262325   1.251   1.701  11.862  0.6606 -0.2996  0.2123
13637TIP3    H162326   1.196   1.779  11.855 -1.9472 -2.0412 -0.0026
13637TIP3    H262327   1.209   1.649  11.930  1.8006 -1.9320 -0.2970
13638TIP3   OH262328   4.309   3.078  17.310 -0.6947 -0.4160  0.0088
13638TIP3    H162329   4.303   3.001  17.253  0.6261 -1.9407  1.8038
13638TIP3    H262330   4.220   3.088  17.346 -1.3480  0.1036 -1.6796
13639TIP3   OH262331   5.621   6.760  16.484  0.1481 -0.0398  0.0715
13639TIP3    H162332   5.540   6.716  16.509 -0.0142 -0.6548 -1.4020
13639TIP3    H262333   5.609   6.851  16.512 -1.0480 -0.1331 -0.0838
13640TIP3   OH262334   1.585   4.922  12.410  0.6207  0.2939  0.0327
13640TIP3    H162335   1.647   4.872  12.356  0.0326  0.4954 -0.8643
13640TIP3    H262336   1.616   4.910  12.499 -0.3730 -3.0402  0.1008
13641TIP3   OH262337   1.855   4.678   4.510 -0.0005  0.0729  0.0228
13641TIP3    H162338   1.831   4.597   4.554  1.2728  0.4749  1.5799
13641TIP3    H262339   1.803   4.679   4.430 -0.3093 -2.0910  0.1398
13642TIP3   OH262340   1.926   4.593  12.827  0.0198  0.1857 -0.2832
13642TIP3    H162341   1.917   4.583  12.733  0.6262 -1.6898 -0.1783
13642TIP3    H262342   2.000   4.652  12.838  0.7918 -0.6096 -1.0038
13643TIP3   OH262343   5.896   0.332   4.389  0.2140 -0.0838  0.5509
13643TIP3    H162344   5.896   0.417   4.432  0.0855  0.0719  0.2467
13643TIP3    H262345   5.958   0.279   4.440  0.7712  0.3819  0.3645
13644TIP3   OH262346   2.230   5.860  16.646  0.3612 -0.4227 -0.3726
13644TIP3    H162347   2.173   5.920  16.597  0.5375 -0.6023 -0.8056
13644TIP3    H262348   2.271   5.806  16.578  0.3545 -0.9022 -0.0031
13645TIP3   OH262349   4.984   6.772   3.395  0.1887 -0.2490  0.4498
13645TIP3    H162350   5.022   6.684   3.408  1.3291  0.2051  0.3231
13645TIP3    H262351   4.980   6.809   3.482 -0.5360 -0.5121  0.5349
13646TIP3   OH262352   1.636   2.567  16.892  0.1333 -0.0815 -0.2394
13646TIP3    H162353   1.654   2.661  16.893  0.8869 -0.2082  0.9037
13646TIP3    H262354   1.565   2.557  16.829 -1.0142  1.4533  0.7218
13647TIP3   OH262355   3.544   4.468   4.992  0.5077 -0.0051 -0.1618
13647TIP3    H162356   3.468   4.505   4.949 -0.6376 -1.7098  0.2884
13647TIP3    H262357   3.580   4.539   5.045  0.6793  1.4972 -2.2047
13648TIP3   OH262358   2.452   6.062   2.588 -0.2029 -0.1226 -0.0082
13648TIP3    H162359   2.538   6.029   2.614  0.1450 -0.0847 -1.0761
13648TIP3    H262360   2.439   6.141   2.642  0.6603  0.1688 -0.2210
13649TIP3   OH262361   2.871   0.919   1.394 -0.4373  0.1248  0.0119
13649TIP3    H162362   2.958   0.898   1.428 -0.3718  2.0530  1.1951
13649TIP3    H262363   2.857   0.857   1.322  1.4043 -0.9925  0.5576
13650TIP3   OH262364   3.096   1.342   1.693 -0.3136  0.1011 -0.2442
13650TIP3    H162365   3.189   1.358   1.709  0.9986 -2.7455 -3.6068
13650TIP3    H262366   3.075   1.268   1.750  0.5020 -1.2965 -1.6607
13651TIP3   OH262367   6.086   3.595  12.268  0.4924  0.6282 -0.4698
13651TIP3    H162368   6.170   3.640  12.279  1.0061 -0.1119 -1.2079
13651TIP3    H262369   6.034   3.622  12.343  1.0600  1.8424 -0.4962
13652TIP3   OH262370   6.562   6.305  16.165  0.3464  0.3377  0.0888
13652TIP3    H162371   6.580   6.215  16.192 -0.1614 -0.2399 -1.3794
13652TIP3    H262372   6.637   6.330  16.111 -0.0451  0.3713 -0.4489
13653TIP3   OH262373   1.352   5.545   5.697 -0.2474  0.5460  0.2542
13653TIP3    H162374   1.344   5.639   5.678  0.2821  0.6294  0.4357
13653TIP3    H262375   1.318   5.502   5.619 -2.6091  0.8740  1.0156
13654TIP3   OH262376   3.372   4.085   6.429 -0.2265  0.0150  0.0124
13654TIP3    H162377   3.350   4.084   6.522  1.3351 -0.0063  0.4079
13654TIP3    H262378   3.357   4.175   6.402 -1.9823 -0.2653 -0.0802
13655TIP3   OH262379   4.421   6.417   4.683 -0.4964 -0.2104 -0.1809
13655TIP3    H162380   4.443   6.389   4.772 -1.3362 -1.0419 -0.2163
13655TIP3    H262381   4.505   6.446   4.645 -0.2431  0.7660  1.0768
13656TIP3   OH262382   0.603   1.614   0.900 -0.1537  0.5341  0.0568
13656TIP3    H162383   0.652   1.660   0.968 -0.8346  0.4045  0.6430
13656TIP3    H262384   0.587   1.527   0.937  0.6919 -0.0282 -0.8402
13657TIP3   OH262385   4.633   0.190  17.316  0.3323  0.6741 -0.2155
13657TIP3    H162386   4.664   0.136  17.244 -2.9143 -0.8555 -0.6684
13657TIP3    H262387   4.558   0.238  17.279 -2.3833 -1.2382  2.3228
13658TIP3   OH262388   1.728   1.328  12.116  0.0391 -0.2826 -0.0408
13658TIP3    H162389   1.766   1.396  12.061 -2.4124  1.1389 -0.1436
13658TIP3    H262390   1.744   1.247  12.069  0.6316  0.5640 -1.3449
13659TIP3   OH262391   0.984   2.804  16.795 -0.0329  0.0308 -0.2376
13659TIP3    H162392   1.013   2.782  16.883 -0.1443 -0.4137 -0.3139
13659TIP3    H262393   0.950   2.723  16.759  0.7687  0.0158 -0.9942
13660TIP3   OH262394   2.211   0.969  16.800  0.2150  0.4102  0.5383
13660TIP3    H162395   2.207   1.061  16.825  0.4065  0.9231 -1.1470
13660TIP3    H262396   2.120   0.940  16.798 -0.0156  1.1502 -0.8276
13661TIP3   OH262397   4.805   4.770   5.530 -0.2615  0.3277 -0.0193
13661TIP3    H162398   4.719   4.806   5.508 -0.2075 -0.7661 -2.2146
13661TIP3    H262399   4.792   4.675   5.534  0.9430  0.1019 -0.9048
13662TIP3   OH262400   4.244   1.103   4.499  0.2357 -1.0183 -0.4145
13662TIP3    H162401   4.327   1.146   4.520  1.0864 -2.6788 -0.2115
13662TIP3    H262402   4.261   1.058   4.416 -0.6932 -0.8189 -0.7227
13663TIP3   OH262403   0.645   1.802   5.098 -0.5100  0.2361  0.7116
13663TIP3    H162404   0.577   1.739   5.072 -0.9438  1.8936 -2.8052
13663TIP3    H262405   0.717   1.786   5.037  0.5552  1.2706  1.6484
13664TIP3   OH262406   2.891   1.340  12.971 -0.1628 -0.4009 -0.4878
13664TIP3    H162407   2.915   1.331  12.879  0.2538  0.3770 -0.4677
13664TIP3    H262408   2.944   1.275  13.017 -1.1686 -1.5540 -0.9016
13665TIP3   OH262409   4.064   3.162   0.024 -0.1147 -0.0700 -0.1785
13665TIP3    H162410   4.011   3.083   0.027 -2.6897  1.4483 -1.9027
13665TIP3    H262411   4.075   3.187   0.116 -1.1952 -1.1995  0.2835
13666TIP3   OH262412   2.974   1.605  14.074  0.1572 -0.5479 -0.0044
13666TIP3    H162413   3.029   1.555  14.134  1.3505 -1.4654 -1.7781
13666TIP3    H262414   2.886   1.567  14.084  0.4797 -1.1360  0.6552
13667TIP3   OH262415   5.502   0.579   0.825 -0.2418  0.1602 -0.4088
13667TIP3    H162416   5.545   0.530   0.896 -1.1538 -1.5645 -1.0185
13667TIP3    H262417   5.572   0.593   0.761  0.0419 -0.2950 -0.2081
13668TIP3   OH262418   4.011   6.427   4.838  0.2331  0.2111 -0.4070
13668TIP3    H162419   4.051   6.433   4.751 -0.3401  0.5006 -0.6609
13668TIP3    H262420   4.072   6.472   4.896  1.1572 -0.9210 -0.4529
13669TIP3   OH262421   3.837   6.291   3.571  0.0381  0.3566 -0.4360
13669TIP3    H162422   3.795   6.251   3.647 -1.2351  2.0248 -0.2242
13669TIP3    H262423   3.835   6.222   3.504 -2.5184  0.1529 -0.2321
13670TIP3   OH262424   5.822   6.082  12.328  0.1620  0.0857 -0.0821
13670TIP3    H162425   5.900   6.029  12.343  0.5641  0.7651  0.2872
13670TIP3    H262426   5.805   6.074  12.234  1.6381  1.2194 -0.4742
13671TIP3   OH262427   1.668   3.683   2.444 -0.8426 -0.5603  0.5123
13671TIP3    H162428   1.614   3.605   2.452 -0.7902 -0.6254  0.2485
13671TIP3    H262429   1.746   3.654   2.396  0.0412 -0.7708  1.9956
13672TIP3   OH262430   4.708   4.600   0.025 -0.4290 -0.0398 -0.3741
13672TIP3    H162431   4.757   4.534  -0.024 -2.0767 -0.6921 -1.2424
13672TIP3    H262432   4.726   4.682  -0.020 -0.8496 -0.4249 -1.2702
13673TIP3   OH262433   5.769   2.146  10.756  0.0274  0.2373 -0.0453
13673TIP3    H162434   5.707   2.131  10.685  0.2546  0.1546 -0.2269
13673TIP3    H262435   5.734   2.098  10.830  0.7833 -1.2554 -0.6280
13674TIP3   OH262436   3.722   5.648  16.757  0.9125 -0.6944  0.0242
13674TIP3    H162437   3.767   5.623  16.676 -0.0979 -1.3797 -0.3554
13674TIP3    H262438   3.695   5.738  16.743  2.3007 -0.2067  0.3366
13675TIP3   OH262439   5.051   0.007  12.292 -0.2646  0.2558  0.6834
13675TIP3    H162440   5.099  -0.027  12.217 -0.8737  1.1961 -0.1627
13675TIP3    H262441   5.101   0.083  12.321 -1.4169  1.5106 -0.4848
13676TIP3   OH262442   2.394   0.202  12.167  0.6737 -0.7711  0.3086
13676TIP3    H162443   2.322   0.254  12.204 -0.2424 -2.4065  0.9431
13676TIP3    H262444   2.451   0.267  12.125 -0.6605  0.6812  0.6195
13677TIP3   OH262445   0.493   6.458   2.146  0.2079  1.2883  0.2317
13677TIP3    H162446   0.562   6.392   2.135  1.2870  1.9460  2.3446
13677TIP3    H262447   0.413   6.414   2.119  1.2446  0.0275 -0.9747
13678TIP3   OH262448   3.174   2.200   5.946 -0.2841  0.7225  0.1843
13678TIP3    H162449   3.143   2.134   5.884  0.9115 -0.5094  0.8455
13678TIP3    H262450   3.147   2.283   5.907 -0.7669 -0.0736 -1.2848
13679TIP3   OH262451   6.605   1.399   6.193 -0.0903  0.3536 -0.7773
13679TIP3    H162452   6.531   1.339   6.184 -0.9002  1.3557 -0.9065
13679TIP3    H262453   6.668   1.369   6.127 -0.6445 -0.1144 -1.1051
13680TIP3   OH262454   6.173   4.566  13.262  0.4160 -0.0751 -0.2854
13680TIP3    H162455   6.243   4.514  13.223 -1.1042 -0.6149 -2.5103
13680TIP3    H262456   6.143   4.623  13.191 -1.1789  0.3368  0.6715
13681TIP3   OH262457   5.863   2.747  14.631  0.6100  0.4270 -0.4766
13681TIP3    H162458   5.884   2.816  14.694 -0.4389 -0.6488  1.1101
13681TIP3    H262459   5.884   2.786  14.546  1.0445  2.3127  0.4321
13682TIP3   OH262460   6.451   0.911  16.183  0.1369  0.0807  0.0192
13682TIP3    H162461   6.429   0.819  16.168  0.3745 -0.2963  1.7276
13682TIP3    H262462   6.390   0.940  16.250 -2.7549  2.4742 -3.2896
13683TIP3   OH262463   6.337   3.832   4.725  0.4260 -0.5279 -0.6591
13683TIP3    H162464   6.292   3.916   4.739  1.0121 -0.4875  1.2845
13683TIP3    H262465   6.325   3.814   4.632 -3.0643 -0.1995 -0.4326
13684TIP3   OH262466   2.574   0.664  15.869 -0.1506  0.1019  0.0036
13684TIP3    H162467   2.649   0.627  15.823  0.9185  1.7128  0.3603
13684TIP3    H262468   2.561   0.605  15.943  0.8405 -0.1604 -0.0130
13685TIP3   OH262469   2.048   2.797   4.019 -0.3270 -0.0270 -0.0351
13685TIP3    H162470   2.139   2.782   3.992 -0.7711  0.3506 -1.9264
13685TIP3    H262471   2.054   2.840   4.104  1.2050 -1.6662  0.7349
13686TIP3   OH262472   3.154   2.074   2.309  0.0605  0.4271 -0.2615
13686TIP3    H162473   3.095   2.003   2.334  0.2745  0.7089  1.1124
13686TIP3    H262474   3.124   2.150   2.359  0.3619  1.0870 -1.0602
13687TIP3   OH262475   0.581   3.316  11.400  0.2123 -0.3312  0.0818
13687TIP3    H162476   0.532   3.344  11.477 -0.8088  0.1103 -0.7044
13687TIP3    H262477   0.521   3.259  11.353  0.2447  0.6334 -1.1702
13688TIP3   OH262478   4.491   1.647   0.706 -0.3930 -0.3473  0.7027
13688TIP3    H162479   4.431   1.716   0.679 -2.7199 -2.8864 -1.1768
13688TIP3    H262480   4.467   1.627   0.796 -0.5215  0.4326  0.8463
13689TIP3   OH262481   4.938   4.083   3.787  0.0186 -0.0968  0.1993
13689TIP3    H162482   4.927   3.988   3.797 -0.4593 -0.0905 -0.2693
13689TIP3    H262483   4.886   4.121   3.858 -0.9651 -0.1457 -0.4826
13690TIP3   OH262484   4.710   3.832  11.317 -0.0664  0.0859  0.0459
13690TIP3    H162485   4.734   3.785  11.397 -0.0078 -1.9592 -1.1005
13690TIP3    H262486   4.770   3.799  11.251  0.6774  2.6101 -0.6484
13691TIP3   OH262487   0.961   1.032  15.657 -0.5978  0.3705 -0.0214
13691TIP3    H162488   1.010   0.950  15.657  0.8287  1.1689  1.1501
13691TIP3    H262489   0.941   1.048  15.750 -0.8885  1.3324 -0.2405
13692TIP3   OH262490   5.941   1.664  13.794 -0.4048 -0.3801 -0.6132
13692TIP3    H162491   5.934   1.617  13.711  0.7662 -1.8817  0.1054
13692TIP3    H262492   5.850   1.675  13.822 -0.7425 -1.7963 -1.0547
13693TIP3   OH262493   1.359   4.345  14.250 -0.4612 -0.3223  0.5018
13693TIP3    H162494   1.390   4.294  14.324  3.4817 -2.4518 -2.2377
13693TIP3    H262495   1.386   4.435  14.270  0.8239 -0.9120  1.5785
13694TIP3   OH262496   3.315   1.324  16.263 -0.2975 -0.4142  0.1646
13694TIP3    H162497   3.256   1.250  16.249 -1.1105  0.0115  1.1535
13694TIP3    H262498   3.268   1.380  16.326  0.2475  0.9833 -0.6328
13695TIP3   OH262499   1.910   6.707   4.455 -0.4011  0.4823  0.4678
13695TIP3    H162500   1.879   6.788   4.414 -1.0678 -0.0522 -0.1050
13695TIP3    H262501   1.891   6.720   4.548 -1.5706  0.5396  0.2419
13696TIP3   OH262502   1.726   4.917   2.257 -0.1456 -0.0282  0.4583
13696TIP3    H162503   1.753   4.856   2.188 -0.6716  1.0164 -0.6926
13696TIP3    H262504   1.652   4.872   2.300 -0.1578 -0.4480  0.0088
13697TIP3   OH262505   5.346   3.009  15.130  0.4732 -0.5592 -0.0116
13697TIP3    H162506   5.282   2.942  15.154  1.2011 -0.6816  1.7141
13697TIP3    H262507   5.344   3.010  15.035 -0.8670 -1.7481 -0.0373
13698TIP3   OH262508   0.675   6.465  13.736 -1.0429 -0.0838  0.6550
13698TIP3    H162509   0.728   6.386  13.750 -0.3232  0.3740  0.6063
13698TIP3    H262510   0.585   6.438  13.754 -0.9718 -1.2304 -0.5670
13699TIP3   OH262511   3.700   3.963  15.192 -0.0615 -0.1931  0.5515
13699TIP3    H162512   3.653   4.037  15.153 -0.9962 -0.7872  0.5161
13699TIP3    H262513   3.631   3.908  15.230  0.4961 -1.7423 -0.5983
13700TIP3   OH262514   1.606   1.691   1.631  0.0192  0.0360 -0.2226
13700TIP3    H162515   1.518   1.713   1.601  0.4970  0.0794 -1.6661
13700TIP3    H262516   1.661   1.702   1.553  1.4026  0.6184  0.7946
13701TIP3   OH262517   0.796   1.876   0.646  0.2137 -0.2462  0.0109
13701TIP3    H162518   0.876   1.868   0.593  1.8633  1.0239  2.1216
13701TIP3    H262519   0.759   1.788   0.648  1.9423 -1.0297 -0.5127
13702TIP3   OH262520   3.058   0.434  13.929 -0.1739  0.3714  0.6130
13702TIP3    H162521   3.067   0.490  14.006  0.1788  0.8291  0.2426
13702TIP3    H262522   2.967   0.446  13.902 -0.2761  0.2758  0.9002
13703TIP3   OH262523   5.437   1.530  14.141  0.2581 -0.1286  0.6309
13703TIP3    H162524   5.366   1.586  14.174  2.6492  4.2493 -0.7664
13703TIP3    H262525   5.403   1.497  14.058 -1.1321 -0.5034  1.3185
13704TIP3   OH262526   0.436   0.976  12.286  0.0176 -0.1408  0.0705
13704TIP3    H162527   0.404   0.886  12.289  2.7724 -1.1715  0.9742
13704TIP3    H262528   0.457   0.998  12.377  0.6884  0.9229 -0.3162
13705TIP3   OH262529   1.625   5.692  11.951  0.1528 -0.2736 -0.1311
13705TIP3    H162530   1.704   5.745  11.964  0.0769 -0.1225 -0.2857
13705TIP3    H262531   1.554   5.755  11.950  0.2773 -0.0485 -2.9738
13706TIP3   OH262532   4.494   0.669   2.759  0.1353  0.7853 -0.0638
13706TIP3    H162533   4.471   0.656   2.667 -0.1193 -2.1183  0.3077
13706TIP3    H262534   4.410   0.678   2.803  0.2507  1.9188 -0.0352
13707TIP3   OH262535   0.022   3.392   2.005  0.1247  0.2806  0.4897
13707TIP3    H162536  -0.004   3.463   1.947 -0.3613 -1.4862 -1.5875
13707TIP3    H262537   0.118   3.392   2.003  0.1165  0.6144  0.1618
13708TIP3   OH262538   3.555   6.414   4.076  0.0677 -0.1379  0.3703
13708TIP3    H162539   3.625   6.478   4.088 -0.0017  0.4136 -1.7513
13708TIP3    H262540   3.518   6.403   4.164  2.8225 -0.5371  1.6116
13709TIP3   OH262541   3.184   6.760   4.609  0.9348  0.5749  0.0280
13709TIP3    H162542   3.190   6.671   4.645  1.5085  0.1082 -1.1754
13709TIP3    H262543   3.092   6.783   4.619  0.4251 -0.8135 -1.1101
13710TIP3   OH262544   1.244   1.291  12.109  0.1225  0.0897 -0.1815
13710TIP3    H162545   1.267   1.238  12.185  1.2686  0.4999 -0.2328
13710TIP3    H262546   1.155   1.263  12.087 -0.6989  0.7696  1.9875
13711TIP3   OH262547   1.485   4.611  14.297  0.5356  0.0017  0.3238
13711TIP3    H162548   1.505   4.690  14.247 -0.6563  0.2132  0.1414
13711TIP3    H262549   1.470   4.642  14.386 -2.0397  0.3448 -0.1510
13712TIP3   OH262550   4.630   2.668  16.214 -0.1965 -0.7114  0.2649
13712TIP3    H162551   4.595   2.722  16.143 -0.7972 -0.0527  1.0470
13712TIP3    H262552   4.725   2.669  16.199 -0.2416  0.0848 -0.0687
13713TIP3   OH262553   5.739   6.756  17.244 -0.0441  0.2973 -0.4010
13713TIP3    H162554   5.654   6.733  17.282 -0.6209  1.6061 -0.8307
13713TIP3    H262555   5.766   6.678  17.196 -0.1122 -0.7770  1.2503
13714TIP3   OH262556   3.801   6.357  15.667  0.3723  0.2638 -0.0478
13714TIP3    H162557   3.798   6.441  15.620  1.4759  0.6397  0.4876
13714TIP3    H262558   3.877   6.312  15.629 -0.7261 -0.8927 -0.9336
13715TIP3   OH262559   0.975   4.679  13.964 -0.1744  0.1651 -0.2770
13715TIP3    H162560   1.012   4.619  14.029 -0.2620  1.3747  0.9263
13715TIP3    H262561   1.016   4.764  13.982 -1.7686  1.0092 -0.4230
13716TIP3   OH262562   3.858   0.182   1.638 -0.1220  0.1954  0.6692
13716TIP3    H162563   3.891   0.105   1.685  0.4101  0.5531  0.8841
13716TIP3    H262564   3.860   0.252   1.702  0.6465  0.7008  0.1036
13717TIP3   OH262565   0.072   6.594   1.180  0.5105  0.5278 -0.0110
13717TIP3    H162566   0.020   6.604   1.259  1.2977  0.8554  0.4795
13717TIP3    H262567   0.155   6.556   1.210  0.9129  0.8794 -0.6294
13718TIP3   OH262568   0.836   4.119   4.379  0.2399  0.7262  0.3202
13718TIP3    H162569   0.929   4.127   4.396  0.6881  1.6349 -2.1458
13718TIP3    H262570   0.795   4.184   4.436  0.9337 -0.3834  2.1865
13719TIP3   OH262571   1.055   4.345   6.552 -0.1961 -0.0579  0.0305
13719TIP3    H162572   1.129   4.396   6.519  2.2702 -2.2495  1.8221
13719TIP3    H262573   0.983   4.408   6.555  1.8178  2.4645 -0.8278
13720TIP3   OH262574   6.093   0.567   6.339 -0.3046  0.9559 -0.6871
13720TIP3    H162575   6.099   0.655   6.301 -1.3774  0.1589 -2.9060
13720TIP3    H262576   6.136   0.574   6.424  0.1418  3.4757 -1.0492
13721TIP3   OH262577   5.673   6.464  15.660  0.6356 -0.8463 -0.4476
13721TIP3    H162578   5.663   6.550  15.700  2.3467 -0.5647 -0.5615
13721TIP3    H262579   5.584   6.428  15.658 -0.0617  0.7758 -0.1181
13722TIP3   OH262580   4.300   1.039  17.001  0.2455  0.1187 -0.5393
13722TIP3    H162581   4.241   0.966  16.985 -0.6747  0.4201  1.2087
13722TIP3    H262582   4.383   1.012  16.961 -0.6109 -1.0278 -1.5984
13723TIP3   OH262583   3.430   6.038   2.201 -0.0319  0.3668 -0.1875
13723TIP3    H162584   3.444   6.128   2.232 -0.0700  0.0062  0.9072
13723TIP3    H262585   3.335   6.026   2.207 -0.4154  1.1990 -3.0829
13724TIP3   OH262586   2.970   0.532   6.783 -0.4500 -0.8101  0.0698
13724TIP3    H162587   2.884   0.574   6.785  0.1887  0.6264 -0.7537
13724TIP3    H262588   2.954   0.441   6.809 -1.7582  0.1416  2.9228
13725TIP3   OH262589   1.135   6.539   1.329 -0.1700 -0.3343 -0.2648
13725TIP3    H162590   1.194   6.593   1.277 -0.1576  0.5257  0.6128
13725TIP3    H262591   1.193   6.491   1.389 -0.3048  0.0741  0.2022
13726TIP3   OH262592   6.423   0.714   2.987 -0.1648  0.4224  0.0483
13726TIP3    H162593   6.443   0.661   2.910  2.0914  1.3251 -0.0660
13726TIP3    H262594   6.413   0.650   3.058  1.5210 -0.2458 -0.2752
13727TIP3   OH262595   4.193   2.901  15.814  0.1180  0.6824 -0.0181
13727TIP3    H162596   4.273   2.882  15.863 -0.4260  1.4611  1.2213
13727TIP3    H262597   4.122   2.879  15.874 -0.6085  0.1277 -1.0544
13728TIP3   OH262598   0.938   1.062   1.600  0.0868  0.0138 -0.2336
13728TIP3    H162599   0.959   0.983   1.551 -1.1598  0.0995 -0.9402
13728TIP3    H262600   0.999   1.128   1.565  1.0575 -0.5921  0.2893
13729TIP3   OH262601   0.271   4.608   2.734 -0.0546 -0.1075  0.9339
13729TIP3    H162602   0.203   4.673   2.751 -1.1586 -0.5318 -1.5298
13729TIP3    H262603   0.323   4.646   2.663 -1.0557 -2.0644 -0.9526
13730TIP3   OH262604   5.219   1.712  14.831 -0.5776 -0.1399 -0.4114
13730TIP3    H162605   5.166   1.640  14.863 -1.1378 -0.6780 -2.3830
13730TIP3    H262606   5.181   1.791  14.869 -0.1642 -0.8227  1.4974
13731TIP3   OH262607   1.575   1.087   2.461  0.2560  0.5138  0.0693
13731TIP3    H162608   1.662   1.048   2.477  0.4025  0.1928 -1.3942
13731TIP3    H262609   1.520   1.012   2.437  0.2974  1.0350 -1.8117
13732TIP3   OH262610   1.108   4.952   1.284  0.0413 -0.2669 -0.3116
13732TIP3    H162611   1.063   4.958   1.200 -0.5835 -1.0861 -0.0453
13732TIP3    H262612   1.065   5.016   1.340  0.9245  0.7929 -0.8024
13733TIP3   OH262613   1.337   1.261   0.681  0.3083  0.2999  0.2045
13733TIP3    H162614   1.368   1.202   0.751 -1.3475 -0.8239  0.0394
13733TIP3    H262615   1.388   1.341   0.694  0.4711 -0.0824  2.3401
13734TIP3   OH262616   1.811   4.123  12.347 -0.1738  0.5184 -0.1903
13734TIP3    H162617   1.850   4.039  12.370  0.1925  0.1818 -1.9397
13734TIP3    H262618   1.717   4.104  12.338 -0.0468  0.2116 -0.9169
13735TIP3   OH262619   1.326   2.200   0.071  0.5361 -0.0664  0.5037
13735TIP3    H162620   1.237   2.217   0.104  0.6056  0.3851  0.4711
13735TIP3    H262621   1.383   2.234   0.140  0.6926 -0.9861  0.8389
13736TIP3   OH262622   3.018   1.917  13.625 -0.1558 -0.2532  0.3914
13736TIP3    H162623   3.105   1.929  13.586  0.5912  0.0086  2.0519
13736TIP3    H262624   3.023   1.830  13.666 -1.4006 -1.1419 -1.2046
13737TIP3   OH262625   2.453   5.510   0.462  0.2882  0.7415  0.1277
13737TIP3    H162626   2.441   5.421   0.497  0.0410  0.8696  0.3807
13737TIP3    H262627   2.395   5.564   0.516  1.6093  1.3188  1.0190
13738TIP3   OH262628   3.981   4.208  15.860 -0.1396 -0.5592 -0.1755
13738TIP3    H162629   4.063   4.214  15.812 -0.3798 -0.1196 -0.5357
13738TIP3    H262630   3.964   4.297  15.891 -0.2437 -0.7394  0.2912
13739TIP3   OH262631   0.731   1.221   3.488 -0.8483  0.9214 -0.6051
13739TIP3    H162632   0.711   1.267   3.569 -0.4534  0.8768 -0.4796
13739TIP3    H262633   0.827   1.226   3.480 -0.9483  1.7881 -1.5695
13740TIP3   OH262634   5.545   5.444   0.185  0.5114 -0.2532  0.0420
13740TIP3    H162635   5.620   5.500   0.163 -0.6604  0.9526 -1.0734
13740TIP3    H262636   5.506   5.423   0.100 -0.4608 -0.8196  0.6170
13741TIP3   OH262637   3.529   5.227  11.995  0.4832 -0.5674 -0.4184
13741TIP3    H162638   3.453   5.171  12.009  0.8707 -1.0835 -0.3545
13741TIP3    H262639   3.504   5.282  11.921 -0.3947  0.0704  0.3239
13742TIP3   OH262640   1.220   1.754  15.617  0.0827 -0.4242 -0.6560
13742TIP3    H162641   1.247   1.719  15.532  0.6829 -0.6856 -0.3684
13742TIP3    H262642   1.141   1.704  15.640  0.1274 -0.6074 -0.8968
13743TIP3   OH262643   4.360   4.113  11.452 -0.2160  0.0733  0.8159
13743TIP3    H162644   4.277   4.095  11.409 -0.3133 -0.3415  1.1683
13743TIP3    H262645   4.414   4.153  11.384  0.5626 -2.9641 -0.5109
13744TIP3   OH262646   4.832   2.172   1.360 -0.2725 -0.5954 -0.5652
13744TIP3    H162647   4.893   2.136   1.424  0.7263 -0.9296 -1.6821
13744TIP3    H262648   4.763   2.106   1.352  1.2912 -2.1151 -2.2300
13745TIP3   OH262649   2.678   4.326  13.345 -0.4893  0.6369 -0.1827
13745TIP3    H162650   2.753   4.329  13.286 -0.2129 -0.9313  0.0568
13745TIP3    H262651   2.706   4.272  13.418 -1.0868  1.9350  1.0557
13746TIP3   OH262652   4.222   4.293  14.855 -0.1252  0.7202  0.3801
13746TIP3    H162653   4.196   4.346  14.779  1.4691 -0.6624 -1.2389
13746TIP3    H262654   4.144   4.288  14.909 -1.0898  2.4456 -0.7528
13747TIP3   OH262655   1.575   3.275   5.389  0.4156 -0.2946  0.1659
13747TIP3    H162656   1.608   3.226   5.463 -0.3543  0.6234  1.1560
13747TIP3    H262657   1.503   3.328   5.425 -1.5065 -1.4916 -1.6717
13748TIP3   OH262658   5.138   0.465  14.690 -0.3606  0.4688 -0.0769
13748TIP3    H162659   5.091   0.383  14.675 -1.1510  1.0756 -1.0204
13748TIP3    H262660   5.230   0.440  14.690 -0.5113 -0.1998 -1.9259
13749TIP3   OH262661   3.100   4.134   2.423 -0.2594 -0.0312 -0.1313
13749TIP3    H162662   3.145   4.097   2.347 -0.4021 -0.4203 -0.0292
13749TIP3    H262663   3.009   4.142   2.396 -0.3749 -0.4727  0.0969
13750TIP3   OH262664   0.101   4.904  15.080  0.2261  0.0538  0.0135
13750TIP3    H162665   0.071   4.815  15.059 -1.1651  0.3159  0.7757
13750TIP3    H262666   0.023   4.949  15.112  0.8156  1.6954 -0.7594
13751TIP3   OH262667   6.084   5.990  14.935 -0.6038  0.6767 -0.2772
13751TIP3    H162668   6.146   6.044  14.886  0.9199 -1.6019 -1.0410
13751TIP3    H262669   6.138   5.921  14.973 -2.4516 -0.3399  0.6253
13752TIP3   OH262670   5.210   2.507   2.237  0.5287 -0.0585  0.8035
13752TIP3    H162671   5.174   2.463   2.315  0.2555  0.8389  1.1989
13752TIP3    H262672   5.233   2.594   2.268 -1.6161  1.0839 -0.6209
13753TIP3   OH262673   6.078   5.167  14.044  0.2236 -0.1549 -0.2148
13753TIP3    H162674   6.066   5.075  14.065  0.9809 -0.5252 -1.3509
13753TIP3    H262675   5.990   5.200  14.026 -0.1046 -0.5240  0.6585
13754TIP3   OH262676   6.653   2.837   5.130 -0.1111 -0.1472  0.0088
13754TIP3    H162677   6.692   2.890   5.061 -0.5457  1.6292  1.0574
13754TIP3    H262678   6.558   2.843   5.115 -0.1443 -2.0546 -0.8333
13755TIP3   OH262679   5.509   4.358  16.310 -1.0178  0.6015  0.1266
13755TIP3    H162680   5.473   4.429  16.257  0.6389  1.2503 -0.1949
13755TIP3    H262681   5.595   4.389  16.336 -0.4401 -1.1078  0.3721
13756TIP3   OH262682   2.212   4.788   1.166 -0.3751 -0.0651  0.4776
13756TIP3    H162683   2.128   4.826   1.192  0.6181  3.5105 -0.9141
13756TIP3    H262684   2.272   4.814   1.236 -0.1789 -1.6709  0.9308
13757TIP3   OH262685   1.411   4.881   2.040  0.0055 -0.1366  0.1967
13757TIP3    H162686   1.450   4.942   2.102  0.9763  0.2671 -0.7828
13757TIP3    H262687   1.446   4.907   1.955 -2.1522  0.0340 -0.6966
13758TIP3   OH262688   1.253   5.639   4.371  0.1256 -0.5459  0.6361
13758TIP3    H162689   1.331   5.587   4.390  0.6933 -0.0125 -0.1541
13758TIP3    H262690   1.262   5.663   4.278 -1.8169 -1.8682  0.0553
13759TIP3   OH262691   3.920   0.407  17.173 -0.4416 -0.7141  0.7730
13759TIP3    H162692   3.945   0.316  17.158 -0.4696 -0.7471  0.9211
13759TIP3    H262693   3.994   0.445  17.220  0.9240  0.1619 -1.8856
13760TIP3   OH262694   2.471   4.110  12.829 -0.2361 -0.1659  0.2267
13760TIP3    H162695   2.448   4.060  12.907  1.4502  1.6701  2.0086
13760TIP3    H262696   2.538   4.057  12.785 -1.7966 -1.6054 -0.4941
13761TIP3   OH262697   6.196   3.096  15.865  0.6197  0.2294 -0.0954
13761TIP3    H162698   6.121   3.038  15.859  0.1564  0.9203 -1.4551
13761TIP3    H262699   6.159   3.184  15.861  1.3825  0.6163  0.9656
13762TIP3   OH262700   3.191   1.188  13.643 -0.8876  0.1765 -0.2587
13762TIP3    H162701   3.119   1.136  13.678 -1.6075  2.1777  1.4694
13762TIP3    H262702   3.234   1.224  13.720 -0.0477  1.6182 -1.3497
13763TIP3   OH262703   4.388   2.910   5.385 -0.3834 -0.0996  1.1220
13763TIP3    H162704   4.351   2.884   5.470 -2.2783 -0.1404  0.3342
13763TIP3    H262705   4.359   3.000   5.373 -0.7950 -0.3499  0.1755
13764TIP3   OH262706   0.330   2.408   5.740 -0.5020  0.2905 -0.7931
13764TIP3    H162707   0.298   2.477   5.798 -0.8078  2.2206 -3.0793
13764TIP3    H262708   0.281   2.422   5.658  0.8597 -1.4044 -1.9588
13765TIP3   OH262709   6.712   2.094  12.648  0.3396  0.2395 -0.3654
13765TIP3    H162710   6.753   2.107  12.733  1.1771 -1.5056 -0.4618
13765TIP3    H262711   6.624   2.062  12.668  0.2682  0.5512 -0.1698
13766TIP3   OH262712   2.127   5.493  15.426 -0.3028 -0.5225 -0.1692
13766TIP3    H162713   2.059   5.550  15.462  0.6299 -0.4673  1.6139
13766TIP3    H262714   2.115   5.498  15.331 -1.6809  0.8247  0.0383
13767TIP3   OH262715   4.667   1.608   6.442  0.0381  0.3214 -0.2703
13767TIP3    H162716   4.599   1.559   6.397 -0.3233 -0.9595  1.5447
13767TIP3    H262717   4.648   1.700   6.422 -0.7901 -0.1262 -1.6956
13768TIP3   OH262718   3.151   5.845   0.763  0.4006 -0.5163 -0.2205
13768TIP3    H162719   3.203   5.897   0.825 -2.4367  2.6369 -0.2201
13768TIP3    H262720   3.140   5.901   0.687 -0.6593 -2.2106 -1.3922
13769TIP3   OH262721   4.587   5.395  15.019 -0.1215 -0.1653  1.0686
13769TIP3    H162722   4.526   5.342  15.070  0.0533 -2.0060 -0.5139
13769TIP3    H262723   4.611   5.339  14.945  0.3184  2.0456 -0.5522
13770TIP3   OH262724   0.230   6.455  10.877  0.3091 -0.1716  0.1493
13770TIP3    H162725   0.171   6.380  10.874 -1.2599  0.9888 -3.2940
13770TIP3    H262726   0.173   6.531  10.870  2.0550  1.1276 -0.8760
13771TIP3   OH262727   5.159   0.106  11.626 -0.1242 -0.0775  0.3806
13771TIP3    H162728   5.149   0.062  11.542 -2.2502  0.9861 -0.0012
13771TIP3    H262729   5.077   0.088  11.673  1.0639 -0.7634  2.3203
13772TIP3   OH262730   4.033   6.622   4.337  0.8986 -0.4015  0.1528
13772TIP3    H162731   4.006   6.563   4.407  0.8532 -2.6469 -1.6162
13772TIP3    H262732   4.048   6.564   4.262  3.7711  1.4890 -0.9269
13773TIP3   OH262733   1.053   6.556  13.248  0.4053 -0.1600  0.6708
13773TIP3    H162734   1.109   6.480  13.261  2.7237  1.4437  0.6517
13773TIP3    H262735   1.024   6.579  13.337 -0.7804 -1.3320  0.6220
13774TIP3   OH262736   1.298   5.386   5.454  0.4613  0.4001  0.7108
13774TIP3    H162737   1.206   5.402   5.475  0.6991  0.3264  1.8918
13774TIP3    H262738   1.314   5.296   5.483  1.0529  0.6166  1.0883
13775TIP3   OH262739   0.784   2.001  10.802 -0.2269 -0.0414  0.5053
13775TIP3    H162740   0.826   2.086  10.805 -0.5114  0.1108  0.2663
13775TIP3    H262741   0.837   1.946  10.860 -0.2318  0.3815  0.9215
13776TIP3   OH262742   6.534   5.294  16.307 -0.2329  0.1857  0.2742
13776TIP3    H162743   6.586   5.221  16.342  0.3210  1.0360  1.2830
13776TIP3    H262744   6.469   5.312  16.375  0.0069  1.0067  0.2976
13777TIP3   OH262745   1.720   1.004  12.839 -0.2148 -1.0949 -0.2805
13777TIP3    H162746   1.750   0.997  12.929 -1.5992  2.6364  0.6485
13777TIP3    H262747   1.636   0.958  12.838 -1.3784  0.8407  1.1036
13778TIP3   OH262748   0.771   3.456  16.283  0.4449 -0.1878 -0.0934
13778TIP3    H162749   0.702   3.497  16.336 -0.7765 -0.7303 -1.2012
13778TIP3    H262750   0.845   3.448  16.342 -1.1969 -1.7570  1.9057
13779TIP3   OH262751   6.750   0.154  16.253  0.0006 -0.9485 -0.0796
13779TIP3    H162752   6.724   0.129  16.164 -1.5814 -1.5511  0.5013
13779TIP3    H262753   6.845   0.150  16.252  0.0112 -1.0453 -1.7217
13780TIP3   OH262754   0.829   5.827  11.232  0.2140 -0.6194  0.1635
13780TIP3    H162755   0.838   5.731  11.234  0.2494 -0.6079  0.8645
13780TIP3    H262756   0.900   5.856  11.174  0.3080 -1.0038  0.0817
13781TIP3   OH262757   2.051   3.074   5.506 -0.0513  0.4022  0.4778
13781TIP3    H162758   1.961   3.068   5.474  0.1222 -1.6684  0.2253
13781TIP3    H262759   2.094   2.997   5.470  1.6550  0.9926  1.1557
13782TIP3   OH262760   0.454   5.613   1.465 -0.0353  0.2239  0.1454
13782TIP3    H162761   0.525   5.645   1.521  2.2775 -2.2086 -1.2134
13782TIP3    H262762   0.437   5.686   1.405  0.0710  1.4605  1.5388
13783TIP3   OH262763   1.894   5.338   2.644  0.0485 -0.0207 -0.2214
13783TIP3    H162764   1.903   5.290   2.562  0.8579  0.6565 -0.5474
13783TIP3    H262765   1.980   5.330   2.686 -0.3751 -0.4029  0.5863
13784TIP3   OH262766   2.314   4.787   6.456 -0.5083  0.8465  0.5014
13784TIP3    H162767   2.237   4.771   6.402  0.0369 -0.9575  0.1835
13784TIP3    H262768   2.365   4.707   6.448  0.0503  0.8977  2.9594
13785TIP3   OH262769   2.532   5.773  11.651 -0.0769  0.1690 -0.1736
13785TIP3    H162770   2.558   5.787  11.560 -0.9907 -1.3110 -0.7033
13785TIP3    H262771   2.610   5.794  11.702  0.4096  1.1454 -1.2774
13786TIP3   OH262772   2.250   5.918  14.317 -0.2501 -0.2088  0.1121
13786TIP3    H162773   2.295   5.997  14.287  0.4177 -0.4442  0.4939
13786TIP3    H262774   2.311   5.846  14.298 -1.0110 -0.6970 -0.6121
13787TIP3   OH262775   3.106   4.943  13.528  0.3643  0.1457  0.1125
13787TIP3    H162776   3.044   5.013  13.508  0.6640  0.3131 -0.2444
13787TIP3    H262777   3.177   4.987  13.575 -1.0079 -0.4723  2.9393
13788TIP3   OH262778   0.274   5.960   1.113 -0.6439 -0.1749  0.2510
13788TIP3    H162779   0.281   6.020   1.038  2.1070 -0.6362  0.0271
13788TIP3    H262780   0.238   5.879   1.076 -2.0733  0.5111  0.0722
13789TIP3   OH262781   2.984   6.155   5.958 -0.3295 -0.0114  0.1017
13789TIP3    H162782   3.014   6.092   6.023 -1.5984  0.5528  1.2808
13789TIP3    H262783   2.918   6.107   5.907 -0.7108  0.1150  0.4736
13790TIP3   OH262784   0.898   3.162  11.039 -0.0289 -0.0589  0.0073
13790TIP3    H162785   0.933   3.215  10.968  0.7476 -2.4047 -1.4531
13790TIP3    H262786   0.835   3.104  10.997  0.8438 -1.8794  1.0891
13791TIP3   OH262787   5.837   4.070   2.043 -0.2601 -0.2117  0.0975
13791TIP3    H162788   5.910   4.011   2.026 -0.2059 -0.2182  0.3491
13791TIP3    H262789   5.842   4.136   1.974 -0.6609 -0.8208 -0.5299
13792TIP3   OH262790   4.477   3.728   5.525 -0.2306  0.2433 -0.6865
13792TIP3    H162791   4.414   3.799   5.529 -0.5906 -0.1078 -0.0303
13792TIP3    H262792   4.450   3.666   5.593  1.6027  0.7393  0.5846
13793TIP3   OH262793   3.357   4.007  12.282  0.1580 -0.9537  0.6179
13793TIP3    H162794   3.452   4.003  12.292  0.4321  1.7125 -0.1210
13793TIP3    H262795   3.322   3.971  12.364  1.8342 -0.3256  1.6536
13794TIP3   OH262796   6.036   6.512  13.096 -0.4082 -0.6536  0.7893
13794TIP3    H162797   6.002   6.601  13.085 -0.4648 -0.6824  0.7276
13794TIP3    H262798   6.063   6.507  13.187 -1.5072 -0.9602  1.1049
13795TIP3   OH262799   4.362   2.407  15.899 -0.6884  0.4533  0.1675
13795TIP3    H162800   4.311   2.328  15.916 -0.5590  0.2181 -0.5173
13795TIP3    H262801   4.453   2.379  15.904 -0.4874 -0.6236 -4.7347
13796TIP3   OH262802   6.619   0.637   4.863 -0.5177  0.4520  0.0039
13796TIP3    H162803   6.653   0.591   4.787  1.0945 -0.2603  1.0871
13796TIP3    H262804   6.565   0.572   4.908  1.1375 -0.2326  1.1228
13797TIP3   OH262805   3.952   4.274   3.869  0.0453  0.0595  0.3424
13797TIP3    H162806   4.008   4.275   3.792 -0.1591 -0.4975  0.1778
13797TIP3    H262807   3.895   4.350   3.859  0.8357  0.6993  0.5693
13798TIP3   OH262808   5.600   2.205   6.469  0.3978 -0.0999 -0.9339
13798TIP3    H162809   5.540   2.272   6.435  0.8379  0.5077 -0.5377
13798TIP3    H262810   5.687   2.242   6.455  0.6251 -0.3718 -0.2471
13799TIP3   OH262811   4.745   4.952  13.567 -0.2075  0.2240  0.0588
13799TIP3    H162812   4.769   5.015  13.635 -0.1605 -0.5327  0.7541
13799TIP3    H262813   4.708   5.005  13.497 -3.3933  0.8204  1.9826
13800TIP3   OH262814   1.185   2.401  12.468 -0.1649  0.3434 -0.1519
13800TIP3    H162815   1.233   2.321  12.492  1.7193  1.8927  1.5811
13800TIP3    H262816   1.097   2.387  12.504  0.7364 -0.1447  2.0668
13801TIP3   OH262817   4.467   3.098   2.897 -0.0966  0.0678 -0.1987
13801TIP3    H162818   4.380   3.125   2.926  0.3998 -0.0229  1.5099
13801TIP3    H262819   4.502   3.174   2.851 -0.7846  0.3725 -0.2313
13802TIP3   OH262820   2.732   4.025  14.340  0.3735 -0.0836 -0.1779
13802TIP3    H162821   2.735   4.058  14.430 -0.3895 -0.7899  0.1172
13802TIP3    H262822   2.642   4.043  14.311 -0.0163 -1.7283 -0.0649
13803TIP3   OH262823   5.999   2.002  11.331  0.4730  0.0219  0.3635
13803TIP3    H162824   5.931   1.935  11.325 -2.3497  2.6380  0.2294
13803TIP3    H262825   5.988   2.055  11.252  2.5812  0.6643  0.4474
13804TIP3   OH262826   1.041   2.913  14.769  0.1217 -0.3914  0.0887
13804TIP3    H162827   1.054   3.005  14.746 -0.4513 -0.5108 -0.7456
13804TIP3    H262828   1.106   2.866  14.717  1.0179 -0.4035  1.1762
13805TIP3   OH262829   1.812   0.775  17.320  0.4395  0.3791 -0.4368
13805TIP3    H162830   1.797   0.783  17.226 -0.9037  0.9786 -0.1954
13805TIP3    H262831   1.894   0.727  17.327  1.2140  1.4035 -1.9259
13806TIP3   OH262832   3.710   6.534  17.197  0.3586  0.0054  0.1064
13806TIP3    H162833   3.736   6.619  17.233 -0.5058  0.9157 -1.3322
13806TIP3    H262834   3.768   6.471  17.239  0.5361  1.2110  1.7625
13807TIP3   OH262835   5.451   0.690  12.873  0.4377  0.3198  0.0680
13807TIP3    H162836   5.381   0.744  12.836  0.2487 -0.6525 -1.0348
13807TIP3    H262837   5.435   0.692  12.967 -1.9753 -1.0290 -0.2241
13808TIP3   OH262838   5.474   4.029   3.234  0.0564  0.5633  0.1336
13808TIP3    H162839   5.482   4.096   3.166  1.2290  0.7215  0.4091
13808TIP3    H262840   5.534   3.960   3.206  0.5064  0.6063  0.9746
13809TIP3   OH262841   6.387   1.242  13.067  0.7250 -0.1735  0.1097
13809TIP3    H162842   6.458   1.257  13.129  1.6902  0.8854 -1.1994
13809TIP3    H262843   6.431   1.224  12.984 -0.4342  2.7216 -1.2808
13810TIP3   OH262844   3.387   3.729   1.159 -0.0315  0.1374  0.3035
13810TIP3    H162845   3.325   3.659   1.137  1.3003 -0.9679 -0.0744
13810TIP3    H262846   3.341   3.781   1.226 -1.6968 -0.0973 -0.5942
13811TIP3   OH262847   3.260   6.602   0.125 -0.4581 -0.4886  0.2148
13811TIP3    H162848   3.207   6.582   0.047  0.5595  1.1426 -0.9677
13811TIP3    H262849   3.244   6.695   0.142 -0.3269 -0.7205  1.7244
13812TIP3   OH262850   3.157   4.718   0.865 -0.0224  0.0880  0.0906
13812TIP3    H162851   3.205   4.800   0.873 -1.0943  0.7547 -0.0536
13812TIP3    H262852   3.066   4.742   0.882 -0.2375 -1.2367  0.9267
13813TIP3   OH262853   4.985   2.316  12.058 -0.0445 -0.5045  0.2123
13813TIP3    H162854   5.050   2.268  12.006  0.8005  0.0712  0.7143
13813TIP3    H262855   5.035   2.384  12.102 -1.2123  0.8530 -0.4747
13814TIP3   OH262856   1.773   5.291   0.863 -0.4304  0.1318 -0.0681
13814TIP3    H162857   1.724   5.351   0.806  0.2489  0.8995  0.1323
13814TIP3    H262858   1.724   5.289   0.944 -0.5868  0.2390 -0.1600
13815TIP3   OH262859   2.084   3.259   3.099 -0.4485 -0.2327  0.1510
13815TIP3    H162860   2.096   3.299   3.185 -0.8070 -0.8601  0.4987
13815TIP3    H262861   1.991   3.269   3.081 -0.3476  0.0350 -0.2438
13816TIP3   OH262862   1.293   3.053   1.855 -0.4040  0.0913  0.0312
13816TIP3    H162863   1.349   2.985   1.818  2.4062  2.2904 -0.1248
13816TIP3    H262864   1.217   3.056   1.798  0.8403 -0.8625 -1.7676
13817TIP3   OH262865   5.281   0.353   5.350  0.1921  0.0922 -0.1762
13817TIP3    H162866   5.360   0.362   5.297  0.4552 -0.7389  0.0581
13817TIP3    H262867   5.307   0.295   5.422  0.0641  1.7683  1.2995
13818TIP3   OH262868   0.039   6.580  15.464  0.3303 -0.3390  0.1187
13818TIP3    H162869   0.031   6.491  15.430  0.5027  0.4838 -2.2625
13818TIP3    H262870   0.131   6.602  15.453 -0.0086  0.6730 -0.8437
13819TIP3   OH262871   6.096   1.774  14.441 -0.0636  0.1600 -0.0684
13819TIP3    H162872   6.069   1.688  14.407  0.7504 -0.1459  0.0288
13819TIP3    H262873   6.015   1.815  14.470 -0.2160 -1.6408  2.3300
13820TIP3   OH262874   0.900   2.339  12.882  0.2822  0.8434  0.3019
13820TIP3    H162875   0.805   2.328  12.882  0.1534  1.6285 -1.3622
13820TIP3    H262876   0.916   2.402  12.811  2.1881 -0.5313 -0.5442
13821TIP3   OH262877   5.759   6.218   0.177 -0.2069  0.0798 -0.0725
13821TIP3    H162878   5.721   6.265   0.252  0.0100  0.7564 -0.3749
13821TIP3    H262879   5.683   6.187   0.128 -0.3500 -0.4967  0.5010
13822TIP3   OH262880   0.883   3.366   3.427 -0.2675 -0.1104 -0.3317
13822TIP3    H162881   0.860   3.283   3.467  2.0455 -1.6845 -1.9979
13822TIP3    H262882   0.843   3.364   3.340  2.2952 -1.0303 -1.6191
13823TIP3   OH262883   0.013   2.161   3.969  0.5972  0.2074  0.1143
13823TIP3    H162884  -0.073   2.193   3.995 -1.2778 -3.2815 -1.1249
13823TIP3    H262885   0.066   2.166   4.049 -1.7684 -0.5873  1.8415
13824TIP3   OH262886   5.768   6.010   4.055 -0.3292 -0.1772  0.3886
13824TIP3    H162887   5.808   6.060   3.984  0.6139  1.9363  2.2815
13824TIP3    H262888   5.813   5.925   4.052 -0.2407 -0.1091 -1.4237
13825TIP3   OH262889   3.844   5.782  17.336  0.0211 -0.2136 -0.5728
13825TIP3    H162890   3.761   5.776  17.383  0.3867  0.2308  0.1381
13825TIP3    H262891   3.859   5.876  17.324  1.2732 -0.1935  0.8647
13826TIP3   OH262892   4.874   2.808  13.831  0.2268 -0.1017  0.1976
13826TIP3    H162893   4.937   2.760  13.777  0.6263 -3.6857  3.4615
13826TIP3    H262894   4.926   2.842  13.904 -1.0911 -0.2482  1.2295
13827TIP3   OH262895   3.853   3.677  16.042 -0.2293 -0.1578 -0.7698
13827TIP3    H162896   3.896   3.611  15.988  1.5912  0.8642 -0.6440
13827TIP3    H262897   3.852   3.756  15.988 -2.5959 -0.2895 -1.0056
13828TIP3   OH262898   5.006   4.909   0.258  0.2316 -0.5574 -0.4711
13828TIP3    H162899   5.080   4.964   0.286  0.5887 -1.8063  1.1452
13828TIP3    H262900   5.022   4.894   0.165  0.5996  1.3095 -0.7597
13829TIP3   OH262901   2.894   4.235  17.093 -0.1955  0.0095  0.2684
13829TIP3    H162902   2.881   4.245  17.187  1.6607 -0.4949  0.6350
13829TIP3    H262903   2.860   4.148  17.073  0.4159 -0.3473  0.7229
13830TIP3   OH262904   0.417   0.458  11.481 -0.3986 -0.2891  0.2352
13830TIP3    H162905   0.490   0.509  11.516 -1.5258  1.0432  0.6965
13830TIP3    H262906   0.415   0.480  11.388  0.3030 -1.0000  0.0374
13831TIP3   OH262907   2.367   6.266   3.299  0.6653  0.0774  0.0597
13831TIP3    H162908   2.273   6.256   3.310  0.4685  0.2322 -1.2680
13831TIP3    H262909   2.390   6.343   3.352  0.4154 -1.1139  1.9809
13832TIP3   OH262910   2.537   3.038  16.661  0.1265  0.3957 -0.7230
13832TIP3    H162911   2.442   3.035  16.666 -0.0300  1.9289 -1.9561
13832TIP3    H262912   2.563   2.949  16.638 -0.8714 -0.3835  0.9931
13833TIP3   OH262913   5.003   1.059   5.382 -0.4276  0.5163  0.0308
13833TIP3    H162914   4.939   1.089   5.446 -0.8880 -0.6726  0.1581
13833TIP3    H262915   5.080   1.115   5.396  0.4120 -1.2266  3.3132
13834TIP3   OH262916   4.415   4.417   0.486 -0.3092  0.3148  0.3594
13834TIP3    H162917   4.360   4.417   0.408 -0.9634 -0.7824  0.7954
13834TIP3    H262918   4.469   4.495   0.477  0.7831 -0.6071 -1.9981
13835TIP3   OH262919   6.383   2.186  11.655  0.0721  0.1992  0.5685
13835TIP3    H162920   6.314   2.172  11.720 -0.4485  0.8102  0.1612
13835TIP3    H262921   6.346   2.150  11.574  0.5056 -0.0761  0.4873
13836TIP3   OH262922   3.640   4.143  11.890  0.2441 -0.1702 -0.5068
13836TIP3    H162923   3.643   4.196  11.810 -0.8014  1.6910  0.6024
13836TIP3    H262924   3.727   4.152  11.928  0.1644  0.5691 -0.4786
13837TIP3   OH262925   0.070   3.389  16.821 -0.4927  0.4249 -0.2436
13837TIP3    H162926   0.040   3.303  16.791 -2.9576  1.3787 -0.7559
13837TIP3    H262927   0.028   3.401  16.907 -0.2035  1.1236 -0.1887
13838TIP3   OH262928   0.196   2.908   2.351  0.2102  0.2165 -0.1671
13838TIP3    H162929   0.173   2.841   2.417  0.7441 -0.9636 -1.1457
13838TIP3    H262930   0.112   2.947   2.327  0.1249  1.7350  2.2544
13839TIP3   OH262931   0.967   1.619   0.330 -0.9852 -0.1308 -0.4205
13839TIP3    H162932   0.878   1.631   0.298 -0.2346  0.6882 -2.3532
13839TIP3    H262933   0.992   1.532   0.299 -0.9956 -0.2081 -0.2084
13840TIP3   OH262934   0.884   0.748   4.584 -0.4196 -0.1696  0.3235
13840TIP3    H162935   0.881   0.655   4.564  0.8182 -0.2668  0.5198
13840TIP3    H262936   0.822   0.788   4.522 -2.0072 -1.2384  1.1455
13841TIP3   OH262937   4.221   3.151  13.761 -0.1096  0.0315 -0.1160
13841TIP3    H162938   4.188   3.219  13.819  1.0056  1.4943 -1.1136
13841TIP3    H262939   4.152   3.141  13.695  0.0746  0.8228 -0.4411
13842TIP3   OH262940   0.978   1.831  14.439  0.6497  0.4942  0.4986
13842TIP3    H162941   1.012   1.830  14.350 -0.9393  0.6535 -0.1360
13842TIP3    H262942   1.008   1.748  14.477  0.1425 -0.2575 -0.6744
13843TIP3   OH262943   2.847   6.052  13.882  0.4309 -0.4961  0.6375
13843TIP3    H162944   2.803   5.976  13.843  0.3566  0.2649 -0.8159
13843TIP3    H262945   2.930   6.059  13.834  1.6119 -1.1202  2.4585
13844TIP3   OH262946   5.687   4.626   3.675  0.1133 -0.1819  0.5326
13844TIP3    H162947   5.774   4.655   3.702 -0.6131  1.4553  1.2399
13844TIP3    H262948   5.630   4.699   3.697 -1.5100 -1.3763  0.4270
13845TIP3   OH262949   3.850   1.210   0.914  0.3235  0.2453 -0.2763
13845TIP3    H162950   3.762   1.173   0.921  0.8898 -1.1244  0.1494
13845TIP3    H262951   3.878   1.189   0.825  0.8602 -0.9429  0.1429
13846TIP3   OH262952   5.111   6.721   1.500  0.0162  0.0563 -1.1441
13846TIP3    H162953   5.042   6.664   1.466 -1.0570  0.4053  0.3299
13846TIP3    H262954   5.179   6.661   1.530  0.3451 -0.2978 -2.5398
13847TIP3   OH262955   5.988   2.631  16.826  0.2787  0.7222  0.2343
13847TIP3    H162956   6.040   2.682  16.888 -1.4168  0.4288  2.0079
13847TIP3    H262957   6.004   2.540  16.850  1.7007  0.4266 -1.5915
13848TIP3   OH262958   0.952   5.315   0.264  0.0016 -0.1539 -0.1835
13848TIP3    H162959   0.968   5.263   0.343  0.6067  1.5439  0.8670
13848TIP3    H262960   0.915   5.398   0.297 -1.3250 -0.0504 -1.8228
13849TIP3   OH262961   0.895   3.715   4.531  0.0310  0.0377 -0.6436
13849TIP3    H162962   0.882   3.723   4.626  0.6996 -1.6518 -0.3775
13849TIP3    H262963   0.989   3.728   4.518 -0.0242  0.0515 -1.0479
13850TIP3   OH262964   3.955   2.763   3.405  0.3468  0.6036  0.2333
13850TIP3    H162965   3.896   2.836   3.387  0.0796  0.2697 -0.2694
13850TIP3    H262966   4.036   2.785   3.360  0.8307  1.3515  1.4248
13851TIP3   OH262967   4.351   5.474   2.372 -0.3402  0.7376 -0.2371
13851TIP3    H162968   4.297   5.497   2.448  0.0143  0.7358  0.0192
13851TIP3    H262969   4.290   5.475   2.298 -0.6748  0.8131  0.0357
13852TIP3   OH262970   3.016   0.221   3.784  0.3217  0.2928 -0.2671
13852TIP3    H162971   3.058   0.256   3.705  3.2532  0.4784  1.2325
13852TIP3    H262972   3.042   0.129   3.787  0.1215  0.2487  0.3745
13853TIP3   OH262973   2.450   3.552  16.433 -0.1041 -0.2069 -0.1565
13853TIP3    H162974   2.506   3.509  16.368 -0.2616 -0.8065  0.0995
13853TIP3    H262975   2.402   3.618  16.383  1.0424  0.5258 -0.3203
13854TIP3   OH262976   4.985   2.167   2.774  0.2450 -0.4027 -0.3924
13854TIP3    H162977   4.950   2.091   2.727 -1.1585 -0.3615  0.5201
13854TIP3    H262978   4.945   2.242   2.731  0.9468 -0.2153 -0.7322
13855TIP3   OH262979   3.386   0.152  13.921  0.0259 -0.2052 -0.8321
13855TIP3    H162980   3.405   0.060  13.938 -0.6160 -0.2207 -0.1492
13855TIP3    H262981   3.369   0.155  13.827  0.0455 -0.7871 -0.8590
13856TIP3   OH262982   1.685   2.989  17.260  0.5426 -0.1492 -0.0136
13856TIP3    H162983   1.730   2.932  17.323  0.7560 -0.8631 -0.7934
13856TIP3    H262984   1.604   3.013  17.305  0.7251 -0.5795  0.5727
13857TIP3   OH262985   2.938   1.706  11.579 -0.1474 -0.4233 -0.2935
13857TIP3    H162986   2.846   1.729  11.588 -0.4491 -1.0202 -1.5543
13857TIP3    H262987   2.938   1.614  11.554  0.8188 -0.5684  0.1902
13858TIP3   OH262988   3.117   2.052   0.122 -0.5551  0.4125 -0.1139
13858TIP3    H162989   3.180   2.108   0.167 -0.8348  1.3575 -0.8773
13858TIP3    H262990   3.129   1.966   0.163  1.9768  0.2783 -0.9379
13859TIP3   OH262991   2.838   2.512   4.527  0.4278  0.0109 -0.0368
13859TIP3    H162992   2.749   2.503   4.494  0.0928 -1.6956  1.1647
13859TIP3    H262993   2.840   2.597   4.571  0.0203  0.9561 -1.7440
13860TIP3   OH262994   0.876   6.554   5.707  0.1332  0.1864  0.0523
13860TIP3    H162995   0.970   6.548   5.726  0.2083  0.8910 -0.0662
13860TIP3    H262996   0.834   6.541   5.791  0.3960  1.3159  0.3766
13861TIP3   OH262997   4.329   5.413  15.706 -0.6096  0.6165  0.1422
13861TIP3    H162998   4.397   5.455  15.760  1.9097  0.1131 -2.3793
13861TIP3    H262999   4.274   5.367  15.769 -0.8743  3.9658  2.6548
13862TIP3   OH263000   0.117   4.847   2.799  0.2998 -0.1841  0.1817
13862TIP3    H163001   0.207   4.860   2.830  0.4920  0.7717 -0.7214
13862TIP3    H263002   0.062   4.882   2.868  0.5864 -1.2854  0.9965
13863TIP3   OH263003   6.326   6.667  16.202  0.5434  0.0048 -0.8446
13863TIP3    H163004   6.254   6.607  16.183 -1.7984  1.1253  3.2378
13863TIP3    H263005   6.389   6.613  16.250 -0.4815  0.2027  0.8020
13864TIP3   OH263006   5.743   1.961  13.380 -0.8940 -0.5533 -0.5661
13864TIP3    H163007   5.716   1.969  13.288 -0.1058 -1.7473 -0.9293
13864TIP3    H263008   5.759   2.051  13.408 -0.6837 -0.2054 -1.7479
13865TIP3   OH263009   3.460   2.427  12.683 -0.2314 -0.1082 -0.3772
13865TIP3    H163010   3.522   2.399  12.750 -0.1923  3.0639  1.1068
13865TIP3    H263011   3.376   2.389  12.711 -0.0474  0.4457  1.0164
13866TIP3   OH263012   6.737   1.836   5.252 -0.7683  0.5587  0.3284
13866TIP3    H163013   6.683   1.852   5.329  0.3862  0.9401  1.0876
13866TIP3    H263014   6.711   1.905   5.190 -1.7209  0.2319  0.3514
13867TIP3   OH263015   1.088   0.683  16.718 -0.2266 -0.0269  0.2534
13867TIP3    H163016   1.109   0.775  16.701 -2.4728  0.6882  0.9441
13867TIP3    H263017   1.141   0.660  16.794  1.1225  0.3592 -0.5429
13868TIP3   OH263018   4.720   2.788   1.455 -0.4862  0.6950  0.5278
13868TIP3    H163019   4.696   2.830   1.373 -2.2020  1.0861  1.2001
13868TIP3    H263020   4.643   2.796   1.511  0.7838  0.8717  2.3731
13869TIP3   OH263021   5.473   3.609  12.227 -0.1428  0.0844 -0.0220
13869TIP3    H163022   5.531   3.533  12.234 -2.1588 -1.4681  0.4528
13869TIP3    H263023   5.393   3.575  12.188 -0.6710  2.2508 -0.9830
13870TIP3   OH263024   4.564   6.222  14.377 -0.1052 -0.2507  0.4710
13870TIP3    H163025   4.647   6.227  14.425 -0.4998  2.7502  1.0488
13870TIP3    H263026   4.500   6.261  14.437 -1.6327 -1.0282 -0.5943
13871TIP3   OH263027   2.682   4.732  15.320 -0.7436 -0.0337  0.1501
13871TIP3    H163028   2.750   4.792  15.351 -1.7342  0.6300  1.0960
13871TIP3    H263029   2.612   4.739  15.385 -1.2409 -1.5774 -0.1810
13872TIP3   OH263030   4.788   5.894   2.295  0.1778 -0.2141  0.3727
13872TIP3    H163031   4.781   5.894   2.200 -0.7775 -0.8769  0.4292
13872TIP3    H263032   4.754   5.980   2.322 -1.2969 -0.7222  0.2099
13873TIP3   OH263033   6.182   6.588  14.113  0.1090  0.2608 -0.1957
13873TIP3    H163034   6.153   6.503  14.146  0.5551  0.2687  0.2312
13873TIP3    H263035   6.246   6.618  14.178 -0.4202  1.1515 -0.0734
13874TIP3   OH263036   5.831   6.539   0.772 -0.1286 -0.0459 -0.3570
13874TIP3    H163037   5.924   6.527   0.755  0.0094 -0.1155  0.4013
13874TIP3    H263038   5.804   6.607   0.711  0.3921 -0.0983 -0.6540
13875TIP3   OH263039   3.882   3.268  11.570 -0.3935 -0.4011 -0.2620
13875TIP3    H163040   3.855   3.345  11.621 -1.6290 -0.4881 -0.7610
13875TIP3    H263041   3.974   3.255  11.595  0.4295  2.3068 -1.4878
13876TIP3   OH263042   0.473   6.023   4.780 -0.0857 -0.1865  0.1733
13876TIP3    H163043   0.477   6.000   4.688 -1.5427 -0.7434  0.2233
13876TIP3    H263044   0.475   6.119   4.782  0.1049 -0.1798 -0.4268
13877TIP3   OH263045   3.026   0.891  13.007 -0.1478 -0.2779  0.4699
13877TIP3    H163046   3.056   0.813  13.053 -1.2506  0.1603  1.9872
13877TIP3    H263047   2.931   0.887  13.012 -0.2205  1.2192  0.6429
13878TIP3   OH263048   4.935   2.595   5.211  0.1562 -0.4770  0.2817
13878TIP3    H163049   4.965   2.582   5.121 -1.4425  0.0556 -0.3602
13878TIP3    H263050   4.891   2.513   5.233 -2.6951  0.6409 -0.8086
13879TIP3   OH263051   1.903   1.820  16.024 -0.4897 -0.1995 -0.0595
13879TIP3    H163052   1.946   1.882  16.082 -1.9363 -0.4137  1.3062
13879TIP3    H263053   1.961   1.743  16.024 -1.0044 -0.6530  2.0770
13880TIP3   OH263054   1.243   5.961  11.474 -0.1184 -0.0683  0.1237
13880TIP3    H163055   1.185   5.965  11.397  0.5904  2.5892 -0.3841
13880TIP3    H263056   1.315   5.903  11.447  0.4171  1.2647 -1.4958
13881TIP3   OH263057   0.018   1.230   0.796 -0.2374 -0.2623  0.4887
13881TIP3    H163058   0.087   1.265   0.852 -0.6043  0.1342  0.6992
13881TIP3    H263059   0.009   1.139   0.824 -1.0455  0.1713  1.7329
13882TIP3   OH263060   5.077   5.459  13.179  0.6334 -0.0036 -0.0926
13882TIP3    H163061   4.983   5.475  13.189  0.0674 -3.4987  1.4704
13882TIP3    H263062   5.105   5.427  13.264  2.2703 -3.0562 -1.6178
13883TIP3   OH263063   0.631   4.030   1.576 -0.0852  0.3343  0.0758
13883TIP3    H163064   0.659   4.062   1.662  0.1682 -0.7528  0.4108
13883TIP3    H263065   0.558   4.088   1.551 -2.3433 -1.2344  2.4894
13884TIP3   OH263066   2.568   1.951  14.066 -0.1256 -0.2492 -0.1718
13884TIP3    H163067   2.568   1.957  14.162 -0.4497  0.0591 -0.1881
13884TIP3    H263068   2.486   1.905  14.045  1.2072 -2.8140 -0.1704
13885TIP3   OH263069   0.356   2.518  14.064 -1.0302 -0.5941  0.5735
13885TIP3    H163070   0.408   2.445  14.033 -3.1490 -2.0865  0.3373
13885TIP3    H263071   0.269   2.482  14.077 -2.0137  1.7573  1.0534
13886TIP3   OH263072   1.331   4.255   5.597  0.1244  0.3393 -0.3257
13886TIP3    H163073   1.381   4.274   5.518  0.7480  0.3462  0.0672
13886TIP3    H263074   1.387   4.282   5.669  0.8993 -2.4773  0.2668
13887TIP3   OH263075   2.666   4.098  12.305 -0.1803  0.2111  0.3664
13887TIP3    H163076   2.598   4.045  12.264 -0.1061 -0.5884  1.2509
13887TIP3    H263077   2.619   4.158  12.362 -0.3312  1.7755 -1.3224
13888TIP3   OH263078   2.243   1.661  13.865  0.0423 -0.0792 -0.4574
13888TIP3    H163079   2.176   1.699  13.808 -0.2108 -1.6011 -1.2158
13888TIP3    H263080   2.198   1.590  13.912  0.3382  0.8957  1.4206
13889TIP3   OH263081   3.553   1.510  15.068  0.3054 -0.0595  0.3108
13889TIP3    H163082   3.494   1.468  15.131 -0.4642  1.0369  0.3495
13889TIP3    H263083   3.517   1.489  14.983  0.8455 -0.8026  0.2518
13890TIP3   OH263084   2.065   5.012  12.991 -0.8143 -0.2472  0.1578
13890TIP3    H163085   2.119   5.090  13.006 -0.7005 -0.3498  0.2752
13890TIP3    H263086   2.057   4.971  13.077 -0.7457 -0.4503  0.0673
13891TIP3   OH263087   5.346   2.519  13.974 -0.1501 -0.2690  0.0373
13891TIP3    H163088   5.399   2.528  14.053  0.2590 -0.4419 -0.2186
13891TIP3    H263089   5.407   2.492  13.906 -0.2629  1.0269 -0.6231
13892TIP3   OH263090   5.219   0.940   4.630 -0.6451  0.3693 -0.6222
13892TIP3    H163091   5.260   0.975   4.709  0.0065 -0.9632 -0.3556
13892TIP3    H263092   5.126   0.932   4.653 -0.3620 -0.6080  0.2474
13893TIP3   OH263093   4.111   6.584  13.690 -0.2058 -0.7004 -0.7640
13893TIP3    H163094   4.065   6.647  13.634 -0.5351 -0.6378 -0.4311
13893TIP3    H263095   4.170   6.637  13.743 -0.2581 -0.7039 -0.7015
13894TIP3   OH263096   5.226   3.554  12.902  0.4418 -0.1890  0.2162
13894TIP3    H163097   5.144   3.566  12.950  1.1281  0.2540  1.3289
13894TIP3    H263098   5.200   3.549  12.810 -0.9640 -1.5735  0.6613
13895TIP3   OH263099   0.302   0.320   3.250  0.1155  0.3233 -0.1223
13895TIP3    H163100   0.294   0.414   3.239 -1.9782 -0.0112 -2.0509
13895TIP3    H263101   0.393   0.301   3.226  0.6933  1.8671  0.7278
13896TIP3   OH263102   5.120   0.077   4.434 -1.0258 -0.2086  0.4291
13896TIP3    H163103   5.105   0.145   4.500  0.6556  0.8450 -0.1985
13896TIP3    H263104   5.125   0.125   4.351 -0.9336 -1.2479 -0.1808
13897TIP3   OH263105   5.239   2.391  11.745  0.6680  0.3280  0.6632
13897TIP3    H163106   5.215   2.413  11.655 -1.6000  0.0553  1.1476
13897TIP3    H263107   5.293   2.312  11.736 -0.1552 -0.1431 -0.4396
13898TIP3   OH263108   6.514   0.371  15.821  0.2998 -0.2706 -0.4610
13898TIP3    H163109   6.544   0.426  15.894  1.2043 -0.0079 -1.0077
13898TIP3    H263110   6.549   0.284  15.841 -1.7404 -0.8671  0.7720
13899TIP3   OH263111   3.330   4.308   0.966  0.4091  0.2680  0.2771
13899TIP3    H163112   3.236   4.298   0.980  0.6644 -0.3733  1.7114
13899TIP3    H263113   3.361   4.219   0.949  0.8629  0.3701  0.5585
13900TIP3   OH263114   5.658   1.264   5.619  0.1323 -0.0369 -0.2584
13900TIP3    H163115   5.642   1.191   5.679 -0.1886 -1.1318 -1.6304
13900TIP3    H263116   5.683   1.222   5.537 -2.8479  1.2653 -1.9683
13901TIP3   OH263117   5.329   2.710   2.036 -0.2864  0.1658 -0.0506
13901TIP3    H163118   5.252   2.663   2.007  0.8901 -0.7924 -1.7519
13901TIP3    H263119   5.294   2.791   2.076 -2.2475 -1.3882  1.6130
13902TIP3   OH263120   0.726   3.692  12.535 -0.0554 -0.0786 -0.2914
13902TIP3    H163121   0.741   3.710  12.443 -1.1773 -1.3950 -0.7694
13902TIP3    H263122   0.631   3.682  12.542 -0.0293  0.3949  1.0920
13903TIP3   OH263123   1.428   1.711  16.178  0.3395  0.0926  0.1565
13903TIP3    H163124   1.512   1.695  16.134  0.7022 -0.0137  0.8844
13903TIP3    H263125   1.385   1.777  16.123  0.8465  0.0696 -0.2832
13904TIP3   OH263126   5.968   4.256  12.264 -0.0489 -0.0639  0.0257
13904TIP3    H163127   5.911   4.180  12.278  1.7897 -1.2270  1.7715
13904TIP3    H263128   5.977   4.262  12.169 -3.3084  0.4305 -0.3833
13905TIP3   OH263129   1.360   5.764   4.136 -0.1877  0.3169 -0.0733
13905TIP3    H163130   1.408   5.687   4.106  0.1884  0.4794  0.1073
13905TIP3    H263131   1.418   5.805   4.201 -0.5682  0.5145  0.1456
13906TIP3   OH263132   2.726   0.662   2.803 -0.1800  0.2214 -0.4437
13906TIP3    H163133   2.754   0.576   2.771  0.7378  0.9965 -1.8621
13906TIP3    H263134   2.633   0.651   2.822  0.1683 -1.3703  0.5061
13907TIP3   OH263135   5.766   3.861   3.913 -0.4623  0.2304 -0.5289
13907TIP3    H163136   5.705   3.844   3.986  1.8997 -1.3504  1.2168
13907TIP3    H263137   5.842   3.902   3.954  0.8335 -0.4512 -2.1574
13908TIP3   OH263138   3.615   3.726   3.682  0.0253  0.5506 -0.0112
13908TIP3    H163139   3.644   3.668   3.752 -0.4418 -1.4224 -1.3724
13908TIP3    H263140   3.538   3.771   3.718 -0.4077 -0.6737  0.6290
13909TIP3   OH263141   1.469   5.513  13.256 -0.1230  0.0597 -0.2466
13909TIP3    H163142   1.554   5.556  13.264  0.5978 -1.4230  0.2817
13909TIP3    H263143   1.443   5.493  13.346 -2.5311  3.1729 -0.0633
13910TIP3   OH263144   3.298   4.851   5.642  0.0986  0.5614 -0.3138
13910TIP3    H163145   3.298   4.798   5.722 -1.2985  1.4130  0.2867
13910TIP3    H263146   3.372   4.911   5.654  0.7082 -0.1898 -0.2706
13911TIP3   OH263147   5.039   6.593   0.003 -0.1957 -0.6744 -0.0061
13911TIP3    H163148   5.052   6.507   0.043 -1.2548 -1.1159 -0.5860
13911TIP3    H263149   5.125   6.616  -0.031  0.3675 -0.9786  1.1412
13912TIP3   OH263150   2.401   1.189  13.743  0.1415  0.0506 -0.3391
13912TIP3    H163151   2.316   1.228  13.762 -0.0616 -1.0373  1.2165
13912TIP3    H263152   2.398   1.104  13.787  1.5612 -0.5628 -1.3571
13913TIP3   OH263153   3.768   0.593  17.003  0.3123 -0.1604  0.5360
13913TIP3    H163154   3.828   0.527  17.036  1.7325  2.0823  2.8733
13913TIP3    H263155   3.739   0.641  17.081 -0.9925  1.6695 -0.9556
13914TIP3   OH263156   1.308   5.905   1.497 -0.4451  0.4400 -0.2800
13914TIP3    H163157   1.367   5.941   1.562 -1.4429  0.9807  0.3597
13914TIP3    H263158   1.332   5.813   1.491 -0.8097  0.2075  1.4069
13915TIP3   OH263159   1.967   2.234   4.440 -0.0849 -0.3590  0.2004
13915TIP3    H163160   1.964   2.215   4.346 -1.9128 -1.1032  0.3771
13915TIP3    H263161   2.005   2.322   4.445  2.4690 -1.2641 -1.0373
13916TIP3   OH263162   6.636   6.473  12.634 -0.0778 -0.6743  0.4502
13916TIP3    H163163   6.684   6.444  12.712 -0.9420 -1.8605  0.5637
13916TIP3    H263164   6.549   6.496  12.666  0.4994  1.9452  0.3226
13917TIP3   OH263165   2.524   5.353  11.609  0.4579  0.2480  0.8008
13917TIP3    H163166   2.582   5.427  11.589 -0.0354 -0.0707 -2.2048
13917TIP3    H263167   2.584   5.280  11.625  1.1175 -0.3552 -3.3597
13918TIP3   OH263168   1.531   3.930   4.662  0.3458  1.3148 -0.1574
13918TIP3    H163169   1.537   4.024   4.681  1.9662  0.8495  2.1771
13918TIP3    H263170   1.509   3.890   4.747 -1.1410 -0.3796 -1.2700
13919TIP3   OH263171   0.455   5.428   1.824 -0.4007  0.5197 -0.2620
13919TIP3    H163172   0.381   5.485   1.846 -0.5984  0.3993 -0.6137
13919TIP3    H263173   0.437   5.347   1.872 -0.0920  0.7676  0.2811
13920TIP3   OH263174   5.598   2.615  13.173 -0.1549  0.2781 -0.1039
13920TIP3    H163175   5.677   2.567  13.200  1.1145  2.4828  0.3202
13920TIP3    H263176   5.630   2.701  13.147 -2.2377  0.6163 -1.7812
13921TIP3   OH263177   0.591   4.865   2.985  0.1641 -0.2164 -0.1936
13921TIP3    H163178   0.567   4.822   3.067  0.1754  0.2083  0.0351
13921TIP3    H263179   0.674   4.908   3.004  1.4263 -2.0813 -1.1039
13922TIP3   OH263180   6.738   2.440  15.509  0.2695  0.2589  0.2804
13922TIP3    H163181   6.731   2.399  15.423  0.9639  0.0303  0.3228
13922TIP3    H263182   6.821   2.488  15.505  0.7382 -0.4563  1.1076
13923TIP3   OH263183   5.267   5.845   4.709  0.2657 -0.2369 -0.1982
13923TIP3    H163184   5.265   5.765   4.761 -0.3685 -0.0946  0.0076
13923TIP3    H263185   5.311   5.820   4.628 -1.3540 -1.2353 -0.8328
13924TIP3   OH263186   2.295   2.182  16.078 -0.0476 -0.7769  0.5097
13924TIP3    H163187   2.211   2.223  16.058 -0.8615 -1.5943  2.0818
13924TIP3    H263188   2.338   2.174  15.993 -1.8730 -1.0018 -0.4547
13925TIP3   OH263189   2.773   1.110   5.389  0.1118  0.6696 -0.1092
13925TIP3    H163190   2.685   1.113   5.427 -0.4867 -2.6889 -0.9029
13925TIP3    H263191   2.830   1.137   5.461 -1.3891  0.1861  1.3421
13926TIP3   OH263192   4.007   1.045  11.652 -0.1014 -0.3832  0.0012
13926TIP3    H163193   4.033   0.974  11.711  0.4459  1.4669  2.1534
13926TIP3    H263194   3.939   1.092  11.701 -0.5763  0.4623 -1.4318
13927TIP3   OH263195   2.818   1.823  14.986 -0.9239 -0.2497 -0.0238
13927TIP3    H163196   2.820   1.750  15.049 -0.9774  0.7572  1.1730
13927TIP3    H263197   2.878   1.796  14.917 -1.2079 -1.5904  0.2210
13928TIP3   OH263198   1.796   5.370   5.739 -0.0315  0.0513  0.2513
13928TIP3    H163199   1.748   5.448   5.713  1.4227  0.5654 -1.0229
13928TIP3    H263200   1.880   5.402   5.772 -0.1598 -0.8773  1.5973
13929TIP3   OH263201   1.998   4.187   2.383 -0.4330 -0.5141 -0.2128
13929TIP3    H163202   2.020   4.174   2.475  0.7843 -2.0966 -0.6976
13929TIP3    H263203   1.946   4.268   2.383  0.4642  0.1259  1.7037
13930TIP3   OH263204   0.419   1.652  15.750  0.6153 -0.3242 -0.2201
13930TIP3    H163205   0.447   1.563  15.727 -0.6448 -0.6052 -0.7299
13930TIP3    H263206   0.495   1.689  15.795  1.1901 -1.6340 -0.0459
13931TIP3   OH263207   0.569   5.973  16.842 -0.4613  0.1290 -0.0250
13931TIP3    H163208   0.652   5.927  16.849  0.1426  1.3289  1.0427
13931TIP3    H263209   0.592   6.060  16.808 -1.3497  0.3027 -0.2244
13932TIP3   OH263210   3.103   2.500  15.778 -0.2731 -0.7451 -0.3464
13932TIP3    H163211   3.129   2.454  15.858 -3.0457 -0.6023  0.7636
13932TIP3    H263212   3.007   2.503  15.783 -0.4123  1.1460 -2.6493
13933TIP3   OH263213   3.988   5.889   5.678 -0.6270  0.0700 -0.3507
13933TIP3    H163214   4.000   5.896   5.772 -0.8759  0.5116 -0.3527
13933TIP3    H263215   3.970   5.978   5.648  0.0709  0.0361 -0.9062
13934TIP3   OH263216   1.022   0.089   0.701 -0.3655 -0.4425  0.7506
13934TIP3    H163217   1.043  -0.003   0.710 -0.0870 -0.5310 -0.6013
13934TIP3    H263218   1.103   0.130   0.672 -1.2801 -0.3554 -1.9247
13935TIP3   OH263219   3.103   6.513  15.730  0.6341 -0.1126 -0.4614
13935TIP3    H163220   3.156   6.592  15.730  1.1478 -0.4511 -1.2751
13935TIP3    H263221   3.152   6.450  15.677  1.5618 -1.8956  2.2668
13936TIP3   OH263222   6.232   1.334  12.259  0.1333  0.1709 -0.2114
13936TIP3    H163223   6.167   1.266  12.277 -0.0321  0.7453  1.5476
13936TIP3    H263224   6.180   1.413  12.247  0.4238  0.2934 -0.6921
13937TIP3   OH263225   2.922   5.597   2.881 -0.6088  0.5364 -0.2318
13937TIP3    H163226   2.876   5.513   2.890  0.2827  0.2371  2.5870
13937TIP3    H263227   2.869   5.646   2.819 -0.8693 -2.2557 -2.4435
13938TIP3   OH263228   2.374   1.662  13.429  0.0479  0.0138 -0.0844
13938TIP3    H163229   2.442   1.643  13.365 -1.2756 -0.0771 -1.5192
13938TIP3    H263230   2.362   1.581  13.477 -0.1286 -0.4449 -0.8897
13939TIP3   OH263231   4.386   1.049   1.932 -0.1187  0.0518 -0.4580
13939TIP3    H163232   4.299   1.013   1.950 -0.2125  0.5136  0.0730
13939TIP3    H263233   4.418   1.077   2.018  0.4537  0.1075 -0.6846
13940TIP3   OH263234   2.784   6.260  13.340 -0.0880 -0.4295 -0.0255
13940TIP3    H163235   2.707   6.303  13.304 -0.0215 -1.0809 -0.9599
13940TIP3    H263236   2.818   6.206  13.269  2.1105  0.9777 -0.1383
13941TIP3   OH263237   3.111   3.412   0.343 -0.4815  0.1667  0.2509
13941TIP3    H163238   3.095   3.318   0.350  0.9618 -0.2329 -1.2477
13941TIP3    H263239   3.202   3.419   0.316 -0.2083  2.0652  1.4742
13942TIP3   OH263240   1.432   1.859   1.025  0.7482  0.1732  0.5487
13942TIP3    H163241   1.500   1.795   1.044  0.1461 -1.0979 -1.2696
13942TIP3    H263242   1.456   1.895   0.940 -0.6519 -0.0571  0.0255
13943TIP3   OH263243   5.531   1.050   4.851  0.3265 -0.1117  0.2520
13943TIP3    H163244   5.507   0.967   4.892 -0.3469 -0.9520 -1.7492
13943TIP3    H263245   5.596   1.087   4.911 -0.2799 -1.4581  1.8356
13944TIP3   OH263246   3.947   4.920   3.129  0.3091  0.0364  0.1384
13944TIP3    H163247   3.972   4.860   3.059  0.9746  1.3395 -0.7572
13944TIP3    H263248   3.867   4.962   3.098 -0.8513 -1.1785  1.2788
13945TIP3   OH263249   5.653   0.716  14.696  0.1202  0.0504  0.4255
13945TIP3    H163250   5.558   0.705  14.691 -0.3221  2.7610  1.3660
13945TIP3    H263251   5.680   0.730  14.606 -0.0699 -2.3532 -0.0665
13946TIP3   OH263252   3.394   4.385   1.452 -0.4758  0.2216 -0.1323
13946TIP3    H163253   3.394   4.379   1.356 -0.6831  0.5252 -0.1550
13946TIP3    H263254   3.487   4.386   1.476 -0.4252 -0.3483 -0.2928
13947TIP3   OH263255   2.410   5.970   3.187  0.5281  0.1168 -0.3899
13947TIP3    H163256   2.338   6.005   3.134 -1.0438  0.5163  1.9002
13947TIP3    H263257   2.442   6.045   3.236  0.6868 -0.5980  0.6234
13948TIP3   OH263258   2.465   1.845   5.540  0.2312  0.0580 -0.1469
13948TIP3    H163259   2.549   1.891   5.529 -0.2554  1.0014 -0.0117
13948TIP3    H263260   2.401   1.901   5.496 -0.7623  0.7647  2.0157
13949TIP3   OH263261   1.922   3.871   3.588  0.2126  0.3673 -0.1812
13949TIP3    H163262   1.940   3.779   3.568  0.5200  0.6703 -1.3961
13949TIP3    H263263   1.991   3.897   3.649  0.4883 -0.0518 -0.3112
13950TIP3   OH263264   3.446   3.874   3.829 -0.4975 -0.0350  0.4308
13950TIP3    H163265   3.410   3.846   3.913 -0.2431 -0.6741  0.3300
13950TIP3    H263266   3.376   3.927   3.790 -0.5535  0.3964  1.1064
13951TIP3   OH263267   4.223   5.745   5.151 -0.7548  0.2902  0.3141
13951TIP3    H163268   4.189   5.755   5.240  2.6018  1.7236  1.5687
13951TIP3    H263269   4.185   5.819   5.103 -0.1942  1.3562  1.4392
13952TIP3   OH263270   3.838   4.381  12.929  0.0470 -0.0981  0.1265
13952TIP3    H163271   3.908   4.324  12.958 -0.2848  0.7082  2.7160
13952TIP3    H263272   3.758   4.330  12.941 -0.0160 -0.1745 -0.5625
13953TIP3   OH263273   0.508   2.010   6.059  0.5818 -0.1216  0.5025
13953TIP3    H163274   0.526   2.060   5.979 -0.2349 -2.1317 -1.0343
13953TIP3    H263275   0.417   1.981   6.050  0.4338 -0.3081  2.2326
13954TIP3   OH263276   1.398   4.358   0.022  0.3588 -0.4588 -0.0117
13954TIP3    H163277   1.338   4.429  -0.002  0.7050 -0.7172 -1.7760
13954TIP3    H263278   1.482   4.385  -0.015  0.6457 -1.4791 -0.1169
13955TIP3   OH263279   1.655   3.230   3.657 -0.1025 -0.0539  0.1205
13955TIP3    H163280   1.669   3.176   3.578  1.3645  1.7700 -0.9599
13955TIP3    H263281   1.658   3.320   3.625 -0.0193  0.7327  2.2020
13956TIP3   OH263282   6.245   0.964  16.354  0.3427  0.4605  0.5649
13956TIP3    H163283   6.231   0.949  16.447  0.3225 -1.1295  0.3243
13956TIP3    H263284   6.176   0.915  16.310  0.2998  1.2491 -0.3050
13957TIP3   OH263285   3.440   4.642   2.573 -0.0358  0.4305  0.0205
13957TIP3    H163286   3.356   4.655   2.528 -0.1979 -0.8405 -0.0919
13957TIP3    H263287   3.484   4.574   2.522  0.9471  0.8715  0.2527
13958TIP3   OH263288   3.967   2.366   5.129  0.0105  0.0181 -0.2543
13958TIP3    H163289   3.880   2.402   5.114 -1.5895 -3.9595 -2.0575
13958TIP3    H263290   3.952   2.293   5.189  2.4372  0.1522  0.6255
13959TIP3   OH263291   1.350   6.152   5.296  0.0042 -0.7482 -0.2127
13959TIP3    H163292   1.415   6.091   5.262  0.6632  0.3285 -0.9387
13959TIP3    H263293   1.280   6.150   5.231  0.2133 -0.4294 -0.4505
13960TIP3   OH263294   0.398   0.432  12.952  0.7350  0.4153  0.0614
13960TIP3    H163295   0.424   0.344  12.924 -1.3210 -0.6791  1.3263
13960TIP3    H263296   0.469   0.461  13.009  1.6132 -0.2651 -0.6658
13961TIP3   OH263297   2.274   4.497   2.711  0.6435  0.3510 -0.5195
13961TIP3    H163298   2.199   4.546   2.679 -0.8005 -1.6402 -0.4089
13961TIP3    H263299   2.237   4.440   2.779  3.0276  2.3044  2.6811
13962TIP3   OH263300   1.737   0.602  14.098 -0.1582 -0.2686 -0.5282
13962TIP3    H163301   1.764   0.590  14.007  0.3095 -0.5967 -0.3515
13962TIP3    H263302   1.773   0.526  14.143 -0.0832  0.0755 -0.0047
13963TIP3   OH263303   0.388   0.253  15.961 -0.1437  0.2981 -0.0330
13963TIP3    H163304   0.436   0.226  15.883  2.2216  0.2902  1.3296
13963TIP3    H263305   0.424   0.338  15.984 -2.4191  1.3876 -0.1612
13964TIP3   OH263306   4.004   3.367  10.727 -0.2650 -0.1940 -0.3900
13964TIP3    H163307   3.978   3.285  10.769  1.6712 -0.3029  0.6901
13964TIP3    H263308   4.088   3.347  10.685  0.3400  1.2592  0.0737
13965TIP3   OH263309   2.908   5.016  15.102  0.1259  0.0465 -0.4624
13965TIP3    H163310   2.943   5.105  15.106 -0.8373  0.6877 -3.4770
13965TIP3    H263311   2.820   5.026  15.066 -0.7204 -2.0276  0.8302
13966TIP3   OH263312   5.282   2.354   3.471 -0.6320 -0.5295  0.6933
13966TIP3    H163313   5.223   2.320   3.538 -1.2703  2.2068  1.6680
13966TIP3    H263314   5.224   2.378   3.398 -0.2421 -1.1334  0.1683
13967TIP3   OH263315   2.600   3.836   0.884  0.0982 -0.0186  0.3749
13967TIP3    H163316   2.624   3.759   0.935  0.1106 -1.0108 -1.0936
13967TIP3    H263317   2.616   3.812   0.793 -1.6184  1.0562 -0.2698
13968TIP3   OH263318   5.024   3.133  16.409 -0.3915 -0.6391 -0.0419
13968TIP3    H163319   4.996   3.087  16.488 -0.7364  0.8326  0.7205
13968TIP3    H263320   5.114   3.102  16.394 -0.4691 -1.2413  0.6760
13969TIP3   OH263321   6.345   5.637  14.938  0.5582 -0.3589 -0.1945
13969TIP3    H163322   6.257   5.599  14.936  0.9303 -1.2406 -1.9898
13969TIP3    H263323   6.333   5.724  14.977 -0.9852 -0.7339  0.2337
13970TIP3   OH263324   3.973   5.265   1.953 -0.3702 -0.2256 -0.1191
13970TIP3    H163325   3.901   5.323   1.979  0.6950  0.8493  0.5478
13970TIP3    H263326   3.996   5.293   1.865  0.4055  0.6730  0.3510
13971TIP3   OH263327   0.779   2.997  16.906 -0.3249  0.5304 -0.5470
13971TIP3    H163328   0.812   2.967  16.991 -0.4125 -0.6472 -0.9070
13971TIP3    H263329   0.845   2.969  16.843 -1.5567 -1.1145 -1.1814
13972TIP3   OH263330   2.409   1.186   2.086 -0.2626  0.0525 -0.1697
13972TIP3    H163331   2.443   1.102   2.118  2.3554  0.8835 -0.4707
13972TIP3    H263332   2.487   1.242   2.083 -2.1296  2.9730  1.4437
13973TIP3   OH263333   2.279   0.251  15.716  0.3588 -0.2118  0.2771
13973TIP3    H163334   2.366   0.290  15.722  0.1586  0.5941 -1.3609
13973TIP3    H263335   2.287   0.184  15.648 -0.7070  1.2102 -1.3334
13974TIP3   OH263336   4.311   0.315  11.895 -1.1527  0.6762 -0.7003
13974TIP3    H163337   4.393   0.275  11.866 -0.4399  1.4834  0.1430
13974TIP3    H263338   4.274   0.356  11.816 -0.7534  0.3021 -1.0805
13975TIP3   OH263339   3.442   2.417  12.339 -0.2150  0.2856  0.7966
13975TIP3    H163340   3.476   2.507  12.338  1.1973 -0.2318  0.4867
13975TIP3    H263341   3.499   2.370  12.400  2.2953 -1.5562 -2.6335
13976TIP3   OH263342   3.284   0.604   2.094  0.0165 -0.3521  0.1134
13976TIP3    H163343   3.265   0.559   2.176  2.9153 -1.6123  0.1959
13976TIP3    H263344   3.276   0.536   2.027  1.4148 -0.2966 -0.1357
13977TIP3   OH263345   0.353   2.669  16.237  0.0980 -0.0029 -0.0128
13977TIP3    H163346   0.364   2.744  16.295  2.8548 -1.3904  1.4918
13977TIP3    H263347   0.441   2.631  16.230 -1.3542 -4.0322  0.7003
13978TIP3   OH263348   0.563   1.217   3.871  0.4283 -0.1593 -0.0729
13978TIP3    H163349   0.637   1.259   3.827  0.7543 -0.4697  0.1825
13978TIP3    H263350   0.496   1.286   3.877  1.5054  0.8003  1.7270
13979TIP3   OH263351   6.022   4.990  15.644 -0.1692  0.5316  0.1481
13979TIP3    H163352   6.046   5.036  15.724 -1.7958  0.7288  0.5525
13979TIP3    H263353   6.064   5.040  15.574  0.9871  0.5542  0.8205
13980TIP3   OH263354   0.482   3.104  15.479  0.1795 -0.2688  0.1509
13980TIP3    H163355   0.553   3.135  15.422  0.1861  0.8311  0.7343
13980TIP3    H263356   0.416   3.071  15.419  0.1031  1.0555 -0.5183
13981TIP3   OH263357   1.299   5.263  16.971 -0.2262 -0.5907  0.2484
13981TIP3    H163358   1.257   5.286  16.889  0.5822 -2.0763 -0.6321
13981TIP3    H263359   1.377   5.214  16.945  0.3692 -0.5637  1.8890
13982TIP3   OH263360   2.836   5.612   6.796 -0.5575 -0.2576 -0.3991
13982TIP3    H163361   2.883   5.694   6.780  0.5483 -0.0636  3.0745
13982TIP3    H263362   2.897   5.544   6.770 -0.1716  0.0092 -0.1985
13983TIP3   OH263363   1.991   4.144  16.565  0.1259 -0.6737  0.0770
13983TIP3    H163364   1.943   4.068  16.597 -0.2942  0.2110  1.6445
13983TIP3    H263365   1.937   4.219  16.590  1.1356  0.2099 -0.3235
13984TIP3   OH263366   1.367   4.833  16.079  0.2889  0.2663  0.4396
13984TIP3    H163367   1.393   4.781  16.003  2.6147  1.6047  0.2379
13984TIP3    H263368   1.398   4.783  16.154  0.8277  0.4507  0.3414
13985TIP3   OH263369   0.414   5.616   4.154  0.2411  0.3772  0.0999
13985TIP3    H163370   0.467   5.695   4.157 -2.6046  2.6043 -1.7646
13985TIP3    H263371   0.406   5.588   4.245  2.5823  1.2717  0.6511
13986TIP3   OH263372   5.859   5.568   3.570  0.3733  0.0435  0.0623
13986TIP3    H163373   5.797   5.634   3.539  0.4170  0.7820  1.4392
13986TIP3    H263374   5.828   5.486   3.533 -0.9752  0.5232  0.0749
13987TIP3   OH263375   3.349   0.979  14.895 -0.5399  0.3910 -0.0589
13987TIP3    H163376   3.412   0.907  14.895 -2.0166 -1.0001  1.4003
13987TIP3    H263377   3.402   1.057  14.906  1.0586 -0.5491 -0.7130
13988TIP3   OH263378   0.168   6.160  12.811 -0.0184  0.4735 -0.2431
13988TIP3    H163379   0.140   6.096  12.877 -1.2868  0.7983 -0.4409
13988TIP3    H263380   0.213   6.228  12.862 -1.0699  0.7715  0.3118
13989TIP3   OH263381   6.703   3.119   2.545 -0.0413  0.1878 -0.0209
13989TIP3    H163382   6.785   3.149   2.584 -0.0784  0.2683 -0.0067
13989TIP3    H263383   6.646   3.196   2.544 -0.4148 -0.0663  0.7471
13990TIP3   OH263384   2.907   5.386   2.521  0.1384  0.2849  0.0071
13990TIP3    H163385   2.952   5.461   2.561 -0.2354 -0.0384  1.0666
13990TIP3    H263386   2.971   5.348   2.462  0.9211  0.4290  0.7500
13991TIP3   OH263387   3.222   5.030   0.649  0.1045  0.1716  0.2288
13991TIP3    H163388   3.270   5.053   0.569  0.8555 -0.2214  0.5483
13991TIP3    H263389   3.182   4.945   0.628 -1.2168  0.9126 -0.3466
13992TIP3   OH263390   5.811   1.514  11.698 -0.3963  0.0764 -0.2898
13992TIP3    H163391   5.741   1.518  11.763 -0.0537 -0.1778  0.0987
13992TIP3    H263392   5.813   1.423  11.669 -0.1865  0.0667 -0.2511
13993TIP3   OH263393   0.752   5.556   1.463 -0.1432  0.1817  0.3147
13993TIP3    H163394   0.841   5.589   1.454 -0.5754  1.7492  1.3907
13993TIP3    H263395   0.757   5.491   1.533  0.4063 -0.8920 -0.6848
13994TIP3   OH263396   6.319   2.770   5.045  0.0369  0.0415  0.1530
13994TIP3    H163397   6.350   2.749   5.133  2.4784  0.6409 -0.4883
13994TIP3    H263398   6.254   2.839   5.059  1.4729  1.2047  1.4150
13995TIP3   OH263399   6.090   5.224   3.468 -0.8202  0.0076 -0.1752
13995TIP3    H163400   6.175   5.209   3.427 -0.5081  0.4235  0.2969
13995TIP3    H263401   6.026   5.196   3.403 -0.4267  2.6921 -1.8970
13996TIP3   OH263402   3.159   3.037  10.449 -0.1126  0.6984  0.2675
13996TIP3    H163403   3.212   2.957  10.448  1.5387  1.7270  1.6205
13996TIP3    H263404   3.222   3.108  10.437 -1.1973  1.9480  1.6589
13997TIP3   OH263405   2.775   5.774  11.768  0.0906  0.0813  0.4516
13997TIP3    H163406   2.863   5.746  11.742 -0.3383 -0.1158 -0.8698
13997TIP3    H263407   2.750   5.714  11.839  0.6525 -0.4631  0.1977
13998TIP3   OH263408   3.398   0.439   0.669  0.1678 -0.0555  0.4988
13998TIP3    H163409   3.315   0.475   0.700  0.3137  0.5473  0.2140
13998TIP3    H263410   3.426   0.380   0.739 -0.0792  0.3896  0.9849
13999TIP3   OH263411   2.621   4.267   1.878  0.0844  0.1895  0.1706
13999TIP3    H163412   2.682   4.271   1.804  0.3852  1.5165  0.4750
13999TIP3    H263413   2.676   4.256   1.955 -0.0573  1.2522  0.4335
14000TIP3   OH263414   5.116   6.029   5.539 -0.2070 -0.1771 -0.2187
14000TIP3    H163415   5.128   6.110   5.588 -0.1767 -1.1943  1.5470
14000TIP3    H263416   5.204   5.991   5.533 -0.5881 -1.5209  1.6789
14001TIP3   OH263417   5.938   1.280  13.948  0.6427 -0.2383 -0.2297
14001TIP3    H163418   5.970   1.331  14.022  0.7861 -0.0456 -0.4226
14001TIP3    H263419   5.861   1.327  13.918 -0.3400 -1.1687  0.7675
14002TIP3   OH263420   2.330   5.998   5.183  0.1766 -0.3940 -0.1863
14002TIP3    H163421   2.417   6.036   5.175  0.1795  0.2389  2.2310
14002TIP3    H263422   2.293   6.037   5.262 -3.5260  1.6669 -2.6201
14003TIP3   OH263423   6.709   4.909  10.876  0.0519 -0.1524  0.5112
14003TIP3    H163424   6.617   4.886  10.866  0.2366 -0.6711 -0.0417
14003TIP3    H263425   6.711   4.967  10.952 -0.8281  0.4973  0.0543
14004TIP3   OH263426   6.508   1.366   0.939 -0.9123 -0.6759 -0.0447
14004TIP3    H163427   6.580   1.383   1.000  1.1417 -0.1392 -2.4404
14004TIP3    H263428   6.480   1.277   0.960  0.4111 -0.8824  1.0037
14005TIP3   OH263429   4.030   4.385   6.577 -0.2422 -0.0089  0.1407
14005TIP3    H163430   4.121   4.414   6.584 -0.2540  0.2147 -0.5408
14005TIP3    H263431   4.017   4.325   6.651  0.5458 -0.2787  0.0626
14006TIP3   OH263432   1.521   5.909  11.646  0.4348  0.3960  0.4055
14006TIP3    H163433   1.509   5.836  11.586  0.6829 -0.2935  1.1660
14006TIP3    H263434   1.437   5.954  11.648  0.0989 -0.2270  0.3750
14007TIP3   OH263435   5.642   6.259  12.757  0.6208 -0.3541 -0.4955
14007TIP3    H163436   5.578   6.271  12.827  1.5537  0.0065  0.3119
14007TIP3    H263437   5.606   6.189  12.703 -0.6638  0.1329 -0.3055
14008TIP3   OH263438   5.371   4.481   5.241  0.4874 -1.1251  0.1358
14008TIP3    H163439   5.438   4.422   5.276 -0.4039 -1.6736  0.9795
14008TIP3    H263440   5.348   4.444   5.157  1.0830 -1.0539 -0.0640
14009TIP3   OH263441   4.278   4.159  17.289 -0.1503  0.5286  0.0971
14009TIP3    H163442   4.275   4.117  17.375 -1.8282  0.0689 -0.1564
14009TIP3    H263443   4.212   4.113  17.237 -0.8934  2.3737 -0.6891
14010TIP3   OH263444   5.481   1.366  14.403  0.0145  0.0440 -0.2162
14010TIP3    H163445   5.509   1.401  14.319  0.9539 -0.1718 -0.0113
14010TIP3    H263446   5.506   1.273  14.400  0.1225  0.0492  0.3153
14011TIP3   OH263447   6.772   6.057  12.547 -0.3753 -0.3802 -0.4913
14011TIP3    H163448   6.724   6.093  12.473 -1.7721 -0.4354  0.3405
14011TIP3    H263449   6.800   6.134  12.598 -1.2178 -0.3873 -0.0048
14012TIP3   OH263450   5.291   3.551   2.539 -0.2440 -0.1967 -0.5009
14012TIP3    H163451   5.316   3.590   2.455  2.9877  1.2586  1.0031
14012TIP3    H263452   5.214   3.600   2.566  1.6422  2.9646 -0.3289
14013TIP3   OH263453   0.968   3.749  16.261  0.3685  0.3626  0.4617
14013TIP3    H163454   0.927   3.735  16.176  2.0934  0.6006 -0.4552
14013TIP3    H263455   0.923   3.689  16.320  0.8344 -1.6993 -1.1794
14014TIP3   OH263456   3.289   5.028   5.436  0.3222 -0.3696  0.2095
14014TIP3    H163457   3.282   4.956   5.499  0.8051 -0.1995  0.4636
14014TIP3    H263458   3.219   5.088   5.460  0.6044 -0.2284  0.6855
14015TIP3   OH263459   0.300   4.244   0.384  0.6577 -0.3355  0.0415
14015TIP3    H163460   0.300   4.150   0.367  0.0280 -0.3038 -0.1443
14015TIP3    H263461   0.287   4.252   0.478  2.0108 -0.4595  0.2540
14016TIP3   OH263462   5.473   6.474  12.494  1.0347  0.8184  0.0616
14016TIP3    H163463   5.425   6.532  12.435  0.3915  0.3879  0.1623
14016TIP3    H263464   5.488   6.395  12.443 -2.6350 -1.0203  1.5223
14017TIP3   OH263465   3.331   2.928   4.523 -0.1830 -0.3196 -0.2490
14017TIP3    H163466   3.249   2.973   4.542  0.8784  1.1549  1.0597
14017TIP3    H263467   3.307   2.835   4.519 -1.9797  0.1169 -0.4410
14018TIP3   OH263468   5.753   1.078   5.439  0.3352 -0.1619  0.4644
14018TIP3    H163469   5.796   1.025   5.506  0.1985 -0.5804  0.2212
14018TIP3    H263470   5.820   1.090   5.371 -0.5260 -2.6058 -0.9293
14019TIP3   OH263471   4.521   5.100   2.944  0.1919  0.3553  0.1418
14019TIP3    H163472   4.481   5.030   2.996  1.1291 -0.4404 -0.1757
14019TIP3    H263473   4.495   5.181   2.989 -1.8171 -0.0952 -0.0901
14020TIP3   OH263474   6.612   3.293  11.385 -0.3181  0.4445  0.3477
14020TIP3    H163475   6.595   3.299  11.291 -0.4795  0.1433  0.3564
14020TIP3    H263476   6.705   3.316  11.394  0.4737 -2.2347 -0.2134
14021TIP3   OH263477   0.196   5.828  14.456  0.1429  0.3662 -0.2290
14021TIP3    H163478   0.261   5.830  14.525 -0.2268  0.8378  0.1088
14021TIP3    H263479   0.244   5.852  14.377  0.9862 -1.9805 -0.5103
14022TIP3   OH263480   2.676   3.235  15.968  0.1013  0.2723  0.3993
14022TIP3    H163481   2.686   3.144  15.940 -0.5442  0.3155  0.0283
14022TIP3    H263482   2.765   3.271  15.961  0.4089 -0.3865  0.7793
14023TIP3   OH263483   2.052   5.663  12.820 -0.3909 -0.0924  0.0388
14023TIP3    H163484   1.974   5.709  12.850 -0.6206 -1.5405  1.7931
14023TIP3    H263485   2.020   5.576  12.794 -0.0974  0.7976 -3.9188
14024TIP3   OH263486   4.808   0.514   1.828  0.2013 -0.8185  0.4068
14024TIP3    H163487   4.844   0.595   1.865 -0.8772 -1.0295  2.0488
14024TIP3    H263488   4.726   0.500   1.876 -0.6042 -1.8845 -1.1733
14025TIP3   OH263489   5.074   5.181   0.183  0.2898  0.0840  0.1662
14025TIP3    H163490   4.980   5.184   0.200 -0.1954 -2.7293 -1.3212
14025TIP3    H263491   5.082   5.179   0.088  1.8255 -0.2661  0.2613
14026TIP3   OH263492   5.157   2.480  13.371  0.0274 -0.4380  0.0078
14026TIP3    H163493   5.167   2.466  13.277 -0.0493  1.1627 -0.2668
14026TIP3    H263494   5.246   2.487  13.404  0.0625 -1.3388  0.1232
14027TIP3   OH263495   5.393   2.123   3.012  0.1979 -0.9343 -0.9383
14027TIP3    H163496   5.397   2.115   3.107 -0.2237 -0.9770 -0.9209
14027TIP3    H263497   5.310   2.169   2.996 -0.1990 -1.7543 -1.3281
14028TIP3   OH263498   1.708   1.173  16.903 -0.3531  0.4111 -0.3779
14028TIP3    H163499   1.741   1.207  16.986 -1.3709 -1.2645  0.7786
14028TIP3    H263500   1.667   1.090  16.926  1.2738 -1.2308 -2.9012
14029TIP3   OH263501   3.937   1.234   2.315 -0.4404 -0.2231 -0.0913
14029TIP3    H163502   3.899   1.309   2.360 -0.8314 -1.1626  1.1759
14029TIP3    H263503   3.981   1.184   2.383  4.1166  1.2773 -1.5470
14030TIP3   OH263504   4.282   1.626  17.203 -0.1510 -0.6155  0.1864
14030TIP3    H163505   4.219   1.632  17.131  0.2893 -0.0735 -0.1644
14030TIP3    H263506   4.232   1.589  17.276 -0.7422 -0.6609 -0.2391
14031TIP3   OH263507   0.807   4.694   4.063  0.3823 -0.4564 -0.3102
14031TIP3    H163508   0.723   4.723   4.029 -0.0536  1.5781  2.1382
14031TIP3    H263509   0.820   4.747   4.143  1.9809 -3.6423  1.7683
14032TIP3   OH263510   1.237   0.666  13.979 -0.1020  0.0519  0.0387
14032TIP3    H163511   1.193   0.751  13.980  1.4270  0.8824 -0.7364
14032TIP3    H263512   1.273   0.657  14.068  0.3138  0.5274 -0.0803
14033TIP3   OH263513   4.689   0.256   0.432 -0.2614 -0.2569  0.0652
14033TIP3    H163514   4.666   0.168   0.464 -0.0613  0.0154  0.9704
14033TIP3    H263515   4.741   0.295   0.502  1.4158 -0.1617 -1.1686
14034TIP3   OH263516   3.829   6.653   5.622 -0.2231  0.3627  0.1020
14034TIP3    H163517   3.840   6.565   5.658 -0.6890  0.7051  1.1258
14034TIP3    H263518   3.918   6.690   5.624 -0.2444  0.4043  1.0255
14035TIP3   OH263519   2.012   2.776  15.492 -0.3733  0.1176 -0.5413
14035TIP3    H163520   2.060   2.818  15.421 -0.7191 -0.5362 -1.1677
14035TIP3    H263521   1.947   2.842  15.519 -0.0422  0.4785 -0.6204
14036TIP3   OH263522   0.584   3.707  12.842 -0.0841 -0.0038  0.1305
14036TIP3    H163523   0.581   3.701  12.747 -0.2355 -0.5703  0.1665
14036TIP3    H263524   0.505   3.755  12.866  0.9370  1.9377 -0.1447
14037TIP3   OH263525   2.521   5.281  14.908  0.2978  0.0300  0.2084
14037TIP3    H163526   2.565   5.198  14.890 -0.2284 -0.6164  1.7192
14037TIP3    H263527   2.554   5.308  14.994  0.4920  1.4282 -0.2761
14038TIP3   OH263528   2.185   2.067   4.555 -0.0448 -0.4980 -0.1576
14038TIP3    H163529   2.100   2.109   4.566  0.4495  0.0312  2.3310
14038TIP3    H263530   2.249   2.139   4.559  0.5803 -0.9732 -1.1210
14039TIP3   OH263531   1.785   5.337   5.296  0.1695  0.0056 -0.1290
14039TIP3    H163532   1.787   5.426   5.332 -0.1120  0.1659 -0.5013
14039TIP3    H263533   1.715   5.293   5.345  1.0629 -0.3705  0.8592
14040TIP3   OH263534   6.635   3.681  13.466  0.4309  0.6466 -0.1529
14040TIP3    H163535   6.677   3.677  13.552  1.5958 -0.4689 -0.7323
14040TIP3    H263536   6.559   3.737  13.479 -0.1384 -0.4954  1.9179
14041TIP3   OH263537   0.569   5.801   1.654  0.1251  0.2533  0.5861
14041TIP3    H163538   0.528   5.844   1.579 -0.4719 -0.1381  0.6783
14041TIP3    H263539   0.522   5.836   1.730 -0.9097 -1.0922  0.6214
14042TIP3   OH263540   3.159   3.042   3.657 -0.2548  0.1833  0.1934
14042TIP3    H163541   3.082   3.020   3.710 -1.1788 -0.2328 -1.2631
14042TIP3    H263542   3.216   2.966   3.666 -0.4313  0.0852  0.5204
14043TIP3   OH263543   0.403   5.966   2.807 -0.7256  0.1863  0.7883
14043TIP3    H163544   0.361   5.884   2.836  1.3107 -0.7055  1.3908
14043TIP3    H263545   0.451   5.941   2.728 -2.3239  1.5048 -0.6852
14044TIP3   OH263546   2.154   1.264  13.839  0.6051 -0.3917 -0.1899
14044TIP3    H163547   2.146   1.338  13.899  0.9213 -0.6656  0.1904
14044TIP3    H263548   2.130   1.188  13.892 -0.8841 -0.4463 -0.8847
14045TIP3   OH263549   6.734   1.264  16.340 -0.1933 -0.4815  0.4580
14045TIP3    H163550   6.751   1.185  16.391  0.5098  0.7027  2.1269
14045TIP3    H263551   6.820   1.297  16.317 -0.4558  0.2378  0.4777
14046TIP3   OH263552   1.772   0.769   4.156  0.3787 -0.0413 -0.0390
14046TIP3    H163553   1.860   0.779   4.122  0.5679 -1.0384  0.1263
14046TIP3    H263554   1.776   0.806   4.244  0.1159  1.7029 -0.7142
14047TIP3   OH263555   1.260   2.127   1.314 -0.0173 -0.5737  0.1737
14047TIP3    H163556   1.246   2.041   1.275 -0.5335 -0.7855  0.8042
14047TIP3    H263557   1.342   2.119   1.362 -0.9435 -1.2884  1.7241
14048TIP3   OH263558   0.336   1.903  15.895 -0.5252  0.8305  0.1004
14048TIP3    H163559   0.316   1.956  15.818  0.3607 -0.2686 -0.9404
14048TIP3    H263560   0.334   1.813  15.862  1.4713  0.4209  0.9753
14049TIP3   OH263561   3.645   1.909  14.724 -0.6427  0.1018 -0.5022
14049TIP3    H163562   3.681   1.846  14.661 -0.9183 -0.3862 -0.1758
14049TIP3    H263563   3.615   1.982  14.670  0.0116  0.1232 -0.8566
14050TIP3   OH263564   1.685   4.463  16.118 -0.3522  0.0538 -0.3681
14050TIP3    H163565   1.667   4.398  16.050  1.2219  0.5886 -1.3420
14050TIP3    H263566   1.701   4.412  16.197  4.0978 -1.1443 -1.7659
14051TIP3   OH263567   0.041   2.841   5.857 -0.7408  0.0709  0.1790
14051TIP3    H163568  -0.051   2.868   5.854 -0.7161  0.1279 -0.0892
14051TIP3    H263569   0.055   2.812   5.947 -0.4855  1.9556  0.7947
14052TIP3   OH263570   3.424   5.111   2.885 -0.3337  0.0062  0.1542
14052TIP3    H163571   3.352   5.104   2.822 -0.3374  2.3115 -0.1990
14052TIP3    H263572   3.469   5.192   2.860  0.9266 -0.1231  1.8570
14053TIP3   OH263573   4.099   5.381   2.656  0.1179  0.0207  0.3146
14053TIP3    H163574   4.163   5.317   2.687 -1.8353 -2.1439  0.2089
14053TIP3    H263575   4.018   5.358   2.702 -1.4469  0.3941 -2.0386
14054TIP3   OH263576   1.177   5.867   5.002 -0.5478  0.3728  0.6965
14054TIP3    H163577   1.186   5.772   5.005 -0.3560  0.4178  1.9711
14054TIP3    H263578   1.147   5.886   4.912  0.7690 -0.7460 -0.0119
14055TIP3   OH263579   4.422   5.573   0.530  0.3208  0.0536 -0.4727
14055TIP3    H163580   4.362   5.586   0.603  2.6014  1.4813  1.2941
14055TIP3    H263581   4.447   5.481   0.535 -1.0899 -0.3674 -0.7720
14056TIP3   OH263582   1.989   5.708   3.302  0.5385  0.2670 -0.4917
14056TIP3    H163583   1.946   5.713   3.217  0.1049  0.8245 -0.2437
14056TIP3    H263584   2.078   5.679   3.282  0.9751  2.0634 -1.3050
14057TIP3   OH263585   5.913   2.135  12.576 -0.1056  0.1338  0.1149
14057TIP3    H163586   5.930   2.088  12.494 -0.3003 -0.3126  0.3275
14057TIP3    H263587   5.999   2.139  12.619 -0.2272 -0.6951  0.4424
14058TIP3   OH263588   6.090   6.727   4.100  0.1320  0.1518 -0.0837
14058TIP3    H163589   6.130   6.807   4.134  0.2518  0.3099 -0.5903
14058TIP3    H263590   5.996   6.737   4.115  0.1250  0.4884 -0.3493
14059TIP3   OH263591   1.634   1.635  13.744 -0.1758 -0.0053  0.1343
14059TIP3    H163592   1.582   1.560  13.775 -1.0973  0.7892  0.5841
14059TIP3    H263593   1.664   1.608  13.657 -0.2916 -0.9885  0.3780
14060TIP3   OH263594   5.757   4.124  16.449 -0.5250  0.4567  0.2068
14060TIP3    H163595   5.739   4.071  16.371 -0.2685  1.4240 -0.5358
14060TIP3    H263596   5.764   4.214  16.416 -0.0683  0.8447  1.2999
14061TIP3   OH263597   0.243   1.596  11.578  0.1559  0.1720  0.1961
14061TIP3    H163598   0.243   1.681  11.534 -0.5785  0.3051  0.4575
14061TIP3    H263599   0.306   1.544  11.527 -1.7101 -0.1548 -1.9506
14062TIP3   OH263600   1.904   5.339  14.759 -0.4300 -0.2308  0.8150
14062TIP3    H163601   1.844   5.292  14.817 -0.6133  0.1357  0.9226
14062TIP3    H263602   1.850   5.407  14.718 -0.7794 -1.6477 -1.2267
14063TIP3   OH263603   6.267   4.378   4.217 -0.0331  0.4030  0.4214
14063TIP3    H163604   6.172   4.370   4.217  0.0536 -1.8389  2.5533
14063TIP3    H263605   6.292   4.372   4.309  2.2140  0.2820 -0.1398
14064TIP3   OH263606   1.196   1.735   1.759  0.2695  0.2940 -0.0924
14064TIP3    H163607   1.261   1.698   1.699  0.6729  1.3974 -0.3420
14064TIP3    H263608   1.112   1.710   1.721  0.5330 -0.4102 -0.2250
14065TIP3   OH263609   0.564   1.478  16.854 -0.1184  0.1782 -0.1479
14065TIP3    H163610   0.546   1.397  16.904 -0.6484  0.1332 -0.3999
14065TIP3    H263611   0.477   1.507  16.825  0.1823  0.2258 -1.0141
14066TIP3   OH263612   5.582   4.231   4.513 -0.2465 -0.1931  0.2505
14066TIP3    H163613   5.590   4.141   4.545 -2.8634 -0.4683  0.3267
14066TIP3    H263614   5.671   4.254   4.487  1.1717 -1.5904  3.2942
14067TIP3   OH263615   6.447   5.431   3.437  0.1575  0.3275  0.0207
14067TIP3    H163616   6.515   5.497   3.427 -0.0560  0.6047  0.3902
14067TIP3    H263617   6.399   5.457   3.515  1.3559 -1.3839  1.4395
14068TIP3   OH263618   3.589   2.901   4.311  0.2931 -0.5444  0.5267
14068TIP3    H163619   3.644   2.975   4.287 -0.4422 -0.4378 -0.9118
14068TIP3    H263620   3.510   2.942   4.348  0.2936 -0.6348  0.6264
14069TIP3   OH263621   4.253   6.705  11.959 -0.3905  0.0031  0.3837
14069TIP3    H163622   4.281   6.736  11.874 -0.6818  1.9810  0.9515
14069TIP3    H263623   4.183   6.766  11.985  0.2938  0.0161  2.4022
14070TIP3   OH263624   6.314   3.028   3.055  0.2193 -0.1158 -0.0365
14070TIP3    H163625   6.246   3.036   2.988  1.3644  0.8162 -1.1408
14070TIP3    H263626   6.327   3.118   3.086 -0.0613 -0.4900  1.2208
14071TIP3   OH263627   1.269   1.778  14.539  0.5624  0.1623 -0.7377
14071TIP3    H163628   1.190   1.832  14.547 -0.8445 -1.7476 -1.0501
14071TIP3    H263629   1.340   1.834  14.572 -1.0409  1.6161  0.4256
14072TIP3   OH263630   5.208   4.976   4.349  0.4183  0.3335 -0.0740
14072TIP3    H163631   5.200   5.009   4.438  0.8229 -1.8429  0.8309
14072TIP3    H263632   5.247   4.889   4.358 -1.8618 -1.0765 -2.1289
14073TIP3   OH263633   2.507   4.718   3.480 -0.0085 -0.1228  0.4824
14073TIP3    H163634   2.572   4.708   3.411  0.2823  1.0375  0.5715
14073TIP3    H263635   2.426   4.683   3.443  0.6568 -1.6238  0.3894
14074TIP3   OH263636   1.895   0.952   3.327  0.1098 -0.0292  0.5205
14074TIP3    H163637   1.819   0.966   3.384 -0.4666  0.8151 -0.4302
14074TIP3    H263638   1.891   1.024   3.264  0.2424 -1.3973 -1.1287
14075TIP3   OH263639   0.588   0.598  13.667 -0.1951 -0.1067  0.5212
14075TIP3    H163640   0.528   0.659  13.624 -0.7274 -0.2367  1.0779
14075TIP3    H263641   0.652   0.654  13.710 -0.4514  0.0539  0.6964
14076TIP3   OH263642   3.020   6.293   1.829  0.0880 -0.8392 -0.3820
14076TIP3    H163643   2.972   6.368   1.792  2.4551  0.9710 -0.0482
14076TIP3    H263644   3.112   6.320   1.826  0.9696 -3.4315  0.5743
14077TIP3   OH263645   2.889   2.716   4.710  0.5656 -0.3332 -0.0747
14077TIP3    H163646   2.973   2.756   4.734  1.4444 -0.7013 -2.2708
14077TIP3    H263647   2.855   2.680   4.791  2.0602  0.6982  1.0588
14078TIP3   OH263648   0.478   0.745   0.428  0.5473 -0.6070 -0.8558
14078TIP3    H163649   0.385   0.760   0.445  0.4414  0.0391 -1.8902
14078TIP3    H263650   0.522   0.774   0.508  0.0003  1.2105 -1.1709
14079TIP3   OH263651   5.032   3.893   3.248  0.4151  0.2256 -0.1186
14079TIP3    H163652   5.046   3.986   3.263 -1.6606  0.2783  2.0610
14079TIP3    H263653   4.981   3.889   3.167  0.9882  0.9399 -0.5167
14080TIP3   OH263654   0.796   2.412   6.270  0.3460  0.3753  0.1932
14080TIP3    H163655   0.814   2.460   6.351 -0.2840  0.4525  0.2942
14080TIP3    H263656   0.803   2.320   6.295  0.9186  0.4010  0.1492
14081TIP3   OH263657   6.349   5.515  11.357  0.5984  0.0431 -0.1202
14081TIP3    H163658   6.354   5.600  11.313  1.0425  0.4346  0.6638
14081TIP3    H263659   6.408   5.458  11.307  2.1370  0.8371  0.7208
14082TIP3   OH263660   6.038   3.265  16.665  0.2469 -0.0693 -0.4487
14082TIP3    H163661   6.078   3.351  16.676 -0.7635  0.4370 -0.6527
14082TIP3    H263662   5.987   3.272  16.584  0.8030 -1.1206 -0.9218
14083TIP3   OH263663   4.876   0.533   1.236  0.0846 -0.4362  0.0749
14083TIP3    H163664   4.896   0.467   1.303  2.4024 -0.3016 -0.4067
14083TIP3    H263665   4.825   0.600   1.282 -0.3115 -1.4220  1.1247
14084TIP3   OH263666   2.529   3.343   3.995 -0.7438 -0.6067 -0.0750
14084TIP3    H163667   2.519   3.281   3.923 -2.0165 -0.2046 -0.2703
14084TIP3    H263668   2.440   3.376   4.011 -0.5697 -0.9639  1.9169
14085TIP3   OH263669   2.343   6.749  17.229  0.8941  0.4087 -0.4345
14085TIP3    H163670   2.279   6.811  17.193  2.6773  1.6775 -1.5401
14085TIP3    H263671   2.404   6.732  17.157  1.6056 -1.0932  0.4610
14086TIP3   OH263672   0.711   4.422  17.000  0.4071 -0.6478 -0.0660
14086TIP3    H163673   0.799   4.388  16.990  0.9436  1.1280 -2.3336
14086TIP3    H263674   0.721   4.502  17.051  0.2595 -0.0411 -0.9578
14087TIP3   OH263675   1.480   4.827   2.803  0.6350 -0.5538  0.0509
14087TIP3    H163676   1.523   4.789   2.727  0.5736  0.8474 -0.6972
14087TIP3    H263677   1.387   4.832   2.778  1.0433  3.0047 -1.1639
14088TIP3   OH263678   0.253   1.370   2.626  1.4601 -0.0266 -0.3684
14088TIP3    H163679   0.202   1.408   2.554 -1.3313 -3.2827 -0.3977
14088TIP3    H263680   0.219   1.413   2.705  1.4408  0.5508 -0.6892
14089TIP3   OH263681   5.269   3.289  12.481  0.1713  0.1448  0.3522
14089TIP3    H163682   5.276   3.200  12.515 -1.2501  0.3043  1.1104
14089TIP3    H263683   5.184   3.292  12.437  0.2523  1.0893  0.2316
14090TIP3   OH263684   4.703   1.306  15.288 -0.2297  0.6031 -0.2505
14090TIP3    H163685   4.752   1.316  15.207  0.0498  0.9244 -0.0436
14090TIP3    H263686   4.717   1.388  15.335 -1.9778  1.2342 -0.7288
14091TIP3   OH263687   6.272   1.589  15.715 -0.0257 -0.4253  0.1610
14091TIP3    H163688   6.200   1.606  15.777  1.3865  0.9301  1.5208
14091TIP3    H263689   6.315   1.511  15.749 -1.2959 -1.7606 -1.1448
14092TIP3   OH263690   3.434   0.275  12.386 -0.3737 -0.0401 -0.1764
14092TIP3    H163691   3.409   0.368  12.391  0.1032  0.0677  0.2474
14092TIP3    H263692   3.522   0.276  12.348 -0.5184 -0.3494 -0.5333
14093TIP3   OH263693   2.934   3.279  16.042  0.0148 -0.5725 -0.4976
14093TIP3    H163694   2.993   3.236  16.104 -1.8997 -1.3324  0.9221
14093TIP3    H263695   2.961   3.371  16.043  1.5876 -1.0011 -0.4575
14094TIP3   OH263696   6.652   1.982  17.254  0.0132 -0.2043 -0.2317
14094TIP3    H163697   6.701   2.007  17.176  0.8092 -1.3910 -0.1494
14094TIP3    H263698   6.576   2.040  17.255  0.5311  0.5254 -1.3107
14095TIP3   OH263699   0.876   4.352  15.312  0.2564  0.6936  0.2443
14095TIP3    H163700   0.783   4.370  15.295  0.0127  1.5458  2.2408
14095TIP3    H263701   0.880   4.257  15.325  0.2724  0.1392 -2.9726
14096TIP3   OH263702   3.947   0.152  13.867 -0.2144 -0.1049 -0.1085
14096TIP3    H163703   4.014   0.212  13.835 -0.7628  0.6641  0.1476
14096TIP3    H263704   3.952   0.159  13.963 -1.0033  0.3709 -0.0902
14097TIP3   OH263705   1.459   6.506  16.608  0.1927 -1.0445 -0.0379
14097TIP3    H163706   1.501   6.458  16.537  0.4723  1.4883 -1.6766
14097TIP3    H263707   1.446   6.440  16.676  1.3750 -3.2153 -1.7838
14098TIP3   OH263708   2.585   4.749   0.422  0.5617  0.3772 -0.2676
14098TIP3    H163709   2.520   4.818   0.418 -0.6986 -0.6892  0.8281
14098TIP3    H263710   2.565   4.692   0.348 -0.4979 -0.5402  0.6872
14099TIP3   OH263711   3.927   5.940  11.065  0.1967 -0.2790  0.3951
14099TIP3    H163712   3.852   5.904  11.017 -0.3329  1.1568  0.0938
14099TIP3    H263713   3.891   5.965  11.150  0.3698  0.2567  0.3129
14100TIP3   OH263714   3.320   6.695   0.899 -0.4791  0.2250 -0.8398
14100TIP3    H163715   3.368   6.624   0.858  3.3017  1.9060  0.1882
14100TIP3    H263716   3.338   6.685   0.993 -2.5919  0.7438 -0.3215
14101TIP3   OH263717   2.779   4.233  12.589  0.0591  0.0872  0.2462
14101TIP3    H163718   2.808   4.247  12.679  0.7498  0.3524 -0.0085
14101TIP3    H263719   2.813   4.309  12.541 -0.3217 -0.0406 -0.2368
14102TIP3   OH263720   2.048   1.969  11.335  0.7209 -0.1349 -0.6558
14102TIP3    H163721   1.959   1.960  11.299  0.7810 -0.4136 -0.7376
14102TIP3    H263722   2.104   1.927  11.270  0.8365 -0.6179 -0.2478
14103TIP3   OH263723   5.694   1.582   4.421  0.6860  0.1932 -0.6611
14103TIP3    H163724   5.780   1.542   4.435  0.3147  0.2125  2.0876
14103TIP3    H263725   5.712   1.655   4.361  3.0073  1.4700  1.3860
14104TIP3   OH263726   2.898   0.591   0.213  0.2954 -0.3766 -0.4396
14104TIP3    H163727   2.938   0.535   0.280 -2.3691 -1.7445  0.1491
14104TIP3    H263728   2.906   0.540   0.132  1.5152  0.2889 -0.7685
14105TIP3   OH263729   0.214   2.849  15.172 -0.6638  0.3302  0.2258
14105TIP3    H163730   0.157   2.773  15.179  2.9106 -2.6541 -0.0495
14105TIP3    H263731   0.200   2.897  15.254 -0.6463 -2.5157  2.0358
14106TIP3   OH263732   5.038   5.973  12.618 -0.0724  0.3177 -0.1639
14106TIP3    H163733   5.055   6.065  12.640 -1.1084  0.5397 -0.2192
14106TIP3    H263734   4.942   5.967  12.614 -0.0992 -1.2088  1.6720
14107TIP3   OH263735   3.307   0.916   2.283  0.0106  0.0806  0.1378
14107TIP3    H163736   3.247   0.850   2.315 -0.2309 -0.8861 -2.0964
14107TIP3    H263737   3.392   0.891   2.318 -0.2961 -0.6979  0.3285
14108TIP3   OH263738   0.031   4.692  16.006 -0.1716 -0.0351 -0.3256
14108TIP3    H163739   0.076   4.624  15.957  0.5372  0.9492 -1.0850
14108TIP3    H263740  -0.044   4.716  15.952  1.3267  1.9707 -1.6751
14109TIP3   OH263741   0.484   1.416  15.579 -0.1420 -0.2628  0.1500
14109TIP3    H163742   0.406   1.428  15.525  1.2691  1.0662 -1.7284
14109TIP3    H263743   0.550   1.471  15.538  1.9863 -1.8180  1.2964
14110TIP3   OH263744   6.504   3.632   2.729  0.4903  0.6457 -0.3858
14110TIP3    H163745   6.540   3.550   2.762 -1.3351  0.1057  0.3470
14110TIP3    H263746   6.556   3.700   2.774  1.1334 -0.0949  0.0196
14111TIP3   OH263747   0.483   2.827   0.347 -0.2821 -0.0133  0.3213
14111TIP3    H163748   0.503   2.913   0.384 -0.7651  1.0118 -1.6826
14111TIP3    H263749   0.387   2.825   0.340 -0.1806  0.5011 -2.2285
14112TIP3   OH263750   0.728   5.819  16.300 -0.7679 -0.0208  0.1268
14112TIP3    H163751   0.791   5.891  16.299 -0.6368 -0.1408 -0.5699
14112TIP3    H263752   0.709   5.803  16.208 -1.0275 -0.6809  0.2947
14113TIP3   OH263753   6.548   3.633  14.298 -0.0106 -0.7158  0.3261
14113TIP3    H163754   6.581   3.614  14.210 -1.4935  0.4772 -0.5337
14113TIP3    H263755   6.583   3.562  14.352  1.4640 -1.1362 -1.0724
14114TIP3   OH263756   1.915   4.396   2.847  0.2880  0.1961  0.2168
14114TIP3    H163757   1.842   4.364   2.900  1.0317  0.3775  1.3763
14114TIP3    H263758   1.970   4.446   2.908 -0.9302  4.0423 -1.5169
14115TIP3   OH263759   4.713   1.233  11.125  0.5302 -0.5458  0.2047
14115TIP3    H163760   4.637   1.180  11.100  0.4083 -0.6491  0.7686
14115TIP3    H263761   4.677   1.319  11.144  1.1266  0.7954 -3.9066
14116TIP3   OH263762   0.609   4.360  12.477 -0.0026 -0.0510 -0.2320
14116TIP3    H163763   0.630   4.423  12.408 -0.1631 -0.1100 -0.3358
14116TIP3    H263764   0.691   4.348  12.524  0.0673  0.1159 -0.3104
14117TIP3   OH263765   1.631   1.646  14.811  0.3809 -0.1240  0.4578
14117TIP3    H163766   1.619   1.554  14.838 -0.8340 -0.2130 -0.3077
14117TIP3    H263767   1.585   1.696  14.878  1.4975 -0.0222  1.1683
14118TIP3   OH263768   0.513   5.127   1.061 -0.0193 -0.5999  0.0601
14118TIP3    H163769   0.520   5.219   1.037 -0.7930 -0.6120 -0.2446
14118TIP3    H263770   0.593   5.087   1.028  1.2532  0.3035  1.8662
14119TIP3   OH263771   2.699   6.208   3.267  0.0681  0.2052 -0.1979
14119TIP3    H163772   2.791   6.197   3.290  0.5488  0.0504 -2.0616
14119TIP3    H263773   2.654   6.138   3.314  0.9648 -0.0474  0.3093
14120TIP3   OH263774   3.172   6.762   1.860 -0.0002 -0.3429  0.6348
14120TIP3    H163775   3.221   6.789   1.937  0.2246 -0.1845  0.4367
14120TIP3    H263776   3.082   6.790   1.877 -0.0943 -0.9256  1.1426
14121TIP3   OH263777   4.788   3.815  17.021 -0.3184 -0.0433  0.1499
14121TIP3    H163778   4.847   3.742  17.004 -1.3066 -0.5258 -1.4301
14121TIP3    H263779   4.709   3.775  17.055 -0.7169  0.3243 -0.3295
14122TIP3   OH263780   4.569   2.411  11.921 -0.5287 -0.1375 -0.1127
14122TIP3    H163781   4.499   2.352  11.949  1.7016 -3.1865 -0.4523
14122TIP3    H263782   4.574   2.401  11.826 -0.7239  1.4188 -0.3185
14123TIP3   OH263783   5.808   0.214  11.920 -0.0040 -0.0160 -0.0355
14123TIP3    H163784   5.718   0.230  11.893 -0.1050  0.3029  0.4850
14123TIP3    H263785   5.833   0.134  11.874 -1.0473 -0.9361  0.9410
14124TIP3   OH263786   3.356   4.620   4.788 -0.3002  0.5618 -0.6702
14124TIP3    H163787   3.393   4.696   4.744  1.6670  0.4167  0.6058
14124TIP3    H263788   3.289   4.657   4.846  2.8829  1.9670  2.5162
14125TIP3   OH263789   3.745   2.939  16.461 -0.2881 -0.5348 -0.2822
14125TIP3    H163790   3.769   2.889  16.383  1.5613 -0.2362  0.0483
14125TIP3    H263791   3.807   3.012  16.464 -1.3508  0.3832  0.5996
14126TIP3   OH263792   3.798   4.866  14.912 -0.5602  0.1880  0.4064
14126TIP3    H163793   3.858   4.920  14.963  0.7385  0.2916 -1.1843
14126TIP3    H263794   3.742   4.824  14.978  1.1982  0.1301  1.9255
14127TIP3   OH263795   0.371   6.239  15.858  0.3841 -0.1070  0.2810
14127TIP3    H163796   0.297   6.283  15.898  0.1988 -0.3351  0.1903
14127TIP3    H263797   0.334   6.162  15.816  0.6941 -0.3097  0.3714
14128TIP3   OH263798   2.233   6.033  15.295  0.0155  0.4042 -0.5857
14128TIP3    H163799   2.280   6.014  15.376  1.4607  3.4137 -0.6070
14128TIP3    H263800   2.147   6.063  15.323 -0.2987 -0.6937 -0.3197
14129TIP3   OH263801   5.574   0.262   6.077  0.5132 -0.0238  0.2286
14129TIP3    H163802   5.521   0.304   6.145  0.7631  1.9700 -0.7362
14129TIP3    H263803   5.515   0.250   6.003  0.7228 -0.3539  0.1125
14130TIP3   OH263804   2.944   4.098  12.363 -0.3200  0.5986  0.5776
14130TIP3    H163805   2.955   4.146  12.445 -1.8369  0.1680  1.0586
14130TIP3    H263806   2.852   4.073  12.361 -0.0798 -0.3290 -0.7568
14131TIP3   OH263807   3.118   3.279   0.001  0.0876  0.4044 -0.1886
14131TIP3    H163808   3.116   3.370   0.029 -1.7735  0.9055 -1.7677
14131TIP3    H263809   3.030   3.246   0.017  0.0407 -0.3934 -1.8566
14132TIP3   OH263810   1.215   0.493  12.849  0.6286 -0.1319 -0.0753
14132TIP3    H163811   1.202   0.407  12.808  1.6283 -0.7085  0.7852
14132TIP3    H263812   1.263   0.543  12.783  1.8932 -0.9286  0.2102
14133TIP3   OH263813   3.521   5.124   1.492 -0.0469  0.2706  0.4324
14133TIP3    H163814   3.477   5.053   1.445  0.4877 -0.9797  1.7528
14133TIP3    H263815   3.584   5.159   1.428 -0.1413 -0.6168 -0.1674
14134TIP3   OH263816   2.413   3.387  16.668 -0.0056  0.4859  0.6649
14134TIP3    H163817   2.426   3.427  16.582  0.6441 -1.0930 -0.0148
14134TIP3    H263818   2.362   3.308  16.650 -0.1096  0.2775  1.7785
14135TIP3   OH263819   5.133   2.120   0.210  0.2060  0.7656 -0.0164
14135TIP3    H163820   5.113   2.039   0.164 -1.5616  0.7584  0.6989
14135TIP3    H263821   5.228   2.129   0.202  0.4101 -1.2003 -0.3782
14136TIP3   OH263822   3.543   0.429   3.683  0.9947  0.1968 -0.8027
14136TIP3    H163823   3.593   0.441   3.764 -3.1460 -1.2323  2.2819
14136TIP3    H263824   3.471   0.491   3.689 -0.8227 -1.6435 -2.0958
14137TIP3   OH263825   6.511   4.309  13.522  0.0783  0.8405  0.6031
14137TIP3    H163826   6.472   4.389  13.558 -1.4830  0.2543  0.2757
14137TIP3    H263827   6.566   4.276  13.593  0.4601  2.0007  0.8690
14138TIP3   OH263828   2.531   2.980  12.252  0.4622  0.1830  0.0004
14138TIP3    H163829   2.470   2.917  12.215  1.6137 -0.5342 -0.7300
14138TIP3    H263830   2.534   3.052  12.189  1.0724 -0.2202 -0.4428
14139TIP3   OH263831   1.723   6.233  13.723  0.2178 -0.6588  0.0152
14139TIP3    H163832   1.722   6.168  13.653  0.0814 -0.3192 -0.2990
14139TIP3    H263833   1.810   6.223  13.763  0.5729 -0.3677 -0.6637
14140TIP3   OH263834   5.228   6.171  16.854 -0.1842 -0.0723 -0.1169
14140TIP3    H163835   5.202   6.192  16.764  2.5608 -1.4589 -1.3532
14140TIP3    H263836   5.210   6.252  16.903 -0.6392  1.1410 -2.1439
14141TIP3   OH263837   5.356   2.664  12.899  0.1181  0.0213 -0.7285
14141TIP3    H163838   5.290   2.648  12.831 -0.0420 -0.0006 -0.5689
14141TIP3    H263839   5.305   2.671  12.980  0.2912  0.2567 -0.6420
14142TIP3   OH263840   4.085   0.565  14.269 -0.0079  0.6972  0.1177
14142TIP3    H163841   4.167   0.574  14.318  1.9630 -1.1334 -2.5416
14142TIP3    H263842   4.068   0.653  14.235 -1.3529  1.9888  3.6555
14143TIP3   OH263843   5.502   5.028   5.087  0.6264  0.7976 -0.7964
14143TIP3    H163844   5.521   4.937   5.109 -0.3980  0.8350  0.3966
14143TIP3    H263845   5.570   5.053   5.024  3.5348  0.5164  1.9795
14144TIP3   OH263846   5.077   2.974  11.733 -0.8413  0.0862 -0.1626
14144TIP3    H163847   5.028   2.917  11.674 -1.0585  0.2191 -0.1085
14144TIP3    H263848   5.017   2.994  11.804 -0.0498 -1.4275  0.9932
14145TIP3   OH263849   2.587   2.644   1.704  0.6719 -0.4136 -0.4412
14145TIP3    H163850   2.599   2.559   1.661 -0.9695 -1.2111  0.5631
14145TIP3    H263851   2.642   2.639   1.782  0.5926 -0.5614 -0.3932
14146TIP3   OH263852   3.243   0.493   2.342 -0.0933 -0.8771 -0.4059
14146TIP3    H163853   3.209   0.465   2.427  1.9371 -0.1279  0.7194
14146TIP3    H263854   3.323   0.442   2.330  1.6768  1.6277 -0.0447
14147TIP3   OH263855   5.569   3.114  13.358  1.0331  0.3331 -0.4550
14147TIP3    H163856   5.655   3.143  13.329  0.9942  0.7888 -0.1075
14147TIP3    H263857   5.581   3.092  13.450  0.9068 -0.1332 -0.5457
14148TIP3   OH263858   4.874   5.176   4.304 -0.4376  0.4879 -0.3107
14148TIP3    H163859   4.910   5.257   4.340 -3.1189  1.8675 -0.4553
14148TIP3    H263860   4.783   5.197   4.285 -1.3689 -2.7058  0.0165
14149TIP3   OH263861   1.359   1.637  10.690  0.1937 -0.2569  0.0336
14149TIP3    H163862   1.338   1.729  10.706  0.0758 -0.1033 -0.9389
14149TIP3    H263863   1.299   1.611  10.620 -0.3976 -1.3284  0.9052
14150TIP3   OH263864   0.857   1.529  12.614 -0.1458  0.5320 -0.5764
14150TIP3    H163865   0.951   1.546  12.604 -0.3911  2.0930 -0.4188
14150TIP3    H263866   0.820   1.546  12.527  0.0081 -2.7121 -1.4339
14151TIP3   OH263867   4.438   4.404   0.019 -0.4389  0.4887 -0.1836
14151TIP3    H163868   4.485   4.403  -0.065  1.8775  1.2192  1.0273
14151TIP3    H263869   4.450   4.493   0.052  0.0435 -0.2035  1.6158
14152TIP3   OH263870   6.530   3.728   4.344 -0.4814 -0.3468  0.3025
14152TIP3    H163871   6.562   3.639   4.357 -0.4766 -0.3753  0.1060
14152TIP3    H263872   6.552   3.774   4.425  2.4499  0.3503 -0.7449
14153TIP3   OH263873   5.021   6.595  11.168  0.3047  0.1039  0.1102
14153TIP3    H163874   5.020   6.686  11.139 -2.1396  0.8034  2.0366
14153TIP3    H263875   4.939   6.558  11.135  0.9703 -1.2182 -0.1118
14154TIP3   OH263876   1.149   2.049   0.880 -0.1660 -0.6077 -0.7511
14154TIP3    H163877   1.190   1.994   0.814  0.8070 -0.5560 -0.2119
14154TIP3    H263878   1.218   2.111   0.906 -0.9320  0.2231 -0.6364
14155TIP3   OH263879   1.194   5.295   1.703 -0.0011 -0.1168  0.1090
14155TIP3    H163880   1.282   5.289   1.666 -0.2047  1.1087 -0.6321
14155TIP3    H263881   1.156   5.373   1.662 -1.2502 -0.3346  0.8036
14156TIP3   OH263882   2.493   3.237   0.341  0.3726  0.4210  0.0738
14156TIP3    H163883   2.461   3.322   0.310 -0.5929  0.1731  0.3522
14156TIP3    H263884   2.422   3.203   0.395  2.0827  0.9333  2.8189
14157TIP3   OH263885   1.102   0.076  13.114  0.3042 -0.0835 -0.3063
14157TIP3    H163886   1.122   0.150  13.173  2.0838 -0.3199 -0.5547
14157TIP3    H263887   1.111  -0.001  13.170  0.8555 -0.2358 -0.5935
14158TIP3   OH263888   2.346   3.716   3.477  0.7141 -0.0500 -0.1635
14158TIP3    H163889   2.283   3.674   3.535  0.8377  1.4461  1.1585
14158TIP3    H263890   2.420   3.655   3.474  0.3864 -0.5124  0.6651
14159TIP3   OH263891   4.330   3.257   3.379 -0.4159  0.1341  0.1387
14159TIP3    H163892   4.314   3.179   3.326  0.8082  0.1341 -0.2500
14159TIP3    H263893   4.418   3.285   3.355 -0.7931  1.5799  0.3645
14160TIP3   OH263894   1.542   3.937  11.752  0.2693  0.8629 -0.4674
14160TIP3    H163895   1.591   3.980  11.822 -0.8415 -0.4624  1.1895
14160TIP3    H263896   1.607   3.882  11.708  0.6700  0.5294  0.5201
14161TIP3   OH263897   3.862   4.070   3.452  0.5635 -0.0602 -0.0010
14161TIP3    H163898   3.770   4.081   3.478  0.8929  0.1503  1.1265
14161TIP3    H263899   3.897   4.009   3.517  1.3177  0.1437 -0.2177
14162TIP3   OH263900   0.626   2.454   1.766 -0.4287 -0.3992 -0.5681
14162TIP3    H163901   0.649   2.438   1.857  0.6962 -0.7889 -0.9081
14162TIP3    H263902   0.678   2.530   1.741 -0.1856 -0.7365 -1.0988
14163TIP3   OH263903   4.848   4.110   5.841 -0.4582  0.1496  0.2645
14163TIP3    H163904   4.932   4.144   5.872  0.5940 -0.7394 -1.4766
14163TIP3    H263905   4.784   4.142   5.905  1.1268  1.2389  1.3718
14164TIP3   OH263906   5.538   6.451  16.828 -0.2048  0.7167  0.3186
14164TIP3    H163907   5.442   6.461  16.828 -0.4069 -0.9932 -0.3797
14164TIP3    H263908   5.567   6.499  16.751 -0.8663 -1.4009 -1.3482
14165TIP3   OH263909   1.921   5.620  15.562  0.3889  0.4235  0.6166
14165TIP3    H163910   1.951   5.576  15.641  1.5446  0.0911  0.0047
14165TIP3    H263911   1.825   5.617  15.568  0.4513 -1.1518  1.1425
14166TIP3   OH263912   2.603   0.137  12.344 -0.7545 -0.4494 -0.2615
14166TIP3    H163913   2.557   0.183  12.414 -1.8121  0.1476 -1.3089
14166TIP3    H263914   2.534   0.108  12.285  0.0747 -1.4694 -0.7567
14167TIP3   OH263915   6.032   4.133  14.594 -0.0687 -0.3380  0.5106
14167TIP3    H163916   6.081   4.052  14.576 -2.0729 -1.1307 -1.9482
14167TIP3    H263917   6.067   4.197  14.532 -0.6349 -0.2935  0.2247
14168TIP3   OH263918   4.739   1.768   6.059 -0.7418  0.1013 -0.2117
14168TIP3    H163919   4.769   1.779   6.150  2.0005  1.1100 -1.1517
14168TIP3    H263920   4.787   1.692   6.027  0.8075  1.6181 -1.6995
14169TIP3   OH263921   2.100   4.702   0.273  0.1620 -0.1565  0.1558
14169TIP3    H163922   2.135   4.776   0.225  1.1844 -0.8145 -0.1463
14169TIP3    H263923   2.012   4.690   0.237  0.8314 -0.5114 -1.4527
14170TIP3   OH263924   0.931   6.185   4.587 -0.0917  0.1987 -0.3261
14170TIP3    H163925   0.894   6.218   4.504 -0.0147  1.2726  0.0437
14170TIP3    H263926   1.022   6.166   4.566 -0.3134 -0.4490 -0.7219
14171TIP3   OH263927   5.926   3.612  15.631  0.0229  0.2448 -0.3050
14171TIP3    H163928   5.937   3.682  15.696 -1.4875 -0.7294  1.1074
14171TIP3    H263929   5.857   3.643  15.573 -0.3779  0.1033  0.0899
14172TIP3   OH263930   2.801   4.868   2.168  0.1098  0.1804 -0.1004
14172TIP3    H163931   2.755   4.900   2.246  1.1903 -0.7787  0.9776
14172TIP3    H263932   2.778   4.930   2.099 -1.1426  0.8697  0.8987
14173TIP3   OH263933   0.121   6.468   3.575 -0.7754 -0.1450 -0.2918
14173TIP3    H163934   0.210   6.473   3.611 -1.4552  1.1112  1.3018
14173TIP3    H263935   0.095   6.377   3.590  0.0312 -0.3900 -0.2916
14174TIP3   OH263936   0.280   3.832  10.621  0.3232 -0.1502 -0.0864
14174TIP3    H163937   0.303   3.874  10.538  0.9690 -1.6350 -0.6851
14174TIP3    H263938   0.341   3.870  10.684  0.5772  0.1677 -0.5167
14175TIP3   OH263939   5.730   2.238  12.823  0.2169 -0.1702  0.0579
14175TIP3    H163940   5.699   2.317  12.868 -0.5613 -0.0932 -0.5807
14175TIP3    H263941   5.797   2.269  12.762 -1.1814  0.2722 -1.3281
14176TIP3   OH263942   1.989   0.284  16.592  0.3968 -0.2202  0.4826
14176TIP3    H163943   1.946   0.234  16.662  0.2450 -0.3601  0.2936
14176TIP3    H263944   2.012   0.367  16.633 -3.1088  1.2783 -0.2175
14177TIP3   OH263945   6.629   0.543   0.291  0.5427 -0.2375  0.1962
14177TIP3    H163946   6.697   0.595   0.333  0.1256 -0.6253  1.4072
14177TIP3    H263947   6.585   0.498   0.364 -1.9244  1.0666 -0.3516
14178TIP3   OH263948   0.918   2.272  16.038  0.1862  0.1797 -0.5779
14178TIP3    H163949   0.950   2.239  15.954  0.6934  0.8256 -0.6486
14178TIP3    H263950   0.824   2.284  16.025  0.2919  0.4507 -1.1134
14179TIP3   OH263951   0.166   2.174  15.902  0.0239  0.4408  0.9886
14179TIP3    H163952   0.127   2.090  15.924 -0.7317  0.6138  0.3368
14179TIP3    H263953   0.242   2.181  15.960 -0.6356 -0.1178  1.9449
14180TIP3   OH263954   4.603   1.185  15.577 -0.3123  0.0055  0.1832
14180TIP3    H163955   4.637   1.275  15.570  0.2159 -0.1888  0.2371
14180TIP3    H263956   4.648   1.136  15.509 -0.2347 -0.3320  0.4727
14181TIP3   OH263957   1.417   0.431  16.934 -1.0672 -0.1359 -0.2433
14181TIP3    H163958   1.458   0.444  17.019 -2.0884 -1.0947  0.4119
14181TIP3    H263959   1.491   0.426  16.873 -0.3412  0.7603  0.5435
14182TIP3   OH263960   4.410   6.019  13.227  0.1368 -0.1776 -0.0574
14182TIP3    H163961   4.344   5.994  13.161 -0.1438 -1.0296  0.5348
14182TIP3    H263962   4.362   6.077  13.287 -0.1360 -0.9642  0.4906
14183TIP3   OH263963   2.380   3.210  17.160 -0.1909  0.1636  0.4716
14183TIP3    H163964   2.417   3.263  17.230 -0.9466  1.3618  0.0019
14183TIP3    H263965   2.443   3.218  17.088 -0.8988  1.5284 -0.0426
14184TIP3   OH263966   2.518   5.121  13.352 -0.0704  0.2745  0.4706
14184TIP3    H163967   2.452   5.082  13.294  1.1980 -0.1196 -0.7654
14184TIP3    H263968   2.473   5.132  13.435 -1.1551 -1.7175  0.2108
14185TIP3   OH263969   5.218   3.365  16.866 -0.0136 -0.1840  0.0204
14185TIP3    H163970   5.301   3.353  16.911 -0.4884 -0.7863  0.7654
14185TIP3    H263971   5.230   3.444  16.813  0.6873  0.3247  0.9072
14186TIP3   OH263972   3.257   6.752  11.331  0.0957  0.3224  0.0750
14186TIP3    H163973   3.167   6.732  11.307  0.3509 -0.0425 -0.6114
14186TIP3    H263974   3.309   6.717  11.258  0.7888  0.4919  0.4845
14187TIP3   OH263975   6.344   3.706  15.508 -0.2932  0.7381 -0.2345
14187TIP3    H163976   6.275   3.770  15.526  0.9841  2.3732 -0.8596
14187TIP3    H263977   6.354   3.709  15.412 -0.1963 -0.3971 -0.2646
14188TIP3   OH263978   2.732   3.657  12.770  0.8677 -0.3196 -0.0938
14188TIP3    H163979   2.698   3.572  12.739 -1.1889  1.0879 -2.0137
14188TIP3    H263980   2.783   3.691  12.697 -1.2950  1.6108 -0.8161
14189TIP3   OH263981   5.180   0.850   3.823  0.2320 -0.6661 -0.1623
14189TIP3    H163982   5.213   0.882   3.738 -3.3002  1.1959 -1.0105
14189TIP3    H263983   5.181   0.754   3.814  3.6853 -0.7277 -0.6196
14190TIP3   OH263984   5.173   1.715  12.557  0.0237  0.1333  0.1005
14190TIP3    H163985   5.134   1.632  12.531  3.4351 -1.9465  0.9981
14190TIP3    H263986   5.206   1.753  12.476  0.8284 -0.7690 -0.0067
14191TIP3   OH263987   1.514   3.972   4.380 -0.1001  0.8538  0.5784
14191TIP3    H163988   1.474   3.920   4.310  1.6231  1.3058 -0.8258
14191TIP3    H263989   1.464   3.950   4.458 -0.6238 -1.4869 -0.3216
14192TIP3   OH263990   1.900   6.219  15.661 -0.0413 -0.6570  0.0376
14192TIP3    H163991   1.867   6.253  15.578 -0.5033  0.7165  0.7539
14192TIP3    H263992   1.826   6.173  15.700 -0.2432 -0.1300  0.2908
14193TIP3   OH263993   2.152   3.222  14.804  0.3439  0.4098  0.8054
14193TIP3    H163994   2.088   3.245  14.737  0.5765 -1.3717 -0.0936
14193TIP3    H263995   2.100   3.187  14.876  0.0805  2.4792  1.6775
14194TIP3   OH263996   5.477   4.478   4.039  0.2776  0.7131  0.4103
14194TIP3    H163997   5.529   4.479   3.960 -0.5957  0.2671 -0.1869
14194TIP3    H263998   5.491   4.565   4.078  0.4027  1.0828 -0.4352
14195TIP3   OH263999   5.143   3.225   1.692 -0.0969 -0.0449 -0.2977
14195TIP3    H164000   5.102   3.260   1.771 -0.3011 -1.8741  0.4580
14195TIP3    H264001   5.217   3.283   1.676  0.2961  0.0327  1.5877
14196TIP3   OH264002   5.107   4.435   3.481  0.2361  0.5077 -0.0645
14196TIP3    H164003   5.023   4.472   3.454  0.3504  0.3686 -0.6219
14196TIP3    H264004   5.107   4.347   3.444  0.4289  0.3333  0.3385
14197TIP3   OH264005   0.092   0.291  17.050 -0.6176 -0.3432  0.1870
14197TIP3    H164006   0.154   0.222  17.026 -1.4730 -0.8379 -0.7217
14197TIP3    H264007   0.010   0.264  17.008 -1.2186  0.7352  0.6339
14198TIP3   OH264008   2.084   1.057   5.621  0.0876  0.1344  0.8350
14198TIP3    H164009   2.110   1.147   5.641 -0.1008 -0.1677  2.5633
14198TIP3    H264010   1.990   1.062   5.605  0.3528  0.4874 -0.7947
14199TIP3   OH264011   1.696   1.761  14.016 -0.4825  0.1542 -0.1981
14199TIP3    H164012   1.636   1.769  13.942  0.7861  1.3877 -1.1486
14199TIP3    H264013   1.700   1.849  14.054  0.4570  0.0251  0.0390
14200TIP3   OH264014   5.022   6.161  12.068 -0.2838 -0.7048 -0.4620
14200TIP3    H164015   5.022   6.237  12.011  3.6411 -1.0474 -1.2042
14200TIP3    H264016   5.043   6.195  12.155  0.4192 -0.8372 -0.5794
14201TIP3   OH264017   4.128   5.228  12.465 -0.2383 -0.0519 -0.1263
14201TIP3    H164018   4.104   5.149  12.513  0.4026 -0.0726  0.1675
14201TIP3    H264019   4.196   5.199  12.404  0.5439  0.4130  0.5051
14202TIP3   OH264020   1.914   2.657   5.198 -0.6770 -0.0883 -0.2517
14202TIP3    H164021   1.859   2.671   5.275 -2.6265  0.6934 -1.7000
14202TIP3    H264022   1.861   2.601   5.140 -0.0129  0.7576 -1.7489
14203TIP3   OH264023   0.751   4.308  13.184 -0.3962 -0.7764  0.0837
14203TIP3    H164024   0.827   4.327  13.130 -0.1354  0.9553  0.9789
14203TIP3    H264025   0.696   4.386  13.177 -1.8903 -1.8160 -0.1845
14204TIP3   OH264026   1.564   1.193   2.167 -0.3344 -0.0001  0.2525
14204TIP3    H164027   1.623   1.189   2.241 -0.4279  2.0970  0.4939
14204TIP3    H264028   1.477   1.202   2.206 -0.3351  1.6482 -0.0685
14205TIP3   OH264029   6.177   2.754   6.693 -0.4331 -0.7678 -0.1251
14205TIP3    H164030   6.119   2.735   6.618 -0.4789 -0.2349 -0.2283
14205TIP3    H264031   6.258   2.707   6.673  0.4091  1.1781 -1.6524
14206TIP3   OH264032   5.972   2.254  14.737 -0.6180 -0.2802  0.3117
14206TIP3    H164033   5.956   2.190  14.667 -2.6837 -1.3569  1.6692
14206TIP3    H264034   5.965   2.339  14.694 -0.1481 -0.9125 -1.0841
14207TIP3   OH264035   2.030   6.733  17.093  0.1269  0.2996 -0.1713
14207TIP3    H164036   2.036   6.828  17.090  0.6200  0.3416  1.1645
14207TIP3    H264037   2.004   6.707  17.005 -1.1916  1.7383 -0.2334
14208TIP3   OH264038   2.700   6.734   3.146  0.1784 -0.2090 -0.2070
14208TIP3    H164039   2.640   6.804   3.174 -1.2524 -1.0379 -1.0768
14208TIP3    H264040   2.743   6.706   3.227 -0.6966  0.3357  0.4725
14209TIP3   OH264041   2.495   4.133  16.553 -0.0109  0.2615 -0.4242
14209TIP3    H164042   2.550   4.203  16.518  1.1857  0.6369  2.0002
14209TIP3    H264043   2.418   4.177  16.588 -0.5293  0.0459 -1.2712
14210TIP3   OH264044   0.119   0.127   4.953  0.1953 -0.3917 -0.2082
14210TIP3    H164045   0.099   0.033   4.958  1.5153 -0.8704 -2.6737
14210TIP3    H264046   0.201   0.132   4.903 -0.0869  2.1109 -0.5429
14211TIP3   OH264047   4.842   3.030   3.170  0.0781 -0.6971 -0.1607
14211TIP3    H164048   4.868   3.085   3.096 -1.4907 -0.4615 -0.5850
14211TIP3    H264049   4.822   3.093   3.240  1.2823 -0.9052  0.3841
14212TIP3   OH264050   3.257   3.060  10.957  0.7575  0.1423  0.0921
14212TIP3    H164051   3.217   2.992  11.011  1.3262 -0.8574 -0.7152
14212TIP3    H264052   3.324   3.015  10.906  0.7222  1.1907 -0.9325
14213TIP3   OH264053   3.167   3.984  16.382  0.5536 -0.5914  0.1029
14213TIP3    H164054   3.258   3.985  16.353  0.9222  0.6366  1.1732
14213TIP3    H264055   3.172   3.962  16.476 -0.0888  0.9779  0.5406
14214TIP3   OH264056   0.557   1.964   0.181  0.1633 -0.1660  0.2292
14214TIP3    H164057   0.475   1.915   0.191  1.1321 -1.5489  1.8002
14214TIP3    H264058   0.576   1.960   0.088 -0.9164 -0.8734  0.0192
14215TIP3   OH264059   4.435   1.744  11.335 -0.2272  0.1809 -0.4779
14215TIP3    H164060   4.422   1.799  11.258  0.0911 -0.4536 -0.9961
14215TIP3    H264061   4.373   1.672  11.323  0.5622 -0.4684 -0.6714
14216TIP3   OH264062   3.171   2.057  13.830  0.0792 -0.0630  0.6584
14216TIP3    H164063   3.142   2.139  13.868  0.8548 -0.9082  3.2864
14216TIP3    H264064   3.090   2.010  13.809 -0.3817  0.5818  0.9718
14217TIP3   OH264065   3.987   5.842  12.744  0.0038 -0.3007 -0.2424
14217TIP3    H164066   4.047   5.917  12.754  1.3622 -1.2741 -0.7383
14217TIP3    H264067   3.987   5.824  12.650  0.0006 -1.1469 -0.0891
14218TIP3   OH264068   0.077   4.763  13.572  0.0669  0.3991  0.1590
14218TIP3    H164069   0.092   4.806  13.488 -1.3493  1.0081  0.1819
14218TIP3    H264070   0.164   4.751  13.609  0.9609 -1.9728 -2.3610
14219TIP3   OH264071   6.147   2.172  11.819  0.6326 -0.1481  0.2036
14219TIP3    H164072   6.095   2.172  11.738  1.9292 -0.8984 -0.6622
14219TIP3    H264073   6.124   2.254  11.862 -0.3547  0.1045 -0.7514
14220TIP3   OH264074   2.680   3.525   5.487  0.4308 -0.5364 -0.4155
14220TIP3    H164075   2.590   3.516   5.455  1.1812 -3.9223 -2.1056
14220TIP3    H264076   2.680   3.477   5.570  0.5513 -0.0671 -0.1464
14221TIP3   OH264077   3.396   2.509   3.525 -0.6856 -0.1576  0.4542
14221TIP3    H164078   3.460   2.490   3.457 -1.3178  1.8528 -0.8025
14221TIP3    H264079   3.409   2.441   3.591 -0.6282 -2.7563 -2.0546
14222TIP3   OH264080   4.576   6.057  15.653 -0.8154  0.7624 -0.5263
14222TIP3    H164081   4.565   5.961  15.656 -0.0759  0.6716 -0.6869
14222TIP3    H264082   4.561   6.085  15.743  0.3241  0.3431 -0.1946
14223TIP3   OH264083   0.819   2.682  11.979 -0.9388 -0.4816 -0.5803
14223TIP3    H164084   0.825   2.586  11.982 -0.0722 -0.4422 -0.9628
14223TIP3    H264085   0.797   2.707  12.069  0.3943 -0.9390 -0.1033
14224TIP3   OH264086   5.929   3.440  15.404  0.5135  0.1645 -0.8061
14224TIP3    H164087   5.852   3.496  15.404  1.8628  2.0916 -0.9762
14224TIP3    H264088   5.920   3.388  15.324 -1.3970 -0.8742  0.0078
14225TIP3   OH264089   3.792   2.213  11.994  0.1716 -0.1541 -0.3345
14225TIP3    H164090   3.745   2.250  12.068  0.7005 -2.1926  1.0939
14225TIP3    H264091   3.723   2.174  11.939 -0.0202 -1.5724  0.8447
14226TIP3   OH264092   4.153   5.178  13.656  0.1526  0.0669 -0.1840
14226TIP3    H164093   4.156   5.195  13.750 -1.4210  0.1036 -0.1151
14226TIP3    H264094   4.190   5.257  13.615 -0.1401  0.4946  0.3705
14227TIP3   OH264095   0.453   0.222   2.241 -0.0539  0.2754  0.5353
14227TIP3    H164096   0.548   0.211   2.251 -0.0975 -2.7890 -1.1793
14227TIP3    H264097   0.424   0.141   2.199 -3.0953  2.1390 -1.3091
14228TIP3   OH264098   5.515   1.759   2.536  0.2542  0.3052 -0.2086
14228TIP3    H164099   5.577   1.742   2.465  1.2522 -1.8928  1.1022
14228TIP3    H264100   5.531   1.850   2.560  0.6850  0.7536 -2.0047
14229TIP3   OH264101   4.752   3.030  11.581  0.0746 -0.0332 -0.0141
14229TIP3    H164102   4.766   3.072  11.497 -0.2290  0.0804 -0.0091
14229TIP3    H264103   4.711   2.946  11.559  1.2341 -0.6057 -0.0652
14230TIP3   OH264104   5.526   5.459  12.850  0.0052 -0.7850 -0.7596
14230TIP3    H164105   5.597   5.402  12.822  1.2568 -0.4480  1.4220
14230TIP3    H264106   5.556   5.548  12.829 -1.2031 -0.7677 -2.6391
14231TIP3   OH264107   5.150   1.131   2.931  0.1081 -0.5104 -0.2230
14231TIP3    H164108   5.227   1.077   2.947 -0.4222 -1.5279 -1.0128
14231TIP3    H264109   5.077   1.081   2.967 -0.3154 -0.0281 -0.3922
14232TIP3   OH264110   0.951   4.244  14.662  0.3223  0.4297 -0.3880
14232TIP3    H164111   0.927   4.247  14.755  1.4421 -0.8101 -0.0453
14232TIP3    H264112   0.872   4.274  14.617 -1.1294 -1.3843  0.8265
14233TIP3   OH264113   3.072   4.370   1.001  0.3827 -0.1205  0.0876
14233TIP3    H164114   3.027   4.451   0.978  0.0837 -0.8320 -2.0368
14233TIP3    H264115   3.022   4.334   1.074 -0.5551  0.7225 -0.1228
14234TIP3   OH264116   1.176   4.263   0.986  0.4057  0.5667 -0.2332
14234TIP3    H164117   1.147   4.202   0.918 -1.3112  0.7411  0.2956
14234TIP3    H264118   1.208   4.206   1.056  1.8316  0.3781 -1.0029
14235TIP3   OH264119   1.887   6.581  15.676 -0.7961  0.5793 -0.3713
14235TIP3    H164120   1.864   6.673  15.689 -0.4245  0.4039  1.9470
14235TIP3    H264121   1.805   6.539  15.649 -0.8943  1.5936 -1.7753
14236TIP3   OH264122   5.693   4.277  12.110  0.8883  0.1039 -0.4150
14236TIP3    H164123   5.645   4.308  12.034  0.4823  1.0376  0.1957
14236TIP3    H264124   5.740   4.200  12.080 -2.6715 -2.2648 -0.5207
14237TIP3   OH264125   6.579   1.479  14.620 -0.2744 -0.8746  0.0785
14237TIP3    H164126   6.650   1.426  14.656 -0.1674 -1.3563 -0.8108
14237TIP3    H264127   6.606   1.497  14.530  0.0189  1.2904  0.5454
14238TIP3   OH264128   5.607   6.298  12.337 -0.4296  0.5157 -0.8888
14238TIP3    H164129   5.655   6.363  12.287 -0.4457  0.8232 -0.5089
14238TIP3    H264130   5.672   6.229  12.354 -0.0620  1.0155 -0.2205
14239TIP3   OH264131   0.293   5.604  13.318  0.1898 -0.3000 -0.1999
14239TIP3    H164132   0.264   5.660  13.390 -0.5091  0.7680 -1.2659
14239TIP3    H264133   0.296   5.663  13.243  0.0153 -1.5802 -1.2382
14240TIP3   OH264134   2.839   2.081   0.758  0.1695 -0.6275  0.5158
14240TIP3    H164135   2.830   2.144   0.686  2.1683 -2.5728 -1.5863
14240TIP3    H264136   2.924   2.040   0.744 -1.2626 -4.2845  1.3269
14241TIP3   OH264137   2.887   1.657  14.361  0.3438  0.7909  0.2690
14241TIP3    H164138   2.847   1.620  14.281 -0.6617  1.3526  0.4907
14241TIP3    H264139   2.848   1.606  14.432  1.6234 -0.0511  0.4031
14242TIP3   OH264140   0.814   6.467  11.195  0.0456 -0.4919 -0.7876
14242TIP3    H164141   0.873   6.524  11.145 -0.9548  1.3508  0.0416
14242TIP3    H264142   0.768   6.527  11.255 -1.2020 -2.1620 -0.0123
14243TIP3   OH264143   5.486   6.156  16.807 -0.3506  0.1535 -0.2295
14243TIP3    H164144   5.507   6.224  16.870 -2.0092  1.5151 -1.0470
14243TIP3    H264145   5.410   6.111  16.844 -0.9914  0.6029 -0.9617
14244TIP3   OH264146   3.874   2.787   2.104 -0.2437  0.0373 -0.3104
14244TIP3    H164147   3.903   2.697   2.087  2.4416  0.8247 -0.4038
14244TIP3    H264148   3.924   2.840   2.042 -2.4922  1.5825 -0.9449
14245TIP3   OH264149   0.477   1.213   0.369  0.8707 -0.4390  0.4990
14245TIP3    H164150   0.462   1.120   0.353  1.4719 -0.3285 -0.8760
14245TIP3    H264151   0.439   1.229   0.456 -1.9753 -1.3012 -0.4734
14246TIP3   OH264152   5.391   0.749  14.989  0.0107 -0.3000 -0.4714
14246TIP3    H164153   5.360   0.737  14.899 -1.0570  0.4793 -0.2301
14246TIP3    H264154   5.311   0.765  15.039  0.7772  1.5771  0.2180
14247TIP3   OH264155   6.085   3.967   2.059  0.2342 -0.2212 -0.3425
14247TIP3    H164156   6.135   3.914   2.121  0.2781  0.7730  0.5044
14247TIP3    H264157   6.126   4.054   2.064  0.1078 -0.0692 -1.6294
14248TIP3   OH264158   1.686   5.712  11.369  0.2674  0.0923  0.3317
14248TIP3    H164159   1.627   5.748  11.303 -0.0282  1.1230  1.1167
14248TIP3    H264160   1.749   5.659  11.320  0.8223  1.8171 -0.9436
14249TIP3   OH264161   6.654   5.672   2.250 -0.0668  0.6314 -0.0366
14249TIP3    H164162   6.571   5.717   2.236  0.2168  0.9729 -0.6247
14249TIP3    H264163   6.701   5.680   2.167 -0.2813 -1.3162 -0.4130
14250TIP3   OH264164   5.258   3.662  15.275  0.8285 -0.5478 -0.0269
14250TIP3    H164165   5.300   3.746  15.258  1.0752 -0.8279 -0.8276
14250TIP3    H264166   5.165   3.678  15.258  1.0007 -0.6773 -1.1077
14251TIP3   OH264167   2.597   1.836   0.971 -0.2207  0.8194  0.7043
14251TIP3    H164168   2.672   1.881   1.010  1.2873 -1.8433  1.0902
14251TIP3    H264169   2.524   1.855   1.030  1.1286  0.1012  2.7109
14252TIP3   OH264170   4.276   0.178   2.419 -0.1669 -0.5578  0.3428
14252TIP3    H164171   4.248   0.264   2.387  0.5365  0.0386  1.2865
14252TIP3    H264172   4.365   0.168   2.384  0.7158  0.2155  2.2285
14253TIP3   OH264173   2.686   3.478  13.471 -0.3830 -0.7684 -0.5801
14253TIP3    H164174   2.606   3.526  13.495 -1.0789 -1.2153 -1.8875
14253TIP3    H264175   2.668   3.446  13.382  1.7581  0.1981 -1.4178
14254TIP3   OH264176   6.618   5.933   2.494  0.3235  0.0283  0.0147
14254TIP3    H164177   6.570   6.011   2.523  0.6683 -0.6605  2.7016
14254TIP3    H264178   6.697   5.967   2.452 -0.0251  1.1166  0.2068
14255TIP3   OH264179   0.185   3.732  14.412  0.3277  0.2110 -0.0366
14255TIP3    H164180   0.280   3.728  14.412  0.2918 -0.9229 -0.1123
14255TIP3    H264181   0.159   3.697  14.497 -0.0388  0.2871 -0.1134
14256TIP3   OH264182   3.490   2.085   4.930 -0.0684  0.7971 -0.0982
14256TIP3    H164183   3.453   2.173   4.924 -0.6553  0.4643 -2.2801
14256TIP3    H264184   3.513   2.062   4.839  0.5030 -1.1156  0.4777
14257TIP3   OH264185   2.769   0.328   3.807 -0.3159 -0.2005  0.0210
14257TIP3    H164186   2.740   0.258   3.864  0.1749  0.3893  1.0217
14257TIP3    H264187   2.863   0.335   3.824 -0.3723  0.7412 -0.0280
14258TIP3   OH264188   4.494   0.688  13.419  0.2121  0.3059 -0.4560
14258TIP3    H164189   4.469   0.650  13.504 -0.1549  0.7174 -0.3731
14258TIP3    H264190   4.585   0.663  13.407  0.3741  0.5497  0.2320
14259TIP3   OH264191   5.352   6.772   3.930  0.3542 -0.1633 -0.1517
14259TIP3    H164192   5.385   6.800   3.845 -0.1832 -0.9967 -0.6492
14259TIP3    H264193   5.302   6.692   3.911  1.1314 -0.9704  1.0909
14260TIP3   OH264194   3.272   4.382   2.443 -0.1021 -0.1201  0.3310
14260TIP3    H164195   3.211   4.322   2.400 -0.6286  0.0247  0.8445
14260TIP3    H264196   3.307   4.332   2.516  0.9380 -0.4310 -0.3621
14261TIP3   OH264197   1.868   6.316   0.541  0.4257  0.4281  0.8137
14261TIP3    H164198   1.875   6.232   0.494 -1.1620  0.9878 -0.5386
14261TIP3    H264199   1.871   6.382   0.472 -3.2138  1.2416  1.2434
14262TIP3   OH264200   2.076   2.240  14.467  0.0096  0.3193  0.3054
14262TIP3    H164201   2.082   2.150  14.500 -0.7925  0.7522  1.7141
14262TIP3    H264202   2.043   2.230  14.378 -3.2085 -0.7079  1.4656
14263TIP3   OH264203   5.477   3.063   2.845 -0.2659  0.8004 -0.5479
14263TIP3    H164204   5.501   3.143   2.799  3.6986  1.4560  2.1846
14263TIP3    H264205   5.522   2.993   2.797  2.0755  1.2070  0.9539
14264TIP3   OH264206   1.107   1.425  11.680  0.4672 -0.1842  1.3852
14264TIP3    H164207   1.020   1.410  11.642  0.7813  0.6074  0.3026
14264TIP3    H264208   1.139   1.337  11.701 -0.9684 -0.4261  2.7027
14265TIP3   OH264209   1.302   6.551   2.846 -0.0450 -0.0076 -0.2726
14265TIP3    H164210   1.274   6.513   2.929 -0.9923  0.3216 -0.4276
14265TIP3    H264211   1.381   6.600   2.868  0.2766 -0.7362  0.2352
14266TIP3   OH264212   1.692   6.684  11.602  0.1157 -0.2377 -0.0123
14266TIP3    H164213   1.726   6.640  11.524  1.0912 -0.2308  0.3943
14266TIP3    H264214   1.599   6.698  11.584 -0.2246 -2.4342 -0.1727
14267TIP3   OH264215   0.931   4.651   1.227 -0.3248  0.0019  0.4170
14267TIP3    H164216   0.911   4.582   1.164  2.0670 -0.8253  0.4437
14267TIP3    H264217   0.909   4.732   1.182  1.9509 -0.5017 -1.8936
14268TIP3   OH264218   5.496   5.892   3.619  0.3756 -0.3252 -0.5879
14268TIP3    H164219   5.453   5.865   3.538 -0.3887 -0.3032 -0.1933
14268TIP3    H264220   5.452   5.842   3.688 -0.0555  0.8241 -0.0038
14269TIP3   OH264221   2.266   1.735  14.347  0.0925  0.2136 -0.0710
14269TIP3    H164222   2.301   1.651  14.316 -0.6985  0.4398 -1.6960
14269TIP3    H264223   2.325   1.761  14.417 -0.3001 -2.2493  1.2761
14270TIP3   OH264224   2.254   0.061   4.432  0.3853 -0.1466  0.1930
14270TIP3    H164225   2.250   0.157   4.436 -0.4486 -0.1517 -0.2772
14270TIP3    H264226   2.297   0.042   4.349 -0.7418 -0.1685 -0.4173
14271TIP3   OH264227   1.033   4.671  11.305  0.3095 -0.4621  0.4813
14271TIP3    H164228   1.030   4.575  11.300 -0.7331 -0.3937 -0.9194
14271TIP3    H264229   1.103   4.696  11.244 -0.1771 -0.2931 -0.0111
14272TIP3   OH264230   4.043   4.287  15.468 -0.0870 -0.2067 -0.0314
14272TIP3    H164231   4.110   4.339  15.424 -1.3150 -0.7202 -2.6992
14272TIP3    H264232   4.085   4.202  15.483  1.6295  1.0703  3.5459
14273TIP3   OH264233   2.361   6.425   5.452  0.2601 -0.6218  0.2195
14273TIP3    H164234   2.403   6.501   5.411 -1.2612  0.4913  0.5956
14273TIP3    H264235   2.430   6.360   5.461  2.0362  1.2979  1.3077
14274TIP3   OH264236   1.430   5.702   3.410 -0.3390  0.1999 -0.5686
14274TIP3    H164237   1.515   5.663   3.391 -0.3045 -0.8206  1.4239
14274TIP3    H264238   1.406   5.747   3.329  1.3707 -0.7790 -1.6924
14275TIP3   OH264239   1.651   3.764   5.289  0.0293  0.1375  0.1128
14275TIP3    H164240   1.703   3.693   5.250 -1.0023 -0.3229 -0.4753
14275TIP3    H264241   1.709   3.803   5.355  0.4925 -1.4902  0.7154
14276TIP3   OH264242   5.607   2.717   3.057  0.6420 -0.4335 -0.1078
14276TIP3    H164243   5.539   2.667   3.010 -1.3483 -0.2504  2.3887
14276TIP3    H264244   5.688   2.672   3.036 -0.6782 -2.8001 -0.4866
14277TIP3   OH264245   1.835   3.335   0.813  0.1005 -0.0830 -0.1785
14277TIP3    H164246   1.851   3.361   0.722 -0.5139 -0.7836 -0.4961
14277TIP3    H264247   1.781   3.406   0.849 -2.0487 -1.0839 -1.2055
14278TIP3   OH264248   2.151   2.754   4.979 -0.0121 -0.1560 -0.7163
14278TIP3    H164249   2.071   2.721   5.020 -0.1256  0.3958 -0.4803
14278TIP3    H264250   2.140   2.849   4.979 -0.0613 -0.1340 -2.1133
14279TIP3   OH264251   5.304   0.209   2.472  0.0003  0.0428  0.2697
14279TIP3    H164252   5.208   0.208   2.464  0.0269 -0.7797 -0.0856
14279TIP3    H264253   5.326   0.122   2.505  0.8216 -0.9315 -2.5069
14280TIP3   OH264254   5.882   0.116  14.065  0.3071  0.9562 -0.2565
14280TIP3    H164255   5.813   0.170  14.027 -0.5910  0.4780  0.6266
14280TIP3    H264256   5.836   0.058  14.126  1.6445  1.4721  1.3043
14281TIP3   OH264257   2.434   5.321  15.614  0.0090 -0.0127  0.0592
14281TIP3    H164258   2.422   5.415  15.598 -0.9560 -0.1716 -0.1930
14281TIP3    H264259   2.503   5.317  15.680  2.3373  0.7603 -2.1217
14282TIP3   OH264260   1.095   0.040   1.075  0.2419 -0.0908 -0.3986
14282TIP3    H164261   1.042   0.109   1.115  0.5088  0.0735 -0.3290
14282TIP3    H264262   1.132   0.080   0.996 -0.8178 -0.6144 -1.1827
14283TIP3   OH264263   5.494   4.198   2.298  0.4023  0.0671 -0.5694
14283TIP3    H164264   5.450   4.191   2.383  0.2513 -0.2496 -0.6717
14283TIP3    H264265   5.425   4.185   2.234  0.6167 -0.2781 -0.7336
14284TIP3   OH264266   1.778   4.407   4.582 -0.1138 -0.5298 -0.2806
14284TIP3    H164267   1.830   4.341   4.628 -0.6625 -1.2309 -0.6472
14284TIP3    H264268   1.692   4.402   4.625 -0.7056 -1.3540 -1.5019
14285TIP3   OH264269   3.093   1.565  11.131 -0.0741  0.4590  0.0948
14285TIP3    H164270   3.113   1.513  11.209  0.4632  0.8479  0.2297
14285TIP3    H264271   3.071   1.501  11.064  0.0369  0.0901  0.4032
14286TIP3   OH264272   5.444   1.010  17.170  0.8133 -0.1433  0.0173
14286TIP3    H164273   5.463   1.077  17.104 -1.4520  0.1951 -0.3535
14286TIP3    H264274   5.350   1.018  17.187  1.0751 -1.1647  2.2821
14287TIP3   OH264275   1.687   4.256   0.521  0.0760 -0.0682 -0.0642
14287TIP3    H164276   1.771   4.241   0.564 -0.8008  0.5047  1.9848
14287TIP3    H264277   1.652   4.169   0.503 -0.2509 -0.3996  1.9690
14288TIP3   OH264278   0.312   4.772  16.218 -0.0413  0.2179  0.2437
14288TIP3    H164279   0.366   4.710  16.266 -2.8018 -1.9681  0.7954
14288TIP3    H264280   0.306   4.735  16.130 -2.5920 -1.0753  0.8635
14289TIP3   OH264281   4.584   3.088   0.908 -0.3722  0.9820 -0.2054
14289TIP3    H164282   4.635   3.162   0.940  1.6392 -0.5674  0.4419
14289TIP3    H264283   4.533   3.123   0.835  2.5456  2.4632 -1.6974
14290TIP3   OH264284   2.637   6.547  13.015 -0.1612  0.5281  0.0225
14290TIP3    H164285   2.550   6.563  12.978 -0.4203  2.3184  1.2501
14290TIP3    H264286   2.692   6.616  12.976  0.3575  0.3126  0.3640
14291TIP3   OH264287   1.190   0.960  17.068  0.1285 -0.1638 -0.1356
14291TIP3    H164288   1.197   0.869  17.096  2.1097  0.6764  2.5541
14291TIP3    H264289   1.269   0.976  17.017 -0.2565  0.0334 -0.6754
14292TIP3   OH264290   0.245   4.961   2.319 -0.3259 -0.1759  0.9135
14292TIP3    H164291   0.206   4.888   2.271  0.4832 -0.7999  1.1899
14292TIP3    H264292   0.171   5.018   2.341 -0.6681  0.4195 -1.5059
14293TIP3   OH264293   5.663   3.488  11.074 -0.6461 -0.1608 -0.0332
14293TIP3    H164294   5.732   3.554  11.075 -0.3168 -0.5080  0.2664
14293TIP3    H264295   5.584   3.537  11.052 -0.0998  0.0229 -1.7593
14294TIP3   OH264296   5.664   2.788  15.384  0.1611  0.0849 -0.3190
14294TIP3    H164297   5.667   2.699  15.350  1.6389 -0.1416  0.3495
14294TIP3    H264298   5.633   2.841  15.310 -2.0724 -1.1321 -0.3191
14295TIP3   OH264299   2.351   5.505   1.773  0.3802  0.1691 -0.3292
14295TIP3    H164300   2.290   5.441   1.809 -1.3968  2.4392  0.9373
14295TIP3    H264301   2.317   5.525   1.686  0.7527 -0.3470 -0.5981
14296TIP3   OH264302   5.116   1.445   0.719 -0.2731 -0.1593  0.1540
14296TIP3    H164303   5.158   1.360   0.710  0.3235  0.0130  1.1229
14296TIP3    H264304   5.063   1.455   0.640 -0.0010 -1.2295 -0.1730
14297TIP3   OH264305   0.361   5.296  11.242  0.1107 -0.2381 -0.4222
14297TIP3    H164306   0.368   5.368  11.305  0.8234 -1.7165  1.2689
14297TIP3    H264307   0.417   5.323  11.169 -0.7297  1.5215 -0.4618
14298TIP3   OH264308   2.772   3.976   0.203  0.8677  0.0392 -0.1588
14298TIP3    H164309   2.689   3.947   0.242  0.8246  0.1199 -0.1902
14298TIP3    H264310   2.832   3.982   0.276  0.1950  2.4151  0.2818
14299TIP3   OH264311   0.566   2.302   3.016  0.5766 -0.0620 -0.3967
14299TIP3    H164312   0.648   2.272   3.053  1.3280  2.1718 -0.1212
14299TIP3    H264313   0.540   2.376   3.070 -0.3202  0.8372 -1.9622
14300TIP3   OH264314   5.049   1.643   0.983  0.2435 -0.1957 -0.2782
14300TIP3    H164315   4.957   1.641   1.009 -0.1418 -1.4339 -1.5785
14300TIP3    H264316   5.089   1.708   1.039 -0.9057 -1.3650  2.0271
14301TIP3   OH264317   5.653   4.385  13.165 -0.1866 -0.3513 -0.0977
14301TIP3    H164318   5.675   4.292  13.162 -3.5494 -1.3071  0.2582
14301TIP3    H264319   5.713   4.422  13.230  0.8058 -2.4158  0.2479
14302TIP3   OH264320   3.405   1.581   0.718  0.1553  0.5338 -0.1963
14302TIP3    H164321   3.454   1.639   0.658 -1.7047  0.4673 -1.8964
14302TIP3    H264322   3.396   1.499   0.669 -0.7580  0.2083  0.5005
14303TIP3   OH264323   5.490   0.773  16.982  0.1186 -0.2266  0.4693
14303TIP3    H164324   5.565   0.731  17.024  1.4653  1.3159 -0.2582
14303TIP3    H264325   5.489   0.862  17.019 -0.4909  0.2043 -0.5361
14304TIP3   OH264326   3.177   5.116  14.894 -0.3721 -0.0255 -0.2169
14304TIP3    H164327   3.096   5.136  14.941  0.3607  0.6633  0.7790
14304TIP3    H264328   3.150   5.106  14.803 -1.6831 -0.5189  0.2102
14305TIP3   OH264329   0.332   4.304  11.835 -0.5030  0.3242  0.0915
14305TIP3    H164330   0.315   4.210  11.825 -1.0922  0.5219 -0.7850
14305TIP3    H264331   0.370   4.330  11.751  0.1138  0.7750  0.5079
14306TIP3   OH264332   3.883   2.488  16.512  0.4677 -0.1049  0.2068
14306TIP3    H164333   3.927   2.428  16.452  1.4632 -0.9609  1.7407
14306TIP3    H264334   3.950   2.514  16.575 -0.6490  0.3396  1.2690
14307TIP3   OH264335   3.731   4.223   5.609  0.3683 -0.3489  0.1304
14307TIP3    H164336   3.669   4.287   5.574  0.2194  0.4439  1.7653
14307TIP3    H264337   3.767   4.180   5.531 -0.3634  0.9354 -0.9630
14308TIP3   OH264338   4.831   0.080  13.434  0.0135 -0.2142  0.2462
14308TIP3    H164339   4.833   0.095  13.339  0.2777  0.6187  0.3752
14308TIP3    H264340   4.910   0.123  13.467  0.3489 -1.2026  0.7549
14309TIP3   OH264341   4.747   1.212  17.017 -0.1241 -0.0741 -0.0162
14309TIP3    H164342   4.835   1.177  17.031  0.0967  0.3200 -0.4059
14309TIP3    H264343   4.734   1.207  16.923  0.0090  1.0946 -0.1153
14310TIP3   OH264344   2.419   0.818  12.628  0.1269  0.5810  0.0003
14310TIP3    H164345   2.374   0.900  12.611 -2.5317 -0.5802  0.7959
14310TIP3    H264346   2.413   0.769  12.546  1.7003  1.1237 -0.4709
14311TIP3   OH264347   1.848   2.952  13.303  0.0872  0.3778  0.3931
14311TIP3    H164348   1.919   2.997  13.349 -0.0058 -1.1697  2.1460
14311TIP3    H264349   1.778   3.017  13.298  0.6114  1.0247  1.1876
14312TIP3   OH264350   5.183   6.689   0.280  0.2704 -0.0597 -0.5456
14312TIP3    H164351   5.218   6.775   0.260  0.0072  0.3934  0.8324
14312TIP3    H264352   5.111   6.677   0.218  0.1254  0.8497 -0.5687
14313TIP3   OH264353   6.704   3.360  15.673 -0.4036 -0.2802  0.3464
14313TIP3    H164354   6.745   3.292  15.727 -1.4982 -1.0120  0.2893
14313TIP3    H264355   6.754   3.439  15.692  0.7237 -1.0445  0.6241
14314TIP3   OH264356   6.733   4.725   1.716 -0.7758 -0.0349  0.3934
14314TIP3    H164357   6.750   4.691   1.804 -0.7244  2.0454  1.2404
14314TIP3    H264358   6.642   4.755   1.719 -0.4164  1.1440  0.1569
14315TIP3   OH264359   2.112   4.015  12.989  0.1513  0.4602 -0.2852
14315TIP3    H164360   2.180   3.984  13.049  0.5275 -0.8205 -1.3180
14315TIP3    H264361   2.031   4.009  13.039  0.8726  3.5033  1.5182
14316TIP3   OH264362   0.818   1.308  15.700  0.5083  0.4134 -0.1874
14316TIP3    H164363   0.750   1.330  15.763 -0.5337 -1.4488 -0.6069
14316TIP3    H264364   0.778   1.244  15.642  2.2850  0.0810 -1.1280
14317TIP3   OH264365   2.321   5.944   1.795  0.3127 -0.3150 -0.3513
14317TIP3    H164366   2.336   5.904   1.880  1.7672 -1.4585 -1.0936
14317TIP3    H264367   2.226   5.947   1.786  0.0757  0.9878  1.8091
14318TIP3   OH264368   0.424   4.470   4.357 -0.4301 -0.4658  0.4678
14318TIP3    H164369   0.442   4.459   4.450 -1.3875  0.3099  0.7610
14318TIP3    H264370   0.453   4.559   4.337  0.3341 -0.8354 -0.1289
14319TIP3   OH264371   5.757   5.205   0.809 -0.5661 -0.0068 -0.2598
14319TIP3    H164372   5.682   5.157   0.846  0.6375 -0.9633  1.0588
14319TIP3    H264373   5.772   5.276   0.872 -0.2189  0.0276 -0.3815
14320TIP3   OH264374   5.297   0.347  15.622  0.0393  0.2022 -0.4196
14320TIP3    H164375   5.223   0.326  15.680  0.4889  1.1126  0.5182
14320TIP3    H264376   5.312   0.440  15.636  1.4229  0.0112 -0.5291
14321TIP3   OH264377   3.488   3.072   2.435 -0.9038  0.4763  0.6555
14321TIP3    H164378   3.567   3.089   2.382  0.6516 -0.3720  2.5651
14321TIP3    H264379   3.430   3.145   2.415 -0.5853  0.0409 -2.4335
14322TIP3   OH264380   1.736   0.689   4.650  0.0376 -0.1683  0.7402
14322TIP3    H164381   1.729   0.736   4.733 -0.9010 -2.6290  2.1535
14322TIP3    H264382   1.807   0.627   4.663  0.8446  0.3654 -0.8543
14323TIP3   OH264383   3.914   0.107   6.154 -0.3140 -0.2594  0.1264
14323TIP3    H164384   4.008   0.125   6.145 -0.3567 -0.2259 -0.2736
14323TIP3    H264385   3.908   0.011   6.152 -0.3453 -0.2463 -0.4523
14324TIP3   OH264386   6.674   0.999   2.959 -1.1826 -0.0010  0.1972
14324TIP3    H164387   6.678   1.037   3.047 -1.3800  0.7164 -0.0929
14324TIP3    H264388   6.723   1.060   2.904 -1.2792 -0.3110 -0.2397
14325TIP3   OH264389   1.649   1.865   3.706 -0.1331 -0.2479  0.2652
14325TIP3    H164390   1.743   1.847   3.699  0.1448  1.4452 -0.7932
14325TIP3    H264391   1.621   1.882   3.616 -0.7786  2.3365  0.8803
14326TIP3   OH264392   3.541   3.741   4.571 -0.0133 -0.7209  0.1781
14326TIP3    H164393   3.556   3.700   4.485 -1.2061 -0.0060 -0.3952
14326TIP3    H264394   3.537   3.668   4.632 -1.6066 -1.4681 -0.7465
14327TIP3   OH264395   1.705   6.624   3.516 -0.1958  0.3253 -0.2385
14327TIP3    H164396   1.656   6.669   3.585 -0.0674  0.4625 -0.2357
14327TIP3    H264397   1.639   6.602   3.450 -0.3783 -0.1141  0.0850
14328TIP3   OH264398   1.534   0.124  14.366  0.1211 -0.5715 -0.1637
14328TIP3    H164399   1.469   0.059  14.340 -2.4426  2.0299 -0.7649
14328TIP3    H264400   1.482   0.201  14.391  2.7831  0.1785  3.9811
14329TIP3   OH264401   0.915   6.480  15.198  0.1678 -0.1389  0.0214
14329TIP3    H164402   0.845   6.442  15.250  1.2402  0.1931  1.7943
14329TIP3    H264403   0.943   6.557  15.247  0.3248  1.0151 -1.7698
14330TIP3   OH264404   4.738   5.213  11.030  0.4926  0.7343  0.1888
14330TIP3    H164405   4.730   5.170  11.115  1.8668  1.3958  0.6716
14330TIP3    H264406   4.687   5.293  11.039 -0.0657  0.3954  0.0943
14331TIP3   OH264407   3.016   3.469  13.364 -0.2663 -0.5093 -0.2017
14331TIP3    H164408   2.982   3.385  13.393 -3.2769  0.3876 -0.7963
14331TIP3    H264409   3.031   3.458  13.270 -1.1997 -0.2776 -0.3927
14332TIP3   OH264410   4.337   3.956   5.660  0.0866 -0.1601 -0.4605
14332TIP3    H164411   4.243   3.967   5.675  0.0675 -0.0894 -0.6421
14332TIP3    H264412   4.373   3.942   5.748 -0.5494 -3.6261 -0.6091
14333TIP3   OH264413   0.898   3.056   5.279 -0.4615 -0.1045 -0.1580
14333TIP3    H164414   0.809   3.067   5.246 -0.4292 -0.8519 -0.5165
14333TIP3    H264415   0.929   2.975   5.238  0.1213 -0.2437  0.5352
14334TIP3   OH264416   6.605   0.903  15.549 -0.1693 -0.2240  0.2161
14334TIP3    H164417   6.686   0.954  15.560 -1.3580  1.7412  0.3123
14334TIP3    H264418   6.583   0.913  15.456 -0.1553 -1.0295  0.1184
14335TIP3   OH264419   3.207   0.976  10.548 -0.3788 -0.2874 -0.1174
14335TIP3    H164420   3.149   1.044  10.515 -0.5312 -0.6030 -0.5062
14335TIP3    H264421   3.156   0.896  10.544  0.3464 -0.7134 -1.2303
14336TIP3   OH264422   3.449   5.723   4.328 -0.1446 -0.5501 -0.3865
14336TIP3    H164423   3.423   5.789   4.264 -1.4178  0.4720  1.0935
14336TIP3    H264424   3.449   5.641   4.279 -2.3902 -0.0104 -1.4381
14337TIP3   OH264425   4.727   3.766  14.794  0.1027 -0.1159  0.4189
14337TIP3    H164426   4.763   3.765  14.883  1.0173 -0.8202  0.0590
14337TIP3    H264427   4.803   3.749  14.737 -0.4660  0.3333 -0.4997
14338TIP3   OH264428   5.770   3.558   4.954  0.4444  0.2599 -0.4330
14338TIP3    H164429   5.742   3.623   4.890 -1.1049 -0.0016 -0.0405
14338TIP3    H264430   5.783   3.608   5.035  0.9029  0.3433 -0.5557
14339TIP3   OH264431   6.089   2.925   2.171  0.4614 -0.7548 -0.3568
14339TIP3    H164432   6.037   2.847   2.189 -1.2647  0.3306 -0.4453
14339TIP3    H264433   6.081   2.978   2.250 -0.7666  0.5876 -1.3291
14340TIP3   OH264434   6.229   3.372   1.365 -0.2106 -0.5101 -0.8115
14340TIP3    H164435   6.140   3.344   1.343 -2.4814  2.6303  3.0004
14340TIP3    H264436   6.267   3.299   1.414 -2.4605 -0.4104  1.2364
14341TIP3   OH264437   3.997   5.293   2.232 -0.3044 -0.1596 -0.0181
14341TIP3    H164438   3.904   5.275   2.250 -0.5517 -0.5754 -1.5794
14341TIP3    H264439   3.999   5.324   2.142  0.9467  1.1312  0.4203
14342TIP3   OH264440   4.816   5.744  13.918  0.1772  0.2675  0.0063
14342TIP3    H164441   4.884   5.733  13.984  0.4990 -0.9801 -0.5153
14342TIP3    H264442   4.742   5.781  13.966  1.0937  1.3331  0.6430
14343TIP3   OH264443   1.842   3.040   5.189  0.8772  0.4060  0.3882
14343TIP3    H164444   1.796   2.991   5.121 -1.5443  1.9112  0.8195
14343TIP3    H264445   1.823   2.992   5.270 -0.6217  1.4055  0.6649
14344TIP3   OH264446   5.762   3.213   0.396  0.2076  0.1616  0.1125
14344TIP3    H164447   5.835   3.214   0.458  1.0837 -3.1031 -0.6589
14344TIP3    H264448   5.770   3.296   0.349  4.7012 -0.7299 -1.1903
14345TIP3   OH264449   6.487   5.991   2.031 -0.1792  0.5731  0.4815
14345TIP3    H164450   6.432   5.913   2.026 -1.3869  1.4662 -0.7987
14345TIP3    H264451   6.560   5.973   1.971 -0.1959  0.2380  0.5599
14346TIP3   OH264452   5.438   1.667  14.624  0.0681  0.2341 -0.1206
14346TIP3    H164453   5.392   1.725  14.684  2.0942  1.6863  0.1158
14346TIP3    H264454   5.415   1.699  14.536  0.7104  1.0488 -0.0015
14347TIP3   OH264455   1.150   2.798  12.266  0.4834  0.0129  0.6722
14347TIP3    H164456   1.068   2.848  12.271 -0.9212 -2.0820  0.1803
14347TIP3    H264457   1.207   2.851  12.211 -1.5102  0.3577 -1.2014
14348TIP3   OH264458   1.148   0.396   4.685  0.9372  0.3466 -0.1103
14348TIP3    H164459   1.199   0.319   4.662  0.8077  0.3105 -0.2766
14348TIP3    H264460   1.163   0.458   4.614 -1.3625 -0.6470 -1.5956
14349TIP3   OH264461   2.921   5.493   1.962  0.0743 -0.6166 -0.5235
14349TIP3    H164462   2.988   5.530   1.905 -1.3322  2.2544 -0.5365
14349TIP3    H264463   2.862   5.446   1.903  0.2198 -0.1690 -1.0339
14350TIP3   OH264464   4.696   0.372  14.451 -0.2198  0.0680 -0.3099
14350TIP3    H164465   4.730   0.456  14.421  3.1564 -0.8934  0.4862
14350TIP3    H264466   4.643   0.393  14.528 -1.2571  1.5909 -1.3696
14351TIP3   OH264467   4.371   3.600   0.126  0.6288  0.2941  0.4279
14351TIP3    H164468   4.361   3.695   0.125  0.1474  0.2680  1.5209
14351TIP3    H264469   4.361   3.576   0.218  0.0238 -0.8862  0.0692
14352TIP3   OH264470   4.601   2.929   5.116  0.6515 -0.4965  0.1836
14352TIP3    H164471   4.676   2.875   5.088  0.5598 -0.4345 -0.1862
14352TIP3    H264472   4.533   2.910   5.052  0.8915  0.6898 -0.4303
14353TIP3   OH264473   2.859   3.868  14.652  0.3362 -0.0065 -0.2466
14353TIP3    H164474   2.794   3.802  14.627  1.0469 -1.5450  1.6497
14353TIP3    H264475   2.810   3.949  14.658 -1.3419 -1.0330  0.7220
14354TIP3   OH264476   5.284   0.202   1.606 -0.3575  0.1767  0.4923
14354TIP3    H164477   5.375   0.174   1.600 -0.1269  0.9855  0.0695
14354TIP3    H264478   5.237   0.147   1.544 -0.2518 -0.5667  1.0488
14355TIP3   OH264479   4.160   4.276   2.828  0.2340 -0.2492 -0.8461
14355TIP3    H164480   4.096   4.347   2.837 -0.8343 -1.1295 -1.2620
14355TIP3    H264481   4.194   4.285   2.739 -0.1070 -0.4132 -0.9960
14356TIP3   OH264482   5.258   4.407   0.225  0.1003  0.2436 -0.0758
14356TIP3    H164483   5.176   4.428   0.269  1.1349  1.2722  1.4833
14356TIP3    H264484   5.281   4.486   0.176 -0.2957 -0.3737 -1.2809
14357TIP3   OH264485   1.655   6.443   2.853 -0.1725 -0.3480 -0.1011
14357TIP3    H164486   1.714   6.370   2.835 -1.2702 -0.7636 -2.4873
14357TIP3    H264487   1.573   6.419   2.808 -1.2998  1.3590  0.9211
14358TIP3   OH264488   1.632   5.567   3.132  0.7890 -0.5039  0.1035
14358TIP3    H164489   1.677   5.581   3.215 -0.0428 -0.3722  0.5365
14358TIP3    H264490   1.627   5.472   3.124  0.9284 -0.5175  0.1635
14359TIP3   OH264491   1.640   5.211   5.932 -0.1635 -0.1343  0.2914
14359TIP3    H164492   1.637   5.117   5.951  1.4419  0.0613  1.7676
14359TIP3    H264493   1.616   5.218   5.839 -0.7922 -1.9380  0.2844
14360TIP3   OH264494   0.744   5.464   3.474 -1.0160  0.0428  0.3240
14360TIP3    H164495   0.704   5.516   3.543 -0.4199 -0.0444  0.7415
14360TIP3    H264496   0.761   5.526   3.403 -1.4589  0.1659  0.3237
14361TIP3   OH264497   1.478   0.180   0.077  0.4713  0.0944  0.5846
14361TIP3    H164498   1.413   0.249   0.066  0.9379  0.4834  0.2159
14361TIP3    H264499   1.428   0.104   0.108 -0.4079 -0.0653 -1.0754
14362TIP3   OH264500   0.758   3.049   1.719  0.3755 -0.0380  0.5990
14362TIP3    H164501   0.718   3.009   1.797  0.3895  1.5707  1.4831
14362TIP3    H264502   0.706   3.017   1.646 -1.4638  0.6231  1.5573
14363TIP3   OH264503   6.508   3.087   0.972  0.2957  0.4607  0.1267
14363TIP3    H164504   6.491   3.110   1.063  1.2573  4.3989 -0.5281
14363TIP3    H264505   6.598   3.117   0.956  0.8382 -1.8331 -1.6929
14364TIP3   OH264506   0.591   5.074   3.697 -0.3957  0.2168 -0.0217
14364TIP3    H164507   0.657   5.139   3.723  1.7185 -1.4050 -1.0425
14364TIP3    H264508   0.561   5.104   3.612 -0.3028  0.4909  0.0407
14365TIP3   OH264509   5.952   5.405  13.992 -0.4307 -0.0016 -0.4706
14365TIP3    H164510   5.975   5.400  14.084 -1.3887 -0.1086 -0.2222
14365TIP3    H264511   6.007   5.475  13.956  0.1891 -0.1914  0.0979
14366TIP3   OH264512   1.597   2.147   3.705  0.5963  0.0790  0.3410
14366TIP3    H164513   1.633   2.058   3.696  1.1670  0.4623 -1.6922
14366TIP3    H264514   1.673   2.204   3.695 -0.1627  0.8452 -1.2828
14367TIP3   OH264515   2.650   4.158   5.863  0.1431 -0.0105  0.2631
14367TIP3    H164516   2.613   4.246   5.857 -0.4518 -0.1643  1.4731
14367TIP3    H264517   2.577   4.100   5.841 -0.1575 -0.2834  1.8901
14368TIP3   OH264518   0.641   6.186  16.693  0.3193  0.3080 -0.2841
14368TIP3    H164519   0.679   6.273  16.677 -0.2570  0.1856 -2.8550
14368TIP3    H264520   0.612   6.157  16.606 -1.1376 -1.6990  0.7990
14369TIP3   OH264521   4.923   4.297  17.322 -0.1629 -0.2891 -0.0392
14369TIP3    H164522   4.910   4.332  17.410  1.0348 -0.6435  0.2915
14369TIP3    H264523   4.907   4.203  17.330 -2.5319 -0.0174 -0.7535
14370TIP3   OH264524   4.329   4.875  11.319 -0.1271  0.3520 -0.5126
14370TIP3    H164525   4.238   4.848  11.308 -0.0689 -0.2025  0.2042
14370TIP3    H264526   4.378   4.822  11.256 -0.2977  0.6584 -0.9054
14371TIP3   OH264527   5.495   4.048  14.115 -0.0238  0.4257 -0.0297
14371TIP3    H164528   5.479   4.082  14.027  4.2596  1.2563 -0.7388
14371TIP3    H264529   5.518   4.126  14.167 -1.9423 -0.1169  1.7695
14372TIP3   OH264530   0.583   6.022  15.974  0.3382 -0.1678 -0.0216
14372TIP3    H164531   0.492   6.049  15.989 -0.0254 -0.9928 -0.6862
14372TIP3    H264532   0.591   5.939  16.020  1.0966  0.4147  0.9546
14373TIP3   OH264533   0.270   1.948   5.201 -0.0295 -0.2353  0.1938
14373TIP3    H164534   0.257   2.042   5.212  0.8005 -0.1373  0.3478
14373TIP3    H264535   0.259   1.911   5.289 -0.8342 -0.3514  0.0557
14374TIP3   OH264536   3.759   2.257  13.542  0.0836 -0.4505  0.0230
14374TIP3    H164537   3.696   2.218  13.603  0.3522 -0.5517  0.2396
14374TIP3    H264538   3.819   2.306  13.598 -1.9342  2.8280 -0.3978
14375TIP3   OH264539   3.463   5.587   3.164 -0.7290  0.1977  0.3841
14375TIP3    H164540   3.504   5.551   3.085 -0.2078  1.0470  0.2652
14375TIP3    H264541   3.536   5.612   3.220 -0.9900 -3.2104  2.5334
14376TIP3   OH264542   6.106   1.043  14.387  0.3145 -0.8819 -0.0985
14376TIP3    H164543   6.142   1.094  14.314 -1.8274  0.1794 -0.5024
14376TIP3    H264544   6.068   0.966  14.345  0.8400 -1.2823  0.1512
14377TIP3   OH264545   4.152   1.554   1.985  0.6094 -0.1400  0.6770
14377TIP3    H164546   4.147   1.525   2.076  0.5506 -0.8141  0.4612
14377TIP3    H264547   4.091   1.628   1.980  0.5394 -0.1634  1.1633
14378TIP3   OH264548   6.748   2.699   4.748 -1.0219  0.1991  0.0473
14378TIP3    H164549   6.755   2.785   4.707 -3.9774  0.9242  0.8657
14378TIP3    H264550   6.761   2.637   4.675 -0.5734  1.3236 -0.8611
14379TIP3   OH264551   0.569   3.043  12.394 -0.1436  0.0818  0.2085
14379TIP3    H164552   0.564   3.126  12.442 -0.7994 -1.4843  3.1066
14379TIP3    H264553   0.480   3.032  12.359 -0.3415  0.1655  0.6652
14380TIP3   OH264554   4.581   0.515   6.585 -0.3018 -0.2242 -0.0336
14380TIP3    H164555   4.530   0.550   6.658 -1.8742  1.0558 -1.6727
14380TIP3    H264556   4.517   0.468   6.532  0.6063 -0.2780 -1.1062
14381TIP3   OH264557   4.929   2.003  14.801  0.0416 -0.6180 -0.0479
14381TIP3    H164558   4.897   2.070  14.862  3.2532  0.3940  0.7190
14381TIP3    H264559   4.924   1.921  14.849 -0.4445 -0.3442  0.3760
14382TIP3   OH264560   1.786   2.555   1.323  0.1859 -0.2263 -0.1443
14382TIP3    H164561   1.759   2.530   1.234  1.7635  0.2952 -0.8117
14382TIP3    H264562   1.797   2.650   1.319  0.0758 -0.1734  0.6725
14383TIP3   OH264563   5.378   6.554  16.499 -0.3377 -0.2048  0.3062
14383TIP3    H164564   5.294   6.558  16.545 -1.4801 -1.4969 -1.5590
14383TIP3    H264565   5.387   6.463  16.472 -0.7853  0.7633 -3.7748
14384TIP3   OH264566   3.463   4.014  15.782 -0.2765  0.1768  0.0885
14384TIP3    H164567   3.558   4.005  15.780 -0.3958 -1.4110 -0.1286
14384TIP3    H264568   3.439   4.044  15.694  0.0361  0.9550  0.2594
14385TIP3   OH264569   1.395   1.610   6.593  0.3822  0.1916  0.0709
14385TIP3    H164570   1.332   1.682   6.599 -0.0590 -0.2717  1.3437
14385TIP3    H264571   1.354   1.548   6.532  0.1165  0.3971  0.0378
14386TIP3   OH264572   4.923   2.874  15.951 -0.1353 -0.0331  0.3200
14386TIP3    H164573   4.987   2.821  15.998 -0.1913  0.2062  0.6766
14386TIP3    H264574   4.975   2.929  15.893 -0.1624 -1.6686 -1.3401
14387TIP3   OH264575   2.874   3.624   2.988 -0.1813  0.1597 -0.1829
14387TIP3    H164576   2.912   3.600   3.072  1.2798  1.0790 -0.5357
14387TIP3    H264577   2.791   3.667   3.010  0.2803  0.5650  0.8007
14388TIP3   OH264578   2.388   0.659   5.452 -0.2975 -0.2004 -0.1985
14388TIP3    H164579   2.402   0.746   5.414 -0.2169 -0.3450 -0.4957
14388TIP3    H264580   2.295   0.658   5.474  0.2092  0.9961  2.3571
14389TIP3   OH264581   5.875   5.279  16.893 -0.0098 -0.3778  0.1109
14389TIP3    H164582   5.913   5.264  16.806  0.8080  0.7197  0.2525
14389TIP3    H264583   5.784   5.249  16.885  0.7210 -2.6748 -0.3678
14390TIP3   OH264584   6.485   6.265  15.898  0.0946 -0.5733  0.2379
14390TIP3    H164585   6.472   6.264  15.993  1.7124  1.2058  0.5347
14390TIP3    H264586   6.488   6.357  15.875 -3.5442 -0.8065 -2.1334
14391TIP3   OH264587   3.688   6.639  13.093 -0.2291  0.4060 -0.3350
14391TIP3    H164588   3.657   6.695  13.022  0.1578 -1.9786 -2.5261
14391TIP3    H264589   3.615   6.581  13.112  1.2242 -2.3568 -2.4934
14392TIP3   OH264590   0.067   2.958  15.989 -0.1189 -0.3391  0.2055
14392TIP3    H164591  -0.010   3.015  15.999  0.0107 -0.2246  0.5881
14392TIP3    H264592   0.030   2.872  15.967 -0.2366  0.2799 -2.2656
14393TIP3   OH264593   4.780   5.447  15.211 -0.0929 -0.3668  0.2807
14393TIP3    H164594   4.768   5.354  15.227  0.9967 -0.7949 -1.1564
14393TIP3    H264595   4.727   5.466  15.134  3.0156 -0.8830 -2.2089
14394TIP3   OH264596   1.625   6.353  15.195 -0.6398  0.5350 -0.6586
14394TIP3    H164597   1.568   6.423  15.164 -1.8796  0.8135  1.9869
14394TIP3    H264598   1.640   6.298  15.118 -1.2516  2.5893 -2.3277
14395TIP3   OH264599   5.932   3.398  13.469 -0.5042  0.0334  0.0375
14395TIP3    H164600   6.014   3.379  13.515 -0.7405  1.8470  1.3236
14395TIP3    H264601   5.950   3.480  13.422 -0.6326 -1.1885 -2.3081
14396TIP3   OH264602   5.958   6.242  11.355 -0.5741 -0.0836 -0.4369
14396TIP3    H164603   5.936   6.150  11.339  0.8727 -0.5199 -0.0594
14396TIP3    H264604   6.050   6.249  11.331  0.4775  0.3038  3.0972
14397TIP3   OH264605   0.729   4.051  15.153  0.4481  0.1233 -0.5933
14397TIP3    H164606   0.708   4.028  15.244 -0.9878 -0.7531 -1.1146
14397TIP3    H264607   0.814   4.010  15.137  1.0680  0.8971  0.5568
14398TIP3   OH264608   6.159   3.859   0.502 -0.8142  0.0279 -0.0546
14398TIP3    H164609   6.240   3.906   0.483 -1.3160  1.0324  0.2095
14398TIP3    H264610   6.177   3.810   0.582 -0.1474 -0.5923 -0.5729
14399TIP3   OH264611   4.812   3.723  15.063 -0.3227 -0.3554 -0.4190
14399TIP3    H164612   4.764   3.683  15.136 -1.4169 -0.0619 -0.9545
14399TIP3    H264613   4.834   3.649  15.006  3.3841 -1.1070  1.6633
14400TIP3   OH264614   6.134   2.063   0.561  0.3870  0.0525 -0.4285
14400TIP3    H164615   6.124   2.059   0.656 -1.9788  1.8399 -0.5161
14400TIP3    H264616   6.176   1.981   0.538 -1.2501 -1.5761  1.9214
14401TIP3   OH264617   1.893   5.850  12.951  0.0626  0.1300  0.2897
14401TIP3    H164618   1.799   5.834  12.960  0.3039 -0.7926  1.4079
14401TIP3    H264619   1.906   5.936  12.991 -0.7565  1.8807 -2.8736
14402TIP3   OH264620   2.740   3.378   1.440 -0.1459 -0.3799 -0.0397
14402TIP3    H164621   2.727   3.451   1.501 -0.9373  0.4439 -1.1593
14402TIP3    H264622   2.833   3.357   1.448 -0.2620 -0.4134  1.5731
14403TIP3   OH264623   5.717   0.513   5.022  0.0987 -0.1436 -0.1882
14403TIP3    H164624   5.731   0.519   4.927  0.0601 -0.4338 -0.2137
14403TIP3    H264625   5.686   0.599   5.047 -0.6879 -0.3110 -0.5708
14404TIP3   OH264626   1.707   1.537  13.511  0.0628  0.0753  0.7403
14404TIP3    H164627   1.741   1.587  13.437 -2.4364  0.6388 -0.1256
14404TIP3    H264628   1.666   1.460  13.471  0.3257 -0.5953  1.7265
14405TIP3   OH264629   6.378   5.953   4.168  0.1043 -0.4096 -0.2813
14405TIP3    H164630   6.377   5.997   4.253  0.7807 -0.7451 -0.0894
14405TIP3    H264631   6.336   6.014   4.108  1.0486  0.5172 -0.0303
14406TIP3   OH264632   1.406   3.213   0.163  0.7432 -0.3384  0.0669
14406TIP3    H164633   1.397   3.283   0.228  1.9294 -0.9169  0.9076
14406TIP3    H264634   1.480   3.240   0.108  1.8624 -1.3258  1.0066
14407TIP3   OH264635   2.782   6.148  14.149 -0.2669  0.3464 -0.3558
14407TIP3    H164636   2.733   6.226  14.122 -1.4435 -0.7240 -1.4537
14407TIP3    H264637   2.821   6.116  14.068  0.3720 -0.1020  0.1273
14408TIP3   OH264638   3.603   0.422   0.896  0.1737 -0.2155  0.1751
14408TIP3    H164639   3.591   0.505   0.941 -1.0217  0.7674 -1.7836
14408TIP3    H264640   3.608   0.357   0.966 -0.3111  1.3321  1.7271
14409TIP3   OH264641   3.957   3.330  13.194 -0.0120 -1.0634 -0.1435
14409TIP3    H164642   3.902   3.338  13.273 -0.1234 -2.4777 -0.0382
14409TIP3    H264643   3.929   3.247  13.155 -0.5750  0.0208 -2.1808
14410TIP3   OH264644   0.056   0.361  14.122  1.1353 -0.2360  0.6157
14410TIP3    H164645   0.048   0.267  14.105 -0.7674  0.5293 -4.1968
14410TIP3    H264646   0.150   0.377  14.122  1.4830 -2.0232  0.9553
14411TIP3   OH264647   4.127   6.599  14.145  0.0095  0.8064 -0.7096
14411TIP3    H164648   4.074   6.678  14.135 -1.0522 -0.0892 -3.1528
14411TIP3    H264649   4.199   6.611  14.083  1.5074  1.0495  0.9998
14412TIP3   OH264650   0.444   4.648  11.872  0.3603  0.6461 -0.0974
14412TIP3    H164651   0.493   4.616  11.948  0.9111  0.5010 -0.5142
14412TIP3    H264652   0.490   4.726  11.843  1.4035 -0.4505 -1.5522
14413TIP3   OH264653   3.719   4.871  17.172 -0.3857 -0.0747  0.0031
14413TIP3    H164654   3.632   4.909  17.185 -0.0439  0.6823  0.1050
14413TIP3    H264655   3.773   4.910  17.240  0.3986  0.6557 -1.0064
14414TIP3   OH264656   6.486   3.521   1.999  0.4410 -0.2252  0.1723
14414TIP3    H164657   6.559   3.582   1.991 -0.3317  0.6788 -0.3513
14414TIP3    H264658   6.416   3.561   1.946  0.0863 -1.8498 -0.6661
14415TIP3   OH264659   3.534   1.897  14.066  0.0670  0.4327 -0.1655
14415TIP3    H164660   3.494   1.973  14.025 -1.7850 -0.5990 -0.3412
14415TIP3    H264661   3.462   1.838  14.085  1.5384 -1.8141 -1.0904
14416TIP3   OH264662   4.144   1.565   6.292  0.1284  0.0660  0.3330
14416TIP3    H164663   4.070   1.505   6.307 -0.0320  0.1528 -0.1072
14416TIP3    H264664   4.115   1.622   6.221  0.8360 -0.2520 -0.2176
14417TIP3   OH264665   3.045   2.792   3.986  0.0888  0.0679 -0.0054
14417TIP3    H164666   3.092   2.730   3.930 -0.9608 -0.4190 -0.3732
14417TIP3    H264667   3.082   2.778   4.073 -1.2374 -2.2879  0.2628
14418TIP3   OH264668   5.703   1.428  12.872  0.2210 -0.1598  0.0938
14418TIP3    H164669   5.663   1.427  12.785  0.2061  0.4473  0.0860
14418TIP3    H264670   5.633   1.401  12.931 -0.9219  2.8997  0.3420
14419TIP3   OH264671   1.193   4.826  12.939 -0.4058  0.3396  0.3081
14419TIP3    H164672   1.202   4.916  12.908 -1.3412 -0.5537 -2.9665
14419TIP3    H264673   1.102   4.803  12.922  0.3988 -1.9679 -1.4866
14420TIP3   OH264674   6.382   0.808  15.034 -0.2335  0.0087 -0.4023
14420TIP3    H164675   6.298   0.772  15.061 -1.0371  0.1523 -2.4833
14420TIP3    H264676   6.361   0.896  15.003  0.8064  0.3096 -0.2829
14421TIP3   OH264677   1.517   4.377  13.456 -0.1025 -0.1538 -0.9191
14421TIP3    H164678   1.460   4.368  13.533  1.7488 -1.3281  0.3978
14421TIP3    H264679   1.486   4.310  13.395 -1.4971  0.6952 -1.2049
14422TIP3   OH264680   5.460   3.214  16.666 -0.1443 -0.7407 -0.2900
14422TIP3    H164681   5.517   3.137  16.668  1.3451  0.2691  2.4335
14422TIP3    H264682   5.408   3.207  16.746 -1.1013  0.3028 -0.7962
14423TIP3   OH264683   3.085   2.203   3.141 -0.2402  0.3993  0.0134
14423TIP3    H164684   3.133   2.129   3.104 -1.9068  0.8721 -3.5334
14423TIP3    H264685   3.147   2.244   3.201  1.2368 -2.9557  1.0467
14424TIP3   OH264686   4.720   2.479  17.153  0.3061  0.0003 -0.5206
14424TIP3    H164687   4.630   2.504  17.130  0.5577  0.3785 -1.1128
14424TIP3    H264688   4.752   2.551  17.207 -0.8813 -1.6698  2.6729
14425TIP3   OH264689   6.770   6.042  14.212  0.2751 -0.4314  0.0622
14425TIP3    H164690   6.798   6.130  14.234  1.3481 -0.7528  0.0227
14425TIP3    H264691   6.723   6.051  14.129  2.2019 -0.1655 -1.0501
14426TIP3   OH264692   6.011   5.963  11.386 -0.1190  0.0201  0.3555
14426TIP3    H164693   5.947   5.892  11.386 -0.5946  0.4364  0.8859
14426TIP3    H264694   6.064   5.947  11.464  0.9739 -0.7912 -0.5257
14427TIP3   OH264695   4.565   4.056  11.951  0.5040  0.3799  0.0048
14427TIP3    H164696   4.497   4.092  11.894  1.6177  1.0744 -0.9314
14427TIP3    H264697   4.641   4.111  11.936  1.2069 -0.1992  1.2484
14428TIP3   OH264698   1.351   3.608  14.142  0.0457 -0.1645 -0.0694
14428TIP3    H164699   1.421   3.609  14.077  0.4347  1.7729  0.3068
14428TIP3    H264700   1.303   3.690  14.126 -2.0507 -1.3484 -0.2094
14429TIP3   OH264701   2.151   0.292   6.586  0.1936  0.2394 -0.0122
14429TIP3    H164702   2.197   0.351   6.526 -0.7380  0.5280 -0.4588
14429TIP3    H264703   2.102   0.350   6.644  0.6658 -0.0543  0.7007
14430TIP3   OH264704   4.820   0.373  13.640 -0.3680 -0.0087 -0.3799
14430TIP3    H164705   4.865   0.344  13.720 -0.6902 -1.3965 -0.6819
14430TIP3    H264706   4.871   0.337  13.568  0.3541  1.8672 -0.8705
14431TIP3   OH264707   4.833   4.849  14.034  0.3798 -0.0740  0.8584
14431TIP3    H164708   4.753   4.897  14.053  0.2469 -0.8879  2.4991
14431TIP3    H264709   4.804   4.775  13.981  0.1830  0.1059  0.7090
14432TIP3   OH264710   2.682   5.145   0.658 -0.4680 -0.3685 -0.1783
14432TIP3    H164711   2.716   5.194   0.733  1.3703 -0.1628 -1.1007
14432TIP3    H264712   2.659   5.059   0.693  1.5442 -0.7086  0.4220
14433TIP3   OH264713   0.168   0.373   2.054 -0.9532  0.3335  0.3426
14433TIP3    H164714   0.088   0.406   2.095  0.1488  2.1946  1.1592
14433TIP3    H264715   0.238   0.424   2.096  0.6991 -1.5020 -0.0494
14434TIP3   OH264716   2.368   6.197   1.099 -0.9301 -0.0518  0.4106
14434TIP3    H164717   2.450   6.225   1.060 -1.3184 -1.1543 -1.3170
14434TIP3    H264718   2.393   6.133   1.165 -0.4304 -2.2917 -1.8074
14435TIP3   OH264719   0.096   4.174  16.848  0.7086  0.7391  0.4241
14435TIP3    H164720   0.158   4.237  16.884 -1.0517  2.2481  1.0358
14435TIP3    H264721   0.114   4.173  16.755  0.6974  2.3142  0.3715
14436TIP3   OH264722   5.092   1.120  16.773  0.3869 -0.5483  0.5819
14436TIP3    H164723   5.030   1.185  16.739 -0.1027 -1.1182  0.3584
14436TIP3    H264724   5.174   1.140  16.727  1.0967  1.7395  2.6211
14437TIP3   OH264725   0.276   6.034   0.582 -0.3011  0.2777 -0.8244
14437TIP3    H164726   0.201   6.016   0.639  1.1325 -2.2843  0.4562
14437TIP3    H264727   0.237   6.052   0.496 -2.4071  0.5917  0.1219
14438TIP3   OH264728   0.897   5.309  11.622  0.3264  0.5872 -0.1516
14438TIP3    H164729   0.887   5.234  11.680 -3.6218  0.0446 -1.2713
14438TIP3    H264730   0.865   5.383  11.673  1.1726  0.9813 -0.1639
14439TIP3   OH264731   1.171   4.809  16.268  0.1159 -0.6501  0.3358
14439TIP3    H164732   1.112   4.884  16.257  0.4393 -0.5185 -0.5475
14439TIP3    H264733   1.252   4.836  16.225 -0.2510 -2.0897 -1.3383
14440TIP3   OH264734   5.440   5.536  15.073 -0.1785 -0.2053 -0.5218
14440TIP3    H164735   5.522   5.585  15.068  0.1816 -0.8386 -1.0501
14440TIP3    H264736   5.382   5.579  15.009 -0.4423  0.5592  0.2167
14441TIP3   OH264737   0.947   3.736   2.804  0.2342 -0.6616 -0.0572
14441TIP3    H164738   0.913   3.646   2.805  0.0190 -0.5871  0.7862
14441TIP3    H264739   1.037   3.728   2.834  0.7710 -0.7756 -1.6145
14442TIP3   OH264740   6.563   3.803   2.110 -0.5115 -0.2983 -0.2623
14442TIP3    H164741   6.514   3.817   2.191 -2.0828  2.2908 -1.5419
14442TIP3    H264742   6.596   3.889   2.086  1.2966 -1.2896 -1.5711
14443TIP3   OH264743   6.030   3.231   2.664 -0.1328  0.6065 -0.3023
14443TIP3    H164744   6.042   3.322   2.637  0.5929  1.4395  2.5530
14443TIP3    H264745   5.936   3.224   2.682  0.0268  1.2697  0.8935
14444TIP3   OH264746   4.057   0.039   3.659 -0.1184  0.0248  0.0564
14444TIP3    H164747   4.114  -0.026   3.700 -0.6590 -0.3054  0.2984
14444TIP3    H264748   3.991  -0.013   3.613 -0.6235  0.3985  0.3483
14445TIP3   OH264749   1.767   0.678   5.959 -0.6125  0.0197  0.7112
14445TIP3    H164750   1.817   0.758   5.946 -1.0148  0.0563 -0.7997
14445TIP3    H264751   1.816   0.611   5.912 -2.0080  0.0877 -0.9245
14446TIP3   OH264752   4.793   5.951  11.987  0.3062  0.1544  0.0326
14446TIP3    H164753   4.842   5.962  12.069 -1.3103 -1.0004  1.2247
14446TIP3    H264754   4.733   6.026  11.985 -1.8052 -1.3491  1.5924
14447TIP3   OH264755   2.783   3.752   2.637 -0.0390 -0.0424  0.0428
14447TIP3    H164756   2.732   3.685   2.682  0.4571 -0.1093  0.5119
14447TIP3    H264757   2.751   3.835   2.672 -0.9280 -0.0040 -0.8235
14448TIP3   OH264758   5.166   6.078  12.952 -0.0179 -0.1578  0.1716
14448TIP3    H164759   5.224   6.082  13.029 -1.5336 -2.2923  1.5417
14448TIP3    H264760   5.084   6.116  12.983  0.2714  1.8806 -1.4286
14449TIP3   OH264761   1.313   4.217  15.917  0.8266 -0.3780 -0.2163
14449TIP3    H164762   1.260   4.294  15.937 -0.6882 -1.0113 -1.4991
14449TIP3    H264763   1.401   4.251  15.900  0.5221  0.8775  0.6202
14450TIP3   OH264764   0.714   0.577  16.421 -0.3505 -0.0930 -0.1009
14450TIP3    H164765   0.636   0.579  16.477  1.5829 -1.6729  2.8819
14450TIP3    H264766   0.741   0.485  16.420  1.9455  0.5205 -0.3310
14451TIP3   OH264767   3.592   4.845   0.111  0.3954 -0.3583 -0.1695
14451TIP3    H164768   3.572   4.867   0.202  2.0889 -0.4957  0.2605
14451TIP3    H264769   3.671   4.896   0.091  1.0570 -1.6624 -0.9961
14452TIP3   OH264770   1.257   0.132  12.345 -0.0666  0.0467  0.9846
14452TIP3    H164771   1.295   0.206  12.297 -0.2764 -0.6774 -0.3670
14452TIP3    H264772   1.288   0.142  12.434  2.3960  0.1166  0.1858
14453TIP3   OH264773   2.644   5.671  15.597  0.2949  0.3936 -0.4055
14453TIP3    H164774   2.696   5.739  15.555 -1.4703  0.7541 -2.1520
14453TIP3    H264775   2.553   5.696  15.580 -0.4139 -1.9944 -0.5030
14454TIP3   OH264776   0.312   5.166  15.794 -0.3798  0.2756 -0.6350
14454TIP3    H164777   0.382   5.118  15.749 -1.1472  0.2537 -1.8587
14454TIP3    H264778   0.282   5.107  15.862  0.8593  0.3278 -0.0159
14455TIP3   OH264779   4.562   2.193   2.953 -0.2359  0.6323 -0.3102
14455TIP3    H164780   4.609   2.249   3.015 -0.5312  0.6380 -0.0858
14455TIP3    H264781   4.477   2.236   2.942  0.2257  1.2636 -1.6327
14456TIP3   OH264782   2.245   4.435  11.561  0.0221  0.0343  0.0206
14456TIP3    H164783   2.306   4.428  11.487 -0.4019 -0.2288 -0.3137
14456TIP3    H264784   2.159   4.415  11.522 -0.2562  0.2823  0.5078
14457TIP3   OH264785   4.790   0.417   0.793 -0.3523 -0.3114 -0.0041
14457TIP3    H164786   4.736   0.341   0.818  1.3818 -1.2590  0.9972
14457TIP3    H264787   4.868   0.378   0.753  1.4457  0.8184  2.2233
14458TIP3   OH264788   0.375   3.908  13.316  0.3412 -0.9027  0.2891
14458TIP3    H164789   0.425   3.989  13.309 -0.0578 -0.6380  0.5016
14458TIP3    H264790   0.285   3.936  13.329  0.1555 -1.3788  0.0652
14459TIP3   OH264791   2.812   0.894  11.412  0.0913  0.4068  0.3727
14459TIP3    H164792   2.762   0.860  11.338  1.0928 -0.2989  0.0018
14459TIP3    H264793   2.755   0.880  11.488 -0.2866 -0.3572 -0.0417
14460TIP3   OH264794   6.382   5.466   1.758 -0.1429 -0.0457  0.2718
14460TIP3    H164795   6.388   5.456   1.663 -5.2692  1.7171 -0.5931
14460TIP3    H264796   6.329   5.392   1.787 -0.3792  0.5132  1.3291
14461TIP3   OH264797   3.758   2.541  14.565 -0.1687  0.4690 -0.4582
14461TIP3    H164798   3.762   2.628  14.526 -0.5798  1.2866  1.2524
14461TIP3    H264799   3.666   2.531  14.590 -0.4842 -1.1241 -2.0239
14462TIP3   OH264800   4.485   1.370  11.342 -0.5158 -0.5154  0.1316
14462TIP3    H164801   4.410   1.424  11.316 -1.2162 -1.3721  0.3284
14462TIP3    H264802   4.552   1.433  11.368 -0.8806  0.2843 -0.8031
14463TIP3   OH264803   1.158   4.356   2.415 -0.6450 -0.3001 -0.6698
14463TIP3    H164804   1.203   4.361   2.330  0.1593  0.3959 -0.2179
14463TIP3    H264805   1.066   4.340   2.393 -0.4906  0.1406 -1.6819
14464TIP3   OH264806   0.536   4.935  16.113  0.4850  0.1793  0.3931
14464TIP3    H164807   0.534   4.855  16.060  1.3970 -1.5173  2.7754
14464TIP3    H264808   0.468   4.922  16.179  1.3693  0.8706  1.4684
14465TIP3   OH264809   5.245   2.705   2.428  0.4359 -0.3565  0.1277
14465TIP3    H164810   5.182   2.713   2.499 -0.6564 -2.9094 -0.4476
14465TIP3    H264811   5.323   2.668   2.469  1.2935  1.8990  0.6588
14466TIP3   OH264812   3.401   4.042   5.019  0.3408  0.2082  0.0018
14466TIP3    H164813   3.418   3.981   4.947  2.0925 -0.4679  0.9315
14466TIP3    H264814   3.473   4.105   5.015  1.0975 -0.4828  1.7937
14467TIP3   OH264815   6.721   4.964  17.002  0.0561 -0.0912 -0.5202
14467TIP3    H164816   6.655   4.975  17.071  0.5084  1.6425 -0.3024
14467TIP3    H264817   6.699   5.031  16.937  1.5313  0.4905 -0.4718
14468TIP3   OH264818   5.006   4.636  15.856  0.1090  0.1580  0.3075
14468TIP3    H164819   5.033   4.549  15.826 -1.1313  0.3715 -1.5811
14468TIP3    H264820   4.921   4.622  15.897  0.9031  0.1858  2.0502
14469TIP3   OH264821   4.032   1.502  11.185 -0.2653 -0.0303  0.0443
14469TIP3    H164822   4.004   1.594  11.186  0.9322  0.3526 -0.2781
14469TIP3    H264823   3.974   1.459  11.248 -0.3768  1.0859  0.7338
14470TIP3   OH264824   5.830   6.104  16.719  0.1713  0.4696  0.0023
14470TIP3    H164825   5.899   6.100  16.784  1.2390  2.4686 -0.9089
14470TIP3    H264826   5.765   6.163  16.757 -0.2256 -0.0366  0.1246
14471TIP3   OH264827   0.147   2.340   2.289  0.1470 -0.1394  0.1979
14471TIP3    H164828   0.161   2.427   2.253 -1.7862  0.5611  1.0238
14471TIP3    H264829   0.098   2.294   2.221 -0.5812  0.0930  0.5541
14472TIP3   OH264830   3.440   1.203   3.407  0.4274 -0.7360 -0.0533
14472TIP3    H164831   3.420   1.233   3.495  0.3780  1.0305 -0.6401
14472TIP3    H264832   3.366   1.232   3.354  0.5909 -1.5252 -0.7479
14473TIP3   OH264833   5.921   1.997   2.512 -0.0985  0.5011  0.1335
14473TIP3    H164834   5.847   2.057   2.506  0.5970  1.4383  0.7062
14473TIP3    H264835   5.973   2.030   2.585  2.9455  2.2756 -2.5378
14474TIP3   OH264836   0.828   5.611  12.936 -0.2249  0.2227  0.0479
14474TIP3    H164837   0.776   5.609  12.856  0.6484  0.8114 -0.5517
14474TIP3    H264838   0.865   5.522  12.943  0.2267  0.3609 -0.5626
14475TIP3   OH264839   1.345   3.018   3.750  0.5504  0.2326  0.1365
14475TIP3    H164840   1.324   3.100   3.706  2.4940  2.2714  2.7237
14475TIP3    H264841   1.433   2.995   3.719  0.4146 -0.3647  0.1740
14476TIP3   OH264842   3.496   2.131   1.450 -0.0846  0.6119  0.5213
14476TIP3    H164843   3.543   2.198   1.399  0.6338 -0.5861 -0.4422
14476TIP3    H264844   3.465   2.069   1.384 -1.8305  0.6308  1.2833
14477TIP3   OH264845   1.692   5.461   1.440  0.2900  0.0806  0.0304
14477TIP3    H164846   1.616   5.478   1.384 -0.0798  1.8641  0.9953
14477TIP3    H264847   1.690   5.366   1.454  0.6326 -0.5299 -3.2178
14478TIP3   OH264848   0.729   5.128   2.781 -0.0649 -0.0647 -0.2610
14478TIP3    H164849   0.729   5.040   2.742 -1.1841 -1.1257  1.9331
14478TIP3    H264850   0.766   5.115   2.868 -5.4188  0.3562  2.4646
14479TIP3   OH264851   3.936   4.962   5.049  0.0282  0.2185  0.3761
14479TIP3    H164852   3.872   5.013   5.100  1.7831  1.9062  1.0457
14479TIP3    H264853   3.958   4.888   5.105 -0.8438 -0.0268  0.4088
14480TIP3   OH264854   5.587   2.525  15.594  0.0772  0.4600 -0.0469
14480TIP3    H164855   5.682   2.522  15.607  0.1984  0.8977 -0.7984
14480TIP3    H264856   5.555   2.584  15.662  0.0582 -1.3950  1.6541
14481TIP3   OH264857   0.968   3.625   5.215  0.2288 -1.1474 -0.5600
14481TIP3    H164858   1.025   3.658   5.146 -0.5041 -0.4932 -0.8578
14481TIP3    H264859   1.003   3.664   5.296 -0.3175 -0.0226 -0.8460
14482TIP3   OH264860   4.096   1.267   4.186 -0.3054 -1.0814  0.0600
14482TIP3    H164861   4.052   1.303   4.109 -0.7250 -1.9853 -0.1430
14482TIP3    H264862   4.189   1.268   4.164 -0.2670  0.1495  0.1902
14483TIP3   OH264863   5.404   1.468   3.945  0.2502 -0.1957  0.2486
14483TIP3    H164864   5.494   1.475   3.912 -0.6209 -0.9160 -2.5913
14483TIP3    H264865   5.356   1.536   3.898 -1.2576 -1.8240 -0.6780
14484TIP3   OH264866   0.089   1.725   5.066  0.3083  0.2383 -0.0637
14484TIP3    H164867   0.019   1.750   5.127 -0.7852  0.8778 -1.5265
14484TIP3    H264868   0.148   1.800   5.064  0.2496  0.2874  0.0734
14485TIP3   OH264869   5.988   0.643  13.156 -0.3225 -0.0260  0.3613
14485TIP3    H164870   5.959   0.601  13.236 -0.0291 -0.1469  0.4049
14485TIP3    H264871   6.001   0.571  13.094 -1.8654  0.1526 -0.2330
14486TIP3   OH264872   6.589   0.328  14.629  0.3433  0.0682  0.0041
14486TIP3    H164873   6.616   0.372  14.548  0.7265  0.5740  0.4005
14486TIP3    H264874   6.538   0.253  14.599  1.1925 -0.2367 -0.7238
14487TIP3   OH264875   6.184   1.770  11.554  0.2877  0.3383  0.1147
14487TIP3    H164876   6.207   1.690  11.602  2.1465  1.3351  0.9807
14487TIP3    H264877   6.092   1.757  11.530  0.6145 -2.2150 -0.1182
14488TIP3   OH264878   0.655   3.274   4.286  0.2098 -0.2229  0.2542
14488TIP3    H164879   0.712   3.317   4.349  0.8682 -2.1992  1.1028
14488TIP3    H264880   0.569   3.314   4.299  1.3486  3.0118 -1.2486
14489TIP3   OH264881   1.492   1.015  17.037 -0.1436 -0.1859  0.1472
14489TIP3    H164882   1.487   1.090  17.096 -2.0839 -0.2292  0.0732
14489TIP3    H264883   1.559   0.959  17.077 -0.3818  0.4581  1.5202
14490TIP3   OH264884   4.141   4.159   0.520  0.4373  0.0485  0.2791
14490TIP3    H164885   4.173   4.128   0.605  0.1456  0.9258  0.7140
14490TIP3    H264886   4.122   4.251   0.533  0.0163  0.1058 -0.6420
14491TIP3   OH264887   2.485   3.965   2.288  0.0323  0.7458 -0.1447
14491TIP3    H164888   2.480   4.051   2.329  0.8855  0.9762 -0.4878
14491TIP3    H264889   2.466   3.981   2.196  2.4690  0.9862 -0.6705
14492TIP3   OH264890   2.518   5.830   2.012 -0.2058 -0.1328  0.0356
14492TIP3    H164891   2.509   5.754   1.954 -3.7489 -0.7599  1.1615
14492TIP3    H264892   2.513   5.793   2.100 -1.0551  1.2849  0.6172
14493TIP3   OH264893   0.660   4.171  15.953 -0.6106 -0.0644 -0.1068
14493TIP3    H164894   0.703   4.117  16.019  0.4002  1.0936  0.2037
14493TIP3    H264895   0.666   4.119  15.873 -0.8058 -0.9668  0.4418
14494TIP3   OH264896   3.766   6.072  11.620  0.3005 -0.1442 -0.4693
14494TIP3    H164897   3.840   6.020  11.589  0.4315 -0.0896 -0.2489
14494TIP3    H264898   3.704   6.007  11.654  1.1181 -0.0907  1.2326
14495TIP3   OH264899   0.882   4.144  12.817  0.4494 -0.2585 -0.0807
14495TIP3    H164900   0.908   4.176  12.731  2.3550  1.1483  0.9523
14495TIP3    H264901   0.932   4.063  12.829 -0.5715 -1.0014 -0.6529
14496TIP3   OH264902   1.695   6.607   4.980  0.4849 -0.1459 -0.7271
14496TIP3    H164903   1.767   6.585   4.921  0.2238 -0.6553 -0.8645
14496TIP3    H264904   1.722   6.575   5.065  0.8805  0.6270 -0.5472
14497TIP3   OH264905   2.210   1.754  12.518  0.6276  0.1016 -0.2730
14497TIP3    H164906   2.144   1.823  12.518  1.8683  1.3848  1.0433
14497TIP3    H264907   2.210   1.721  12.608  0.9775 -0.6876 -0.5498
14498TIP3   OH264908   2.224   2.616   0.712  0.9673  0.0983 -0.0589
14498TIP3    H164909   2.131   2.607   0.692  0.8243  1.5917 -0.1836
14498TIP3    H264910   2.231   2.598   0.805  0.2028  1.9179  0.4002
14499TIP3   OH264911   0.169   5.751   0.450 -0.1304  0.4151  0.4478
14499TIP3    H164912   0.215   5.701   0.517 -0.6509  1.7557  1.8650
14499TIP3    H264913   0.078   5.721   0.456 -0.0965  0.2389  0.0593
14500TIP3   OH264914   3.287   2.152  16.815  0.3659  0.3347 -0.6881
14500TIP3    H164915   3.283   2.184  16.905 -0.2387 -0.4226 -0.4356
14500TIP3    H264916   3.349   2.079  16.818  1.0779  0.9096 -1.0892
14501TIP3   OH264917   0.259   3.935  12.097  0.2412 -0.1470 -0.0848
14501TIP3    H164918   0.196   4.007  12.090 -1.0389 -1.0417  1.5630
14501TIP3    H264919   0.332   3.962  12.041 -0.5498  2.0394 -0.1702
14502TIP3   OH264920   2.430   3.991  15.960  0.4419 -0.1091 -0.0317
14502TIP3    H164921   2.450   3.900  15.939  1.0868 -0.4725  1.9134
14502TIP3    H264922   2.466   4.003  16.048 -0.1738  1.8520 -0.0115
14503TIP3   OH264923   2.093   2.390  15.975  0.2511 -0.2147  0.1310
14503TIP3    H164924   2.158   2.459  15.967  2.2192 -1.8891  0.7072
14503TIP3    H264925   2.054   2.402  16.062  1.7275 -0.7173  0.8974
14504TIP3   OH264926   1.322   4.944  12.351  0.3800 -0.2632 -0.6522
14504TIP3    H164927   1.329   5.031  12.312  0.5507 -0.6585 -1.5327
14504TIP3    H264928   1.410   4.925  12.385  0.3282 -0.0758 -0.4097
14505TIP3   OH264929   3.799   3.555   4.364 -0.4442  0.6418 -0.5279
14505TIP3    H164930   3.705   3.542   4.355 -0.2447 -0.6689 -0.9327
14505TIP3    H264931   3.836   3.466   4.363  0.8628  1.1610 -1.2539
14506TIP3   OH264932   0.073   2.689   3.587 -0.5649  0.1923  0.4540
14506TIP3    H164933   0.000   2.733   3.543  0.3244  0.7163 -0.5226
14506TIP3    H264934   0.031   2.617   3.635 -1.5180 -0.8676 -1.8053
14507TIP3   OH264935   4.190   0.675  13.821  0.0551 -0.5764 -0.4159
14507TIP3    H164936   4.130   0.691  13.748 -3.2213 -3.7766  1.2479
14507TIP3    H264937   4.265   0.631  13.781  0.5350  1.6853 -2.2883
14508TIP3   OH264938   6.562   5.963   0.894 -0.8114 -0.1325 -0.0022
14508TIP3    H164939   6.602   6.029   0.951 -0.2173  0.2621 -0.8597
14508TIP3    H264940   6.484   6.007   0.859 -0.7760 -0.1192 -0.0641
14509TIP3   OH264941   6.427   1.647   0.236 -0.1286 -0.2937  0.3432
14509TIP3    H164942   6.481   1.715   0.196  1.3717 -1.7077 -0.1368
14509TIP3    H264943   6.486   1.602   0.298 -1.4272 -0.3945  1.5707
14510TIP3   OH264944   5.638   1.168   4.344  0.1911  0.1043 -0.2347
14510TIP3    H164945   5.603   1.257   4.348 -1.9245 -0.6657  0.1638
14510TIP3    H264946   5.631   1.135   4.433  1.1858 -0.3864 -0.3303
14511TIP3   OH264947   5.268   5.684  14.922  0.6504 -0.0741 -0.4685
14511TIP3    H164948   5.181   5.643  14.926  0.1840  0.7223 -1.7247
14511TIP3    H264949   5.258   5.755  14.858  1.7344  1.2651  0.7767
14512TIP3   OH264950   5.843   0.839   5.606 -0.1811 -0.3156  0.1367
14512TIP3    H164951   5.799   0.823   5.523 -0.3757  0.4381  0.0852
14512TIP3    H264952   5.840   0.755   5.652 -0.2053 -0.6933 -0.5521
14513TIP3   OH264953   2.327   1.185   3.396  0.3767 -0.8212 -0.2416
14513TIP3    H164954   2.267   1.258   3.409  1.2625 -0.1262 -0.0368
14513TIP3    H264955   2.269   1.109   3.387 -0.5802 -0.0225 -1.1221
14514TIP3   OH264956   0.754   1.903   6.760  0.0214  0.7560  0.1922
14514TIP3    H164957   0.784   1.910   6.851 -1.5708  2.0801  0.6635
14514TIP3    H264958   0.827   1.862   6.714  0.9479  0.2274  2.0213
14515TIP3   OH264959   6.130   3.926  13.225  0.0272  0.2000  0.2686
14515TIP3    H164960   6.120   3.990  13.295 -1.1398 -0.6945  0.9593
14515TIP3    H264961   6.145   3.843  13.271 -2.6719 -0.7656 -0.3833
14516TIP3   OH264962   2.548   4.379   3.592 -0.3852  0.5652  0.0228
14516TIP3    H164963   2.596   4.365   3.674 -0.2393 -2.0294 -0.4085
14516TIP3    H264964   2.549   4.474   3.579  3.6098  0.7845  0.6640
14517TIP3   OH264965   2.791   1.124   0.349 -0.1111  0.3781  0.1509
14517TIP3    H164966   2.827   1.051   0.299  1.7327  0.8169  0.7592
14517TIP3    H264967   2.715   1.152   0.299 -2.0996 -3.1418  0.8889
14518TIP3   OH264968   3.312   5.359   4.014 -0.0105  0.0735 -0.2553
14518TIP3    H164969   3.258   5.283   4.034  0.2277 -0.4663 -1.5505
14518TIP3    H264970   3.251   5.423   3.976 -0.1898  0.5010  0.7247
14519TIP3   OH264971   1.872   4.451   0.030  0.0225 -0.5939  0.8174
14519TIP3    H164972   1.782   4.446  -0.003  0.7395 -1.2635 -1.1718
14519TIP3    H264973   1.872   4.528   0.086 -1.8183 -0.6580  0.9797
14520TIP3   OH264974   3.698   4.175  14.919 -0.4839  0.7340 -0.0894
14520TIP3    H164975   3.687   4.264  14.886  0.4652  0.5762 -0.8401
14520TIP3    H264976   3.673   4.181  15.012 -0.6729  1.7168 -0.1942
14521TIP3   OH264977   5.399   1.678   1.023 -0.5677 -0.6705 -0.3378
14521TIP3    H164978   5.420   1.683   1.117 -1.5370 -0.1878 -0.1354
14521TIP3    H264979   5.454   1.607   0.990 -0.2593 -0.8879  0.6104
14522TIP3   OH264980   4.566   2.712   5.309  0.0983  0.0460 -0.3129
14522TIP3    H164981   4.621   2.762   5.248 -0.5443 -0.8200 -1.6526
14522TIP3    H264982   4.503   2.777   5.342  0.0151  0.3972 -1.1186
14523TIP3   OH264983   6.505   1.139   1.074  0.1694  0.2392  0.2588
14523TIP3    H164984   6.497   1.044   1.066 -2.7868  0.1402  2.7097
14523TIP3    H264985   6.572   1.151   1.141  0.9055 -0.0645 -0.4058
14524TIP3   OH264986   5.036   0.357   5.830 -0.0925 -0.0330 -0.3250
14524TIP3    H164987   5.086   0.393   5.757 -1.1654  1.0508 -0.5398
14524TIP3    H264988   5.076   0.271   5.846  1.6728  0.6846 -0.6468
14525TIP3   OH264989   2.161   5.339   2.650 -0.2144  0.4376  0.0780
14525TIP3    H164990   2.190   5.270   2.590  0.4691  0.1869  0.6847
14525TIP3    H264991   2.242   5.371   2.690 -0.6756  0.4684  1.0024
14526TIP3   OH264992   5.623   4.047   1.556 -0.2719  0.0261  0.7461
14526TIP3    H164993   5.541   4.008   1.528 -1.4957  1.6292  1.8924
14526TIP3    H264994   5.689   4.011   1.497 -1.8555 -0.9638 -0.4808
14527TIP3   OH264995   6.303   5.075   5.381 -0.2779 -0.3719 -0.4063
14527TIP3    H164996   6.394   5.056   5.357 -0.2953  0.1317 -0.8895
14527TIP3    H264997   6.301   5.169   5.395  0.0927 -0.7633  3.2387
14528TIP3   OH264998   2.656   3.930  13.497  0.0058  0.3174  0.3931
14528TIP3    H164999   2.648   3.912  13.403  1.5020 -0.0685  0.3160
14528TIP3    H265000   2.677   4.023  13.502 -0.5006  0.4375  0.3854
14529TIP3   OH265001   6.602   5.976  13.972 -0.7751 -0.1537 -0.2280
14529TIP3    H165002   6.600   5.881  13.987  0.9224 -0.3048 -0.7230
14529TIP3    H265003   6.627   5.985  13.880 -3.0982  0.7937 -0.8251
14530TIP3   OH265004   4.050   5.472  14.885  0.7642 -0.4779  0.4212
14530TIP3    H165005   4.077   5.437  14.801  1.1249 -1.7043  1.0314
14530TIP3    H265006   4.114   5.438  14.947  1.2428  1.4038  1.0399
14531TIP3   OH265007   0.247   3.701  11.648 -0.0451  0.0100 -0.0193
14531TIP3    H165008   0.175   3.671  11.594 -1.5868  2.0900  0.7207
14531TIP3    H265009   0.211   3.702  11.737  0.3642  2.4010  0.1860
14532TIP3   OH265010   2.223   5.772   1.150 -0.1471 -0.0900 -0.3035
14532TIP3    H165011   2.290   5.830   1.115 -0.1580  0.3720  0.4272
14532TIP3    H265012   2.222   5.698   1.090  2.0510 -0.8167  0.4354
14533TIP3   OH265013   1.506   6.019  13.562 -0.2480  0.0456  0.5081
14533TIP3    H165014   1.574   5.952  13.570 -1.2301 -0.7914  2.4485
14533TIP3    H265015   1.508   6.044  13.470  2.6772  0.0669  0.4788
14534TIP3   OH265016   2.013   6.473   4.344 -0.4604  0.0862 -0.3499
14534TIP3    H165017   1.965   6.492   4.264 -0.1007 -0.9221 -0.8110
14534TIP3    H265018   1.987   6.543   4.404 -1.3421  0.4017 -1.0780
14535TIP3   OH265019   6.309   2.074   4.993  0.3243 -0.2226 -0.2571
14535TIP3    H165020   6.329   1.992   5.039 -0.9773 -0.2374  0.3437
14535TIP3    H265021   6.254   2.047   4.920 -1.4113  0.2088  0.8177
14536TIP3   OH265022   0.877   0.458  15.093  0.6179  0.3575  0.2694
14536TIP3    H165023   0.794   0.461  15.141  2.0446  1.6514  2.8417
14536TIP3    H265024   0.862   0.515  15.017 -0.2953  2.1385  1.7155
14537TIP3   OH265025   5.152   3.156   0.031  0.1423  0.1714  0.4660
14537TIP3    H165026   5.195   3.238   0.011  0.6023  0.7203  3.2754
14537TIP3    H265027   5.218   3.104   0.077 -0.7257 -0.9493  0.5007
14538TIP3   OH265028   2.299   5.815   3.404 -0.2875 -0.1975  0.6625
14538TIP3    H165029   2.290   5.737   3.349  1.0955  0.3615 -0.4058
14538TIP3    H265030   2.349   5.877   3.351 -0.2343  0.9505  1.9830
14539TIP3   OH265031   4.815   3.755   1.763 -0.3076  0.2254 -0.1304
14539TIP3    H165032   4.758   3.763   1.840  1.4923  0.3139  1.2657
14539TIP3    H265033   4.760   3.780   1.690 -2.3414 -0.6221  1.0078
14540TIP3   OH265034   6.261   1.494  17.212 -0.0600 -0.0642  0.8442
14540TIP3    H165035   6.174   1.521  17.241 -0.9969 -0.8881 -1.0053
14540TIP3    H265036   6.270   1.532  17.125  0.8294 -1.1776  0.4274
14541TIP3   OH265037   5.802   4.622   1.221  0.3761  0.1550 -0.2576
14541TIP3    H165038   5.739   4.589   1.157 -0.6074  2.3721 -0.5395
14541TIP3    H265039   5.815   4.549   1.282 -2.1548 -0.5677 -0.4548
14542TIP3   OH265040   1.004   3.026   2.868  0.1456 -0.2277  0.0593
14542TIP3    H165041   0.980   3.081   2.943 -1.4722 -1.1654  0.2683
14542TIP3    H265042   0.984   3.080   2.792 -2.0811 -0.6945  0.2459
14543TIP3   OH265043   1.783   5.412   0.284 -0.0658 -0.2700  0.0148
14543TIP3    H165044   1.835   5.462   0.221 -0.2903  1.3640  1.0724
14543TIP3    H265045   1.847   5.357   0.329  0.1839 -1.0009 -1.1668
14544TIP3   OH265046   4.405   0.137  14.874 -0.3290 -0.0679  0.0772
14544TIP3    H165047   4.327   0.082  14.862 -0.1605 -0.6342  1.3960
14544TIP3    H265048   4.372   0.227  14.872 -0.8221 -0.2591 -0.6818
14545TIP3   OH265049   2.335   5.887   5.650 -0.2719 -0.2211 -0.1172
14545TIP3    H165050   2.368   5.841   5.728  0.8157  0.5035 -0.1223
14545TIP3    H265051   2.244   5.858   5.642  0.1503 -1.7749  0.3151
14546TIP3   OH265052   0.542   5.502   0.915  0.4147 -0.0754 -0.3364
14546TIP3    H165053   0.599   5.457   0.853 -1.3950 -2.5066 -0.3887
14546TIP3    H265054   0.583   5.488   1.001  2.3188  2.3236 -0.7520
14547TIP3   OH265055   2.309   4.063   2.602  0.5927 -0.0249 -0.1957
14547TIP3    H165056   2.302   3.984   2.548  1.0294  0.2640 -0.6832
14547TIP3    H265057   2.314   4.030   2.692  2.2435 -0.6403 -0.4773
14548TIP3   OH265058   0.786   5.252  15.766  0.7122 -1.0246  0.0861
14548TIP3    H165059   0.796   5.249  15.671 -1.7392 -0.1655 -0.2762
14548TIP3    H265060   0.808   5.164  15.795  1.9289 -1.1847 -1.2034
14549TIP3   OH265061   4.904   5.409  12.449  0.3905  0.3533  0.8962
14549TIP3    H165062   4.860   5.486  12.414 -1.2511 -0.8020  0.3007
14549TIP3    H265063   4.898   5.417  12.544 -1.2533  0.1695  0.8264
14550TIP3   OH265064   1.268   0.748  16.255  0.1249  0.2033  0.4078
14550TIP3    H165065   1.176   0.725  16.243  0.6054 -1.1309 -1.0231
14550TIP3    H265066   1.297   0.697  16.331  0.3802 -1.6175 -0.8624
14551TIP3   OH265067   4.431   3.921   6.202 -0.6752  0.3328 -0.0832
14551TIP3    H165068   4.470   3.836   6.181  1.3014  1.1658 -0.0445
14551TIP3    H265069   4.428   3.922   6.298  0.6722  0.8306 -0.0190
14552TIP3   OH265070   2.754   0.507   0.860 -0.2461 -0.3633  0.3998
14552TIP3    H165071   2.670   0.473   0.829 -0.6829  1.0606 -0.0373
14552TIP3    H265072   2.741   0.602   0.866  0.7548 -0.2859  2.0872
14553TIP3   OH265073   5.126   3.949  13.317 -0.1802 -0.5650  0.3061
14553TIP3    H165074   5.163   3.896  13.388  1.2700  1.1930  0.9317
14553TIP3    H265075   5.202   3.978  13.267 -0.7716  1.9767  0.7597
14554TIP3   OH265076   6.113   0.911  16.605  0.1070  0.2679 -0.2470
14554TIP3    H165077   6.043   0.851  16.630 -1.4519  1.8750 -0.5534
14554TIP3    H265078   6.166   0.921  16.685 -0.9071  0.1830  0.4461
14555TIP3   OH265079   6.504   6.682  11.112  0.2279 -0.0576  0.5013
14555TIP3    H165080   6.575   6.720  11.164  0.3279 -0.0723  0.3775
14555TIP3    H265081   6.480   6.752  11.050  0.6228 -0.3025  0.0662
14556TIP3   OH265082   5.899   1.032   5.219 -0.4126 -0.2800 -0.1901
14556TIP3    H165083   5.907   0.937   5.213 -0.9939 -0.3873  0.6213
14556TIP3    H265084   5.974   1.066   5.171 -0.6379 -1.1391 -1.1813
14557TIP3   OH265085   4.283   2.273  10.650 -0.3124 -0.2025 -0.2121
14557TIP3    H165086   4.248   2.306  10.733  1.0518  0.7707 -0.0040
14557TIP3    H265087   4.290   2.178  10.663 -0.6861 -0.1332  0.5589
14558TIP3   OH265088   6.169   2.480   1.801  0.0547 -0.9855 -0.2750
14558TIP3    H165089   6.126   2.416   1.744 -1.0593 -0.5251  0.0279
14558TIP3    H265090   6.097   2.535   1.834  1.0400  0.9595 -1.1898
14559TIP3   OH265091   2.967   4.292   4.309  0.0895 -0.1925 -0.1168
14559TIP3    H165092   2.938   4.240   4.235 -0.2587 -2.1245  1.3011
14559TIP3    H265093   2.904   4.272   4.379  0.7636  1.0662  0.9157
14560TIP3   OH265094   0.753   5.817   5.041 -0.4416  0.1468 -0.3584
14560TIP3    H165095   0.786   5.775   4.961 -0.4168 -0.6867  0.0693
14560TIP3    H265096   0.709   5.746   5.088  0.2835  0.4202  0.7648
14561TIP3   OH265097   4.732   4.300   2.188 -0.1265  0.6211 -0.1841
14561TIP3    H165098   4.726   4.262   2.276 -0.8119 -0.2589 -0.5865
14561TIP3    H265099   4.739   4.224   2.130  0.7854  1.2000 -0.8710
14562TIP3   OH265100   2.887   3.708   2.376  0.1907  0.7441 -0.6336
14562TIP3    H165101   2.823   3.716   2.306 -0.1770  0.4612 -0.3351
14562TIP3    H265102   2.836   3.716   2.457  0.3655 -0.4908 -0.3703
14563TIP3   OH265103   5.347   6.092  10.527 -0.8276 -0.1135  0.0151
14563TIP3    H165104   5.371   6.182  10.505  0.7329 -0.1425  1.3749
14563TIP3    H265105   5.317   6.054  10.444  0.1035  1.1566 -0.9452
14564TIP3   OH265106   6.245   2.025  13.637 -0.7806  0.1394 -0.4333
14564TIP3    H165107   6.235   1.933  13.662 -2.9623  0.2546 -0.6805
14564TIP3    H265108   6.166   2.044  13.586 -0.2050  2.0713 -0.6672
14565TIP3   OH265109   1.036   2.012   3.708  0.3295  0.0847  0.2020
14565TIP3    H165110   0.985   2.077   3.659 -1.8547 -1.1561  0.7048
14565TIP3    H265111   1.087   2.064   3.770 -1.1987  1.3970  0.4453
14566TIP3   OH265112   5.034   4.520   5.185 -0.8021 -0.7966 -0.5280
14566TIP3    H165113   5.065   4.453   5.123  2.8826 -0.4840  0.6911
14566TIP3    H265114   5.073   4.495   5.268  0.8896  2.7934 -0.0233
14567TIP3   OH265115   5.426   2.577   1.000 -0.0489 -0.1256  0.1602
14567TIP3    H165116   5.394   2.642   1.063  1.6629  0.8174  0.1152
14567TIP3    H265117   5.474   2.514   1.053  1.7761  0.9087 -0.1698
14568TIP3   OH265118   5.388   4.693   1.257 -0.1605  0.3747  0.0471
14568TIP3    H165119   5.423   4.756   1.194  1.5710  0.9888  1.5532
14568TIP3    H265120   5.327   4.743   1.310  0.9796  0.7411  1.0421
14569TIP3   OH265121   3.586   1.955   2.606 -0.5445 -0.5412  0.5949
14569TIP3    H165122   3.655   2.010   2.642  0.5362  0.2289 -2.3847
14569TIP3    H265123   3.630   1.875   2.579 -1.0117 -0.5056 -0.3188
14570TIP3   OH265124   0.356   1.197   4.424  0.0311 -0.0230 -0.2587
14570TIP3    H165125   0.284   1.261   4.421 -1.1222 -1.2895 -0.3279
14570TIP3    H265126   0.435   1.250   4.411 -0.5997  1.8153  2.4858
14571TIP3   OH265127   3.568   5.646  11.908 -0.8324 -0.2579 -0.2784
14571TIP3    H165128   3.655   5.642  11.869 -1.1120 -1.7719 -0.8229
14571TIP3    H265129   3.562   5.567  11.962 -1.5445  0.2947  0.4885
14572TIP3   OH265130   1.542   0.873  13.297  0.5078 -0.4359 -0.4374
14572TIP3    H165131   1.632   0.897  13.317  0.4678 -0.9849  0.3957
14572TIP3    H265132   1.492   0.896  13.375  0.3511 -2.5655  0.1409
14573TIP3   OH265133   3.355   4.803   2.251 -0.1296 -0.5407  0.0887
14573TIP3    H165134   3.318   4.762   2.330  0.9826 -1.1607  0.3031
14573TIP3    H265135   3.313   4.757   2.179 -2.4339  1.1480  0.2377
14574TIP3   OH265136   4.356   1.624  14.187  0.2223 -0.0995 -0.5590
14574TIP3    H165137   4.301   1.559  14.229 -0.0936  0.7706  0.4327
14574TIP3    H265138   4.429   1.636  14.247  1.8380 -1.6127 -2.0893
14575TIP3   OH265139   5.970   0.643  11.806 -0.3411  0.7995 -0.4653
14575TIP3    H165140   5.884   0.642  11.848 -0.2504  2.9425 -0.1162
14575TIP3    H265141   5.951   0.638  11.713 -0.6376 -1.8308 -0.3530
14576TIP3   OH265142   0.757   0.053   1.285  0.1764  0.2471 -0.1797
14576TIP3    H165143   0.692  -0.005   1.246  0.4820 -1.1778  1.3189
14576TIP3    H265144   0.752   0.134   1.233 -3.0114  0.3361  0.0705
14577TIP3   OH265145   1.354   5.301  15.280 -0.2438 -0.3643 -0.3046
14577TIP3    H165146   1.414   5.332  15.212 -0.1082 -1.7800 -0.8691
14577TIP3    H265147   1.289   5.249  15.233 -2.0235  1.2304  0.2968
14578TIP3   OH265148   5.157   0.495  15.253 -0.2134  0.4437 -0.1333
14578TIP3    H165149   5.087   0.434  15.278 -1.4620  0.8341 -2.4397
14578TIP3    H265150   5.238   0.446  15.268 -1.0417 -0.6362  1.0071
14579TIP3   OH265151   4.417   0.480   1.351  0.0494 -0.1841  0.3664
14579TIP3    H165152   4.358   0.555   1.337  0.7842  0.5469  1.0591
14579TIP3    H265153   4.387   0.441   1.432  1.9451  1.6813  2.1130
14580TIP3   OH265154   5.802   2.668   0.437  0.3849 -0.1092 -0.0685
14580TIP3    H165155   5.755   2.747   0.414 -0.0095  0.1132  1.4171
14580TIP3    H265156   5.834   2.633   0.353 -0.7716  0.7591 -0.8868
14581TIP3   OH265157   4.770   0.938  16.286  0.3558 -0.1616  0.0626
14581TIP3    H165158   4.785   0.927  16.380  0.2537 -0.8579 -0.0019
14581TIP3    H265159   4.680   0.910  16.273  0.0205  0.9131 -0.0890
14582TIP3   OH265160   3.389   4.469   0.159  0.2751 -0.2067  0.4026
14582TIP3    H165161   3.482   4.487   0.147  0.5724 -2.2621 -0.9081
14582TIP3    H265162   3.345   4.549   0.129  1.5836  0.4554  0.1905
14583TIP3   OH265163   4.896   3.490   2.171 -0.0700  0.1324 -0.6015
14583TIP3    H165164   4.932   3.404   2.193  0.1896 -0.0257 -1.6010
14583TIP3    H265165   4.838   3.475   2.097  0.9905  0.9807 -1.6641
14584TIP3   OH265166   3.554   1.103   3.719  0.5058 -0.4296 -0.0026
14584TIP3    H165167   3.529   1.150   3.799 -1.6999 -1.2744 -0.1173
14584TIP3    H265168   3.611   1.164   3.672 -2.4003  2.3252 -0.2708
14585TIP3   OH265169   5.386   3.785  16.605  0.2883 -0.1267  0.4669
14585TIP3    H165170   5.367   3.864  16.555  0.8778  1.0877  2.0808
14585TIP3    H265171   5.474   3.760  16.579  0.0716 -0.3235 -0.1021
14586TIP3   OH265172   2.629   3.698  15.611  0.0609  1.2341 -0.2780
14586TIP3    H165173   2.673   3.782  15.598  0.0277  1.3463  0.3079
14586TIP3    H265174   2.536   3.722  15.619  0.0068  1.1012 -0.5301
14587TIP3   OH265175   2.707   5.713  16.297  0.2117  0.2216 -0.1932
14587TIP3    H165176   2.720   5.647  16.229  1.9939 -1.5929  1.7492
14587TIP3    H265177   2.795   5.743  16.318 -0.0401 -0.6972  2.5590
14588TIP3   OH265178   5.857   5.174  15.339 -0.0433  0.5163  0.0418
14588TIP3    H165179   5.872   5.252  15.392 -0.6635 -0.0478  1.0813
14588TIP3    H265180   5.859   5.206  15.248 -4.9991  2.7388  0.3954
14589TIP3   OH265181   2.940   1.951  13.288  0.5128  0.4907 -0.0214
14589TIP3    H165182   2.881   1.987  13.354  0.5881  1.2428 -0.3576
14589TIP3    H265183   2.959   1.862  13.319 -1.0267  0.1255 -0.0791
14590TIP3   OH265184   6.295   1.128  11.599  0.3121  0.8039 -0.0035
14590TIP3    H165185   6.373   1.141  11.654  0.7964  0.7209 -0.6613
14590TIP3    H265186   6.286   1.033  11.592  0.0077  0.8107  0.2655
14591TIP3   OH265187   1.587   6.368   2.500  0.4222  0.1714 -0.0444
14591TIP3    H165188   1.639   6.304   2.452  0.6988 -0.0661  0.5564
14591TIP3    H265189   1.532   6.410   2.434 -1.4701 -2.2917 -0.1678
14592TIP3   OH265190   5.959   3.589  14.934  0.1360 -0.1627  0.4503
14592TIP3    H165191   5.913   3.634  15.005  1.7409  1.4027  0.5730
14592TIP3    H265192   5.933   3.636  14.855  0.3099 -0.2538  0.3391
14593TIP3   OH265193   4.984   3.195  12.079 -0.2932  0.0136  0.1162
14593TIP3    H165194   4.964   3.123  12.020 -1.7033  1.8666 -1.8412
14593TIP3    H265195   4.902   3.243  12.088  0.7726  1.8918  0.5726
14594TIP3   OH265196   2.187   3.833  15.431 -0.2752 -0.0960  0.2227
14594TIP3    H165197   2.157   3.907  15.378  0.7629  0.5950  0.5751
14594TIP3    H265198   2.246   3.871  15.495 -0.1115 -1.1707  0.7393
14595TIP3   OH265199   4.214   0.538  17.251 -0.0005 -1.0734 -0.6126
14595TIP3    H165200   4.268   0.545  17.329 -0.3840 -0.4745 -0.3935
14595TIP3    H265201   4.207   0.628  17.218 -2.7425 -0.7169  0.6455
14596TIP3   OH265202   3.886   2.880   4.863  0.0708 -0.6080  0.2973
14596TIP3    H165203   3.866   2.835   4.781  2.4692  0.2156 -0.8316
14596TIP3    H265204   3.905   2.809   4.925 -1.3545 -1.2214  0.0864
14597TIP3   OH265205   1.501   5.117   2.169 -0.1113 -0.5398 -0.4197
14597TIP3    H165206   1.513   5.153   2.257 -0.3954 -2.2647  0.3747
14597TIP3    H265207   1.500   5.193   2.112  2.4678  0.5181  0.7877
14598TIP3   OH265208   0.462   1.608  13.887 -0.4680  0.2290 -0.5326
14598TIP3    H165209   0.528   1.550  13.925  0.3418  1.5842  0.2092
14598TIP3    H265210   0.495   1.626  13.799 -0.2852  0.2290 -0.4644
14599TIP3   OH265211   4.150   5.359  13.878 -0.3442  0.3198  0.7886
14599TIP3    H165212   4.111   5.442  13.904 -0.9427  0.3765 -0.2170
14599TIP3    H265213   4.233   5.355  13.925  0.7044  2.4867 -0.6900
14600TIP3   OH265214   2.418   6.519  11.915 -0.1687 -0.0488  0.0065
14600TIP3    H165215   2.390   6.571  11.840 -2.3989  0.5807  1.1964
14600TIP3    H265216   2.455   6.583  11.976 -0.6592 -0.1945  0.4620
14601TIP3   OH265217   3.712   4.016   4.476  0.1652  0.4842 -0.0071
14601TIP3    H165218   3.727   4.091   4.534  1.0813  0.1755  0.1721
14601TIP3    H265219   3.630   4.037   4.430 -0.1530  1.0967  0.8139
14602TIP3   OH265220   2.714   5.459  14.439  0.3230 -0.7196  0.1771
14602TIP3    H165221   2.775   5.394  14.475 -0.0861  0.0116  2.3311
14602TIP3    H265222   2.659   5.484  14.513 -0.6344  0.8528 -1.0031
14603TIP3   OH265223   0.488   6.198   3.344  0.1667  0.7478 -0.0223
14603TIP3    H165224   0.555   6.159   3.288  1.0869  0.8970  0.9383
14603TIP3    H265225   0.405   6.163   3.311  0.9345 -2.7744  1.2733
14604TIP3   OH265226   3.338   4.354   6.426 -0.0016  0.8551  0.1567
14604TIP3    H165227   3.258   4.402   6.403  0.5651  1.0132 -1.7202
14604TIP3    H265228   3.408   4.418   6.412  0.5118  0.4897  1.0395
14605TIP3   OH265229   4.033   3.556  14.802  0.1138  0.8162 -0.0438
14605TIP3    H165230   4.044   3.470  14.841  0.4914 -0.0135 -1.8901
14605TIP3    H265231   4.090   3.613  14.854  0.4510 -0.1808  0.7163
14606TIP3   OH265232   4.582   6.339  11.862  0.3388 -0.0747 -0.0170
14606TIP3    H165233   4.659   6.376  11.906  0.4882  0.0844 -0.4062
14606TIP3    H265234   4.508   6.391  11.895  0.4416 -0.0038  0.1002
14607TIP3   OH265235   0.974   2.475   4.269  0.2881 -0.0535  0.1005
14607TIP3    H165236   0.892   2.525   4.271 -0.3090 -1.0093  1.0307
14607TIP3    H265237   0.961   2.411   4.198  0.9309  0.8865 -0.8893
14608TIP3   OH265238   2.488   3.900   5.441 -0.2890  0.1662  0.4315
14608TIP3    H165239   2.412   3.884   5.384 -1.0793 -1.2046  1.7909
14608TIP3    H265240   2.561   3.912   5.381 -1.6302  2.0853 -0.9590
14609TIP3   OH265241   6.224   1.483  13.078  0.0929 -0.5084 -0.4191
14609TIP3    H165242   6.149   1.466  13.022 -0.3334  0.6564 -0.2112
14609TIP3    H265243   6.268   1.398  13.085 -0.4093 -0.8932 -1.6772
14610TIP3   OH265244   6.375   4.223  17.027  0.0871  0.0636  0.1932
14610TIP3    H165245   6.360   4.315  17.047 -0.2429  0.4858 -1.8186
14610TIP3    H265246   6.465   4.219  16.995 -0.1287 -0.1614 -0.4174
14611TIP3   OH265247   5.033   3.657   1.920 -0.3573 -0.3671 -0.0433
14611TIP3    H165248   4.953   3.701   1.890 -1.2220 -2.7582 -1.5494
14611TIP3    H265249   5.096   3.672   1.850 -0.8619 -1.9061 -0.8949
14612TIP3   OH265250   5.553   4.803   1.833  0.2411  0.2746  0.1845
14612TIP3    H165251   5.625   4.845   1.784  0.4345  0.3513  0.5335
14612TIP3    H265252   5.570   4.825   1.924 -0.3739  0.5131  0.2470
14613TIP3   OH265253   2.789   2.781  11.344  0.0171 -1.0166 -0.0150
14613TIP3    H165254   2.834   2.708  11.302  0.6586 -0.7603  0.2022
14613TIP3    H265255   2.702   2.748  11.365 -0.3367 -1.1381 -1.5738
14614TIP3   OH265256   5.071   5.875  13.243  0.0277 -0.0380 -0.0512
14614TIP3    H165257   4.999   5.812  13.243  0.7245 -0.8533 -0.1263
14614TIP3    H265258   5.118   5.857  13.161  0.7776 -0.0673  0.3772
14615TIP3   OH265259   5.769   5.268  13.823  0.0944 -0.1205 -0.3019
14615TIP3    H165260   5.829   5.299  13.891  1.1599 -0.3885 -1.0903
14615TIP3    H265261   5.817   5.281  13.741 -0.0426 -2.3366 -0.7919
14616TIP3   OH265262   1.589   1.449   2.741 -0.1051  0.8962  0.1826
14616TIP3    H165263   1.609   1.540   2.722  1.2787  0.4309 -0.7488
14616TIP3    H265264   1.574   1.410   2.654  0.9385 -0.1076  0.4379
14617TIP3   OH265265   5.254   3.719  15.778 -0.0243  0.0740 -0.1276
14617TIP3    H165266   5.342   3.730  15.812 -0.1550 -1.5231  0.8081
14617TIP3    H265267   5.258   3.637  15.728 -1.1099 -0.3307  0.4281
14618TIP3   OH265268   2.404   1.430   3.014 -0.1678  0.3873 -0.4565
14618TIP3    H165269   2.436   1.410   3.102  0.2137  2.0447 -0.1832
14618TIP3    H265270   2.323   1.479   3.029 -0.2487  0.4388 -1.0453
14619TIP3   OH265271   2.143   0.812   1.128  0.4717  0.6868 -0.6719
14619TIP3    H165272   2.052   0.821   1.158  0.0847  0.2739 -1.6489
14619TIP3    H265273   2.144   0.727   1.083  0.6162  1.8442 -3.0306
14620TIP3   OH265274   4.610   0.394   6.911  0.0850 -0.4120 -0.3717
14620TIP3    H165275   4.526   0.432   6.937  0.6429 -0.2342  1.3438
14620TIP3    H265276   4.656   0.467   6.868  0.4365  0.3726  1.2548
14621TIP3   OH265277   5.826   4.566  16.180 -0.0638 -1.0780  0.4181
14621TIP3    H165278   5.849   4.604  16.095 -2.9827 -0.6009 -0.2792
14621TIP3    H265279   5.816   4.641  16.238 -2.9142 -0.8716 -0.1936
14622TIP3   OH265280   2.102   4.600  12.266  0.1505 -0.4517 -0.0110
14622TIP3    H165281   2.158   4.544  12.213 -0.6283 -0.1186 -1.2353
14622TIP3    H265282   2.039   4.636  12.204 -0.5732  0.2450  1.0920
14623TIP3   OH265283   4.098   6.291  11.689  0.5119  0.3890  0.4459
14623TIP3    H165284   4.088   6.332  11.603  0.8311  0.8319  0.6167
14623TIP3    H265285   4.072   6.358  11.751 -0.0849 -0.0589  0.6859
14624TIP3   OH265286   4.476   5.499  12.257  0.1010 -0.6999  0.1635
14624TIP3    H165287   4.436   5.463  12.178  0.0968  0.9879 -0.6548
14624TIP3    H265288   4.559   5.451  12.267 -0.2902 -1.5044 -0.3629
14625TIP3   OH265289   0.999   5.112   1.762 -0.0198 -0.4976  0.2216
14625TIP3    H165290   1.068   5.173   1.737 -0.5251  0.5215  1.2352
14625TIP3    H265291   1.038   5.055   1.827  0.3449 -1.0420 -0.4580
14626TIP3   OH265292   0.208   4.090   4.164  0.8834 -0.1164 -0.1630
14626TIP3    H165293   0.230   3.999   4.145 -0.2711 -0.6292  0.7941
14626TIP3    H265294   0.268   4.115   4.234  0.7424 -0.3792  0.0556
14627TIP3   OH265295   2.285   2.098   2.696  0.3862 -0.2859 -0.1393
14627TIP3    H165296   2.270   2.005   2.684  0.9342 -0.4838  0.6212
14627TIP3    H265297   2.283   2.111   2.791 -2.2104  0.9282 -0.2807
14628TIP3   OH265298   5.496   5.234  13.021 -0.8561 -0.3898 -0.7034
14628TIP3    H165299   5.473   5.278  13.103  2.0627  1.5781 -0.7999
14628TIP3    H265300   5.461   5.292  12.953 -1.7647 -1.1239 -0.8782
14629TIP3   OH265301   3.202   6.724   2.440 -0.0063 -0.1551 -0.5297
14629TIP3    H165302   3.241   6.663   2.503 -0.0978  1.1749  0.8834
14629TIP3    H265303   3.110   6.696   2.433  0.2758 -1.0064 -0.9816
14630TIP3   OH265304   0.852   3.323  15.865  0.5403  0.4923  0.2444
14630TIP3    H165305   0.795   3.254  15.833  0.8796  0.6810 -0.8394
14630TIP3    H265306   0.860   3.307  15.959  1.5134 -1.6223 -0.1312
14631TIP3   OH265307   6.677   4.595   6.173 -0.3576  0.1806 -0.1892
14631TIP3    H165308   6.596   4.642   6.193 -0.5629  0.5425 -1.7612
14631TIP3    H265309   6.729   4.657   6.122  0.1905 -0.6327 -0.6426
14632TIP3   OH265310   4.251   6.702  12.248 -0.5171  0.6897 -0.1469
14632TIP3    H165311   4.266   6.714  12.155 -0.3227 -1.5730 -0.4495
14632TIP3    H265312   4.160   6.728  12.261 -1.7029 -2.2576 -1.6994
14633TIP3   OH265313   0.035   3.719  15.260  0.1352 -0.5863 -0.4672
14633TIP3    H165314   0.092   3.786  15.223 -2.2510  0.9850 -1.5264
14633TIP3    H265315  -0.002   3.758  15.339 -2.3593  0.0640 -1.8341
14634TIP3   OH265316   0.873   6.552   4.388 -0.1216 -0.1750 -0.1157
14634TIP3    H165317   0.957   6.526   4.426 -0.6847 -0.6037  0.8993
14634TIP3    H265318   0.866   6.645   4.405 -0.5878 -0.4514  1.3446
14635TIP3   OH265319   0.952   2.550   1.274 -0.0741  0.4057  0.0205
14635TIP3    H165320   0.883   2.568   1.210 -2.2001 -1.5923  1.6081
14635TIP3    H265321   0.988   2.465   1.247 -0.1433  0.1332  0.7725
14636TIP3   OH265322   5.455   5.299  14.830  0.2865 -0.1215  0.3800
14636TIP3    H165323   5.450   5.257  14.916  1.6330 -0.3371  0.3774
14636TIP3    H265324   5.532   5.357  14.837 -0.0316  0.4042 -0.4429
14637TIP3   OH265325   3.525   4.817  11.975  0.4215 -0.8097 -0.4220
14637TIP3    H165326   3.586   4.888  11.995 -0.2986 -0.7934  2.0700
14637TIP3    H265327   3.580   4.745  11.944  1.3052  0.3317 -1.5811
14638TIP3   OH265328   1.288   5.674   0.584 -0.1073  0.1089 -0.3677
14638TIP3    H165329   1.318   5.740   0.521  0.3931 -0.3874 -0.6621
14638TIP3    H265330   1.244   5.608   0.529  2.3301 -1.5051 -0.5357
14639TIP3   OH265331   4.193   3.942  11.785  0.0539  0.2654  0.2142
14639TIP3    H165332   4.150   3.881  11.725 -1.8548  1.2528  0.5349
14639TIP3    H265333   4.174   3.908  11.872 -1.7258  1.7029  0.4319
14640TIP3   OH265334   0.977   0.102  12.305 -0.5224  0.3529  0.3065
14640TIP3    H165335   0.996   0.118  12.212  0.2147 -0.3730  0.3249
14640TIP3    H265336   1.051   0.050  12.336 -0.6683  0.7522  1.3564
14641TIP3   OH265337   1.590   2.363  15.445  0.0348  0.6249  0.4442
14641TIP3    H165338   1.675   2.401  15.466  1.0848 -2.1841  1.8251
14641TIP3    H265339   1.540   2.369  15.527  0.2518 -0.8533  0.7271
14642TIP3   OH265340   3.939   4.753  17.034 -0.0355  0.0697  0.1398
14642TIP3    H165341   3.948   4.826  16.973 -2.1020  0.1620 -0.1034
14642TIP3    H265342   3.876   4.783  17.100  0.0777 -1.0169  0.7809
14643TIP3   OH265343   1.833   0.744   3.136 -0.4673 -0.1655  0.6584
14643TIP3    H165344   1.868   0.778   3.218  2.3221  1.0117 -0.8983
14643TIP3    H265345   1.872   0.657   3.127  1.2995  0.7015 -0.5444
14644TIP3   OH265346   2.014   0.514   1.292 -0.0679  0.1635  0.5949
14644TIP3    H165347   2.042   0.521   1.383  0.2131 -2.4000  0.7736
14644TIP3    H265348   2.095   0.522   1.242  0.0348 -0.1870  0.6978
14645TIP3   OH265349   3.664   2.617   6.196 -0.1814 -0.4357 -0.2509
14645TIP3    H165350   3.621   2.551   6.250  0.5551 -1.4923 -0.9176
14645TIP3    H265351   3.751   2.627   6.234 -0.5806  0.8364  0.3875
14646TIP3   OH265352   1.423   4.678  15.860  0.8141 -0.3043 -0.3993
14646TIP3    H165353   1.518   4.695  15.857  0.6230  0.7122 -1.0685
14646TIP3    H265354   1.404   4.637  15.775  0.6273 -0.4026 -0.3112
14647TIP3   OH265355   5.682   1.415  17.167  0.5628  0.3106  0.1390
14647TIP3    H165356   5.674   1.351  17.097 -0.4503 -0.3863  0.8638
14647TIP3    H265357   5.739   1.373  17.232  0.7806  0.5947  0.1358
14648TIP3   OH265358   2.392   5.494   2.720 -0.0450  0.5830  0.7207
14648TIP3    H165359   2.387   5.563   2.786 -0.1667  1.2838  0.0008
14648TIP3    H265360   2.481   5.502   2.684 -0.8194  2.0558 -1.0925
14649TIP3   OH265361   6.687   6.694  12.471 -0.2886 -0.0326  0.7357
14649TIP3    H165362   6.641   6.634  12.531 -0.6405 -0.2800  0.2271
14649TIP3    H265363   6.775   6.702  12.509 -0.2480 -0.8418  0.8422
14650TIP3   OH265364   1.640   2.205   1.196  0.4931  0.0835  0.2443
14650TIP3    H165365   1.657   2.117   1.162 -1.5988  0.3401 -1.7003
14650TIP3    H265366   1.641   2.261   1.118 -1.1582  1.2673  1.0093
14651TIP3   OH265367   4.911   3.909  12.412  0.6984 -0.9083  0.0066
14651TIP3    H165368   4.842   3.874  12.468 -0.2291 -1.2980 -1.3284
14651TIP3    H265369   4.866   3.931  12.330  2.0926 -0.7888 -0.7555
14652TIP3   OH265370   2.978   1.061  16.997  0.2559 -0.5071 -0.0420
14652TIP3    H165371   3.037   1.127  16.962  1.2837 -1.4141 -0.0603
14652TIP3    H265372   2.981   1.074  17.092 -0.4209  0.1873 -0.1071
14653TIP3   OH265373   0.273   3.536  13.868  0.2285  0.3558  0.0992
14653TIP3    H165374   0.205   3.476  13.898 -1.5738  0.9132 -2.5490
14653TIP3    H265375   0.241   3.623  13.889  1.4754  0.5614  1.3030
14654TIP3   OH265376   5.067   2.467   0.020 -0.8219  0.2011 -0.1168
14654TIP3    H165377   5.086   2.403  -0.049 -2.6852  0.6661 -1.1117
14654TIP3    H265378   5.126   2.540   0.002 -0.0636 -0.4001 -0.1440
14655TIP3   OH265379   2.452   4.394   3.007  0.1355  0.2620 -0.1319
14655TIP3    H165380   2.443   4.394   3.102  1.3551  2.9581  0.0725
14655TIP3    H265381   2.368   4.359   2.975 -1.9388  2.9604  1.9089
14656TIP3   OH265382   4.658   2.297  12.651  0.2234  0.3351 -0.7490
14656TIP3    H165383   4.706   2.376  12.673  1.3542 -0.5906  0.2724
14656TIP3    H265384   4.704   2.261  12.575  1.7081 -0.9265  0.6539
14657TIP3   OH265385   0.737   0.467  15.591  0.3968 -0.3479  0.0979
14657TIP3    H165386   0.737   0.507  15.504  0.3175 -2.4742 -0.9496
14657TIP3    H265387   0.800   0.519  15.641  1.9118 -0.2227 -1.8029
14658TIP3   OH265388   3.551   4.129   3.302  0.2692 -0.2276  0.0513
14658TIP3    H165389   3.606   4.202   3.275  1.1706 -0.4116  1.3431
14658TIP3    H265390   3.462   4.164   3.300  0.8887  2.3580  4.6779
14659TIP3   OH265391   2.986   4.861   2.371  0.1247 -0.9123  0.7244
14659TIP3    H165392   3.018   4.946   2.344  0.7721 -1.3057  0.2339
14659TIP3    H265393   2.923   4.835   2.303 -0.9555 -0.3266  1.4696
14660TIP3   OH265394   2.621   2.143  17.272  0.8472  0.1532 -0.4195
14660TIP3    H165395   2.663   2.079  17.329  0.1955  0.1488  0.0683
14660TIP3    H265396   2.563   2.192  17.330 -0.5778 -0.5000 -1.2545
14661TIP3   OH265397   2.731   5.339  12.130 -0.1835 -0.5125 -0.1942
14661TIP3    H165398   2.789   5.348  12.206  0.1155 -0.5700 -0.4161
14661TIP3    H265399   2.642   5.338  12.168  0.0010 -1.6437  0.2615
14662TIP3   OH265400   3.416   1.391  14.859 -0.0392  0.1162  0.3256
14662TIP3    H165401   3.326   1.388  14.892 -0.8534  0.6954 -1.7223
14662TIP3    H265402   3.424   1.314  14.803  1.3831 -0.9505  1.8771
14663TIP3   OH265403   2.370   5.553  15.529 -0.1339 -0.3946  0.0432
14663TIP3    H165404   2.278   5.547  15.502 -0.0267 -2.4142  0.0237
14663TIP3    H265405   2.377   5.640  15.568 -1.5120  0.6771 -1.9125
14664TIP3   OH265406   6.143   3.006   0.837 -0.2788  0.6912 -0.1588
14664TIP3    H165407   6.090   2.931   0.866 -0.8106  1.6452  1.4596
14664TIP3    H265408   6.160   3.056   0.916  1.4640  1.4499 -0.9486
14665TIP3   OH265409   1.180   5.719   5.883 -0.2512 -0.4616  0.4039
14665TIP3    H165410   1.115   5.775   5.925 -0.0081  0.4158 -0.3505
14665TIP3    H265411   1.264   5.755   5.912 -0.0989 -0.7843  0.3583
14666TIP3   OH265412   2.683   2.855   0.090 -0.8002  0.1024  0.0425
14666TIP3    H165413   2.752   2.899   0.040 -0.8136 -0.3021 -0.3400
14666TIP3    H265414   2.611   2.918   0.091 -0.6331  0.2975 -0.0579
14667TIP3   OH265415   5.415   5.386  17.276 -0.2505  0.3124  0.3050
14667TIP3    H165416   5.470   5.343  17.210 -2.0053 -2.4709  0.4833
14667TIP3    H265417   5.370   5.456  17.229  2.2522  1.7109 -0.1636
14668TIP3   OH265418   6.214   5.279  15.828 -0.0248 -0.0595  0.1386
14668TIP3    H165419   6.199   5.305  15.737  0.0666  2.0208  0.6578
14668TIP3    H265420   6.133   5.236  15.855 -0.7904  0.9907 -0.4060
14669TIP3   OH265421   4.936   6.496   6.483 -0.2714 -0.3732 -0.1651
14669TIP3    H165422   4.993   6.495   6.560 -0.4718 -1.2196 -0.0178
14669TIP3    H265423   4.876   6.422   6.497 -1.2086  0.3171 -0.4671
14670TIP3   OH265424   5.173   3.890  11.832 -0.3123 -0.3134  0.2796
14670TIP3    H165425   5.120   3.879  11.752  0.7744  0.7466 -0.6363
14670TIP3    H265426   5.256   3.926  11.800 -0.8367  2.9160  2.1083
14671TIP3   OH265427   6.114   1.226  12.610 -0.1590 -0.0003 -0.3253
14671TIP3    H165428   6.060   1.293  12.651 -1.1950 -0.2000 -1.3136
14671TIP3    H265429   6.079   1.217  12.522  0.5300 -1.2094 -0.5049
14672TIP3   OH265430   5.466   4.338  14.865 -0.4123 -0.0029  0.2135
14672TIP3    H165431   5.406   4.266  14.879  0.7282 -1.1595 -0.5911
14672TIP3    H265432   5.410   4.415  14.854 -1.8683 -1.2995 -2.2538
14673TIP3   OH265433   5.614   3.154  15.518  0.0965  0.6376 -0.0315
14673TIP3    H165434   5.679   3.087  15.538 -2.1709 -2.4672 -2.0045
14673TIP3    H265435   5.546   3.142  15.584 -0.3785  0.9105 -0.4619
14674TIP3   OH265436   0.368   3.503   3.982 -0.0229  0.1271 -0.2896
14674TIP3    H165437   0.417   3.499   4.064  0.7130 -0.3531 -0.7381
14674TIP3    H265438   0.291   3.449   3.997 -0.6115  1.1512  0.5334
14675TIP3   OH265439   4.086   0.882  16.613  0.2799 -0.6473  0.6125
14675TIP3    H165440   4.138   0.955  16.578  1.4273 -1.9747 -0.5626
14675TIP3    H265441   3.996   0.902  16.587  0.4332  0.8080  1.1295
14676TIP3   OH265442   0.499   5.332   2.458  0.4935 -0.2307  0.6747
14676TIP3    H165443   0.584   5.296   2.482  1.0041  0.1897 -0.4135
14676TIP3    H265444   0.474   5.285   2.379  0.6786  1.0099 -0.1635
14677TIP3   OH265445   4.639   2.799  11.457 -0.0068 -0.0212 -0.4184
14677TIP3    H165446   4.654   2.841  11.373  2.2499  0.1695  0.0162
14677TIP3    H265447   4.702   2.727  11.460  1.6068  1.3354  1.9562
14678TIP3   OH265448   4.719   1.156  14.035 -0.3129  0.3301  0.2292
14678TIP3    H165449   4.766   1.237  14.050 -0.2700  0.2073  0.8088
14678TIP3    H265450   4.756   1.094  14.099 -1.4751  0.3318  0.9382
14679TIP3   OH265451   4.115   5.574   4.102 -0.0543 -0.4930 -0.0630
14679TIP3    H165452   4.083   5.659   4.132  0.1116 -1.2379  2.4010
14679TIP3    H265453   4.044   5.540   4.048 -1.4097 -0.0629  1.3896
14680TIP3   OH265454   5.893   6.431   4.733  0.1646  0.7835 -0.0870
14680TIP3    H165455   5.850   6.460   4.652  0.3130  0.1685 -0.3942
14680TIP3    H265456   5.875   6.500   4.796  0.2351  1.3732 -0.7088
14681TIP3   OH265457   2.872   0.452   4.386  0.4527  0.7009 -0.1368
14681TIP3    H165458   2.927   0.530   4.401  1.2058  0.2888 -0.7066
14681TIP3    H265459   2.932   0.379   4.392 -0.2893  0.1320  0.5713
14682TIP3   OH265460   0.926   3.276  16.141  0.1035  0.1466 -0.5620
14682TIP3    H165461   0.878   3.198  16.168 -1.1278  0.8834 -0.4946
14682TIP3    H265462   0.880   3.348  16.186  1.8160  0.8232  0.1794
14683TIP3   OH265463   2.298   3.712  15.214 -0.0287 -0.0570  0.3487
14683TIP3    H165464   2.269   3.745  15.299  0.7526  2.3836 -0.2395
14683TIP3    H265465   2.229   3.739  15.153  0.1212 -0.4930 -0.0181
14684TIP3   OH265466   3.766   5.491   5.565 -0.1953 -0.0204  0.4208
14684TIP3    H165467   3.849   5.470   5.608  0.2180 -2.2676 -1.2760
14684TIP3    H265468   3.745   5.580   5.595  3.7687  1.4550 -0.5496
14685TIP3   OH265469   3.793   0.949  15.095  0.1106 -0.3172  0.0471
14685TIP3    H165470   3.824   0.899  15.020  3.5133  1.4206  0.1002
14685TIP3    H265471   3.816   0.895  15.171  0.9969 -0.0348 -0.0117
14686TIP3   OH265472   3.055   3.337   0.733  0.1814  0.6732 -0.1333
14686TIP3    H165473   3.059   3.242   0.725  0.8957  0.6828  0.0290
14686TIP3    H265474   2.961   3.357   0.738  0.0425 -0.0594  0.3134
14687TIP3   OH265475   1.520   5.549   0.407  0.0890 -0.1819  0.7556
14687TIP3    H165476   1.488   5.626   0.454  0.4106  0.6983 -0.4201
14687TIP3    H265477   1.563   5.585   0.330  1.8768 -1.4434  1.1037
14688TIP3   OH265478   3.449   4.020  10.710  0.3122 -0.6134 -0.3987
14688TIP3    H165479   3.374   4.003  10.654  0.3031 -0.2891 -0.4871
14688TIP3    H265480   3.512   3.951  10.689  1.1214  0.5935 -2.2266
14689TIP3   OH265481   2.093   5.419  15.172  0.1564 -0.1201  0.3230
14689TIP3    H165482   2.114   5.441  15.081 -0.7577  0.7279  0.2990
14689TIP3    H265483   2.117   5.326  15.180 -0.2719 -0.3694 -0.9440
14690TIP3   OH265484   5.519   0.359  13.697 -0.2655 -0.4325  0.1470
14690TIP3    H165485   5.549   0.384  13.784 -1.0667 -0.9186  0.5805
14690TIP3    H265486   5.598   0.354  13.644  0.1171  0.9090  0.5752
14691TIP3   OH265487   3.927   1.421  14.317 -0.6654 -0.1637 -0.6225
14691TIP3    H165488   3.882   1.506  14.320 -0.9802 -0.3564  0.7915
14691TIP3    H265489   3.907   1.380  14.401  1.5827 -0.5648 -0.2073
14692TIP3   OH265490   4.075   4.500  16.370 -0.4549  0.3996  0.1625
14692TIP3    H165491   4.048   4.455  16.450  0.2631  1.0391  0.7879
14692TIP3    H265492   4.151   4.552  16.397  1.0980 -0.9574 -1.3890
14693TIP3   OH265493   3.931   5.721   1.020  0.1616 -0.1760  0.2180
14693TIP3    H165494   4.007   5.697   1.072 -0.2568  1.2956  1.5853
14693TIP3    H265495   3.959   5.707   0.929  1.9657  0.0584  0.6998
14694TIP3   OH265496   3.477   3.555   1.494  0.3278  0.8093  0.1514
14694TIP3    H165497   3.567   3.557   1.463  0.1080 -1.1199 -0.7495
14694TIP3    H265498   3.441   3.473   1.458 -1.3528  0.8367  1.6527
14695TIP3   OH265499   5.096   5.740   6.512 -0.3889  0.1071 -0.6757
14695TIP3    H165500   5.183   5.764   6.481  0.5512 -0.1702  1.5746
14695TIP3    H265501   5.096   5.644   6.510  0.5341 -0.0366  2.0863
14696TIP3   OH265502   5.505   2.724   0.755 -0.8483  0.1887 -0.9029
14696TIP3    H165503   5.429   2.675   0.787 -0.8821  0.2370 -0.9078
14696TIP3    H265504   5.538   2.672   0.682  0.4743 -1.0052  0.4793
14697TIP3   OH265505   4.071   1.751  14.199 -0.0700  0.1025 -0.1216
14697TIP3    H165506   4.161   1.731  14.228  0.5932  0.1063 -2.0332
14697TIP3    H265507   4.064   1.846  14.208  0.9960  0.4355 -2.1134
14698TIP3   OH265508   2.744   5.745   2.725 -0.1138 -0.1420 -0.1115
14698TIP3    H165509   2.669   5.805   2.723  0.6440  0.8986  1.0144
14698TIP3    H265510   2.812   5.790   2.675 -0.0613 -0.8244 -0.6543
14699TIP3   OH265511   6.232   6.595   5.249  0.0969 -0.2327  0.0523
14699TIP3    H165512   6.171   6.635   5.311  0.2584 -1.0732  0.7780
14699TIP3    H265513   6.317   6.596   5.294 -0.1488 -2.6777  0.7535
14700TIP3   OH265514   2.242   5.384   1.516 -0.0868  0.3460  0.3030
14700TIP3    H165515   2.245   5.296   1.476 -1.7152 -0.1127  1.0789
14700TIP3    H265516   2.193   5.371   1.597 -3.3060  2.4592 -1.0831
14701TIP3   OH265517   3.523   3.218  16.075 -0.0102 -0.1582  0.2481
14701TIP3    H165518   3.585   3.158  16.117  0.1140  0.0007  0.2932
14701TIP3    H265519   3.479   3.262  16.148 -1.5533 -1.6415  0.2629
14702TIP3   OH265520   2.773   2.745  15.076 -0.6153 -0.0929  0.1034
14702TIP3    H165521   2.770   2.825  15.024 -0.1642 -0.1246  0.0227
14702TIP3    H265522   2.681   2.724  15.093 -0.7521  0.1687 -0.2902
14703TIP3   OH265523   2.125   6.279   4.523 -0.7950 -0.1026 -0.5793
14703TIP3    H165524   2.084   6.352   4.476  0.7054  1.4442  0.4102
14703TIP3    H265525   2.147   6.314   4.608 -1.5782 -2.2678  0.6031
14704TIP3   OH265526   0.133   3.552   1.070 -0.7360  0.0813  0.2200
14704TIP3    H165527   0.096   3.551   0.982 -0.2058 -0.2462 -0.0042
14704TIP3    H265528   0.103   3.471   1.110  2.3133 -1.8576 -1.0768
14705TIP3   OH265529   5.037   1.444  16.658  0.1759 -0.6387 -0.1716
14705TIP3    H165530   4.977   1.461  16.730  0.0059 -1.4901 -0.1039
14705TIP3    H265531   5.123   1.434  16.699  0.8139  2.6377 -0.4421
14706TIP3   OH265532   4.233   4.730   3.572 -0.1418 -0.4332 -0.0862
14706TIP3    H165533   4.307   4.779   3.606  0.7896 -0.9074 -1.3627
14706TIP3    H265534   4.187   4.791   3.515 -2.1989  0.6349  2.5354
14707TIP3   OH265535   3.829   2.480  14.832  0.6233  0.0595 -0.1639
14707TIP3    H165536   3.739   2.496  14.861  0.9461 -0.4755  1.2159
14707TIP3    H265537   3.826   2.490  14.737 -0.6391  1.2254 -0.0238
14708TIP3   OH265538   4.940   0.062  11.758  0.4677 -0.2524  0.4018
14708TIP3    H165539   4.920   0.056  11.852 -1.3947  0.9790  0.1307
14708TIP3    H265540   4.894  -0.013  11.720  3.5750 -2.5185  0.7036
14709TIP3   OH265541   3.178   4.048   4.558 -0.1145  0.0796  0.3962
14709TIP3    H165542   3.221   3.978   4.508 -0.1115 -0.5915  1.3256
14709TIP3    H265543   3.091   4.055   4.518  0.1674  0.1199 -0.2300
14710TIP3   OH265544   1.135   1.792  14.217 -1.0970 -0.6252  0.1702
14710TIP3    H165545   1.225   1.810  14.192 -0.2028 -0.9091  2.8108
14710TIP3    H265546   1.087   1.871  14.194 -0.1783 -0.4405 -1.2027
14711TIP3   OH265547   0.030   6.252   6.274  0.2070  0.7687  0.7668
14711TIP3    H165548  -0.012   6.206   6.347 -0.8697  0.7836  0.1717
14711TIP3    H265549  -0.013   6.337   6.271  0.2677  0.7825  0.1377
14712TIP3   OH265550   0.971   4.338  11.885  0.6874 -0.2369 -1.1054
14712TIP3    H165551   0.968   4.424  11.842  1.8341  0.0951 -0.5598
14712TIP3    H265552   1.005   4.279  11.817 -0.9429 -0.4653 -1.7607
14713TIP3   OH265553   1.677   5.474  12.104  0.9259 -0.2911  0.1739
14713TIP3    H165554   1.659   5.544  12.042  1.3145 -1.9474 -1.9404
14713TIP3    H265555   1.622   5.401  12.075  0.2902 -0.8233  2.4763
14714TIP3   OH265556   0.026   3.016   5.313  0.1620 -0.0274  0.3693
14714TIP3    H165557  -0.012   3.089   5.264 -2.8762 -1.8522 -0.2684
14714TIP3    H265558  -0.023   2.939   5.283  2.5397 -2.2147  1.7122
14715TIP3   OH265559   3.851   4.018  15.430 -0.3512  0.5994 -0.3295
14715TIP3    H165560   3.799   4.036  15.352  1.9718 -1.1593 -2.4793
14715TIP3    H265561   3.837   3.925  15.447  0.5845  0.5410  0.1989
14716TIP3   OH265562   6.100   6.222   1.607 -0.3673  0.5051 -0.2449
14716TIP3    H165563   6.020   6.265   1.637  0.1537  0.3878  1.4300
14716TIP3    H265564   6.072   6.135   1.580 -1.2886  1.5325 -2.8397
14717TIP3   OH265565   0.671   4.125  10.571  0.2456 -0.4638  0.4088
14717TIP3    H165566   0.728   4.059  10.611 -1.1225 -1.6833  0.4507
14717TIP3    H265567   0.582   4.091  10.585 -0.4325  0.7949 -0.6539
14718TIP3   OH265568   0.318   3.016   3.335  0.3682  0.1818  0.1824
14718TIP3    H165569   0.311   3.109   3.312 -2.2858 -1.0297 -5.8766
14718TIP3    H265570   0.247   3.002   3.399 -0.8772  1.9359 -0.7202
14719TIP3   OH265571   6.627   0.705  17.213  0.0133 -0.4101 -0.1772
14719TIP3    H165572   6.544   0.657  17.218 -1.1274  1.1679 -2.2188
14719TIP3    H265573   6.684   0.648  17.162 -0.2084 -0.9995  0.2270
14720TIP3   OH265574   3.067   1.885  12.279 -0.0559 -0.2419  0.0415
14720TIP3    H165575   3.091   1.952  12.343  0.1696  1.5400 -1.7839
14720TIP3    H265576   3.138   1.887  12.215 -1.7048  0.2809 -1.8767
14721TIP3   OH265577   6.189   2.699   3.030  0.2375  0.1257  0.1556
14721TIP3    H165578   6.240   2.618   3.029 -0.8763 -0.6375  1.6958
14721TIP3    H265579   6.211   2.740   3.113 -2.4865 -0.8330  1.4580
14722TIP3   OH265580   6.743   4.265   0.694  0.0146  0.1564  0.1895
14722TIP3    H165581   6.713   4.331   0.632  1.3830  0.9753  0.3657
14722TIP3    H265582   6.751   4.312   0.777 -0.7092 -0.6635  0.7381
14723TIP3   OH265583   2.477   5.640   1.253 -0.0843 -0.3399 -0.4325
14723TIP3    H165584   2.438   5.627   1.166 -0.7981  0.7714 -0.3092
14723TIP3    H265585   2.565   5.605   1.245 -0.3116 -0.7413 -1.4510
14724TIP3   OH265586   3.885   0.395  11.507 -0.5435  0.0687 -0.5317
14724TIP3    H165587   3.897   0.490  11.504 -0.8442  0.2774  2.4231
14724TIP3    H265588   3.798   0.383  11.546 -0.4386 -1.4164 -0.7149
14725TIP3   OH265589   2.080   3.298   0.462 -0.5326  0.2172 -0.4496
14725TIP3    H165590   2.136   3.228   0.495 -3.5796 -0.9981  2.7233
14725TIP3    H265591   2.123   3.379   0.490  0.3309 -0.6044  0.6860
14726TIP3   OH265592   6.488   0.616  15.483  0.1829  0.0476  0.3983
14726TIP3    H165593   6.563   0.613  15.543  0.5981 -1.6354 -0.1511
14726TIP3    H265594   6.526   0.639  15.398 -0.0478  0.0628  0.2988
14727TIP3   OH265595   0.338   6.100   3.671  0.2536  0.4981 -0.1794
14727TIP3    H165596   0.395   6.143   3.735  0.4250  1.1554 -0.7663
14727TIP3    H265597   0.300   6.026   3.719  0.9524  0.5412  0.4610
14728TIP3   OH265598   5.417   1.509   0.176 -0.0702  0.9569  0.6434
14728TIP3    H165599   5.375   1.455   0.243  0.8869  0.1704  0.6387
14728TIP3    H265600   5.404   1.599   0.205 -1.8586  0.7599  0.5618
14729TIP3   OH265601   3.243   1.122   5.641  0.0799 -0.0143  0.1927
14729TIP3    H165602   3.230   1.211   5.606  0.7669 -0.2989 -0.8105
14729TIP3    H265603   3.337   1.108   5.637  0.0189 -0.6419  0.7540
14730TIP3   OH265604   2.355   4.107  10.595  0.0616 -0.4566 -0.0579
14730TIP3    H165605   2.288   4.097  10.662 -0.4388  0.2420 -0.4412
14730TIP3    H265606   2.406   4.183  10.623 -1.9548  1.7350 -1.8999
14731TIP3   OH265607   6.432   4.220  12.447 -0.4393  0.5338  0.5651
14731TIP3    H165608   6.445   4.208  12.353 -1.1661 -1.1501  0.6524
14731TIP3    H265609   6.504   4.277  12.474  1.8304 -1.6580 -0.4170
14732TIP3   OH265610   2.099   5.882  14.089  0.2587 -0.2098  0.5109
14732TIP3    H165611   2.184   5.898  14.046  0.9036 -0.0259  1.8132
14732TIP3    H265612   2.122   5.864  14.180 -1.0671 -0.8418  0.7320
14733TIP3   OH265613   0.854   1.736   4.952 -0.1106  0.3214  0.2559
14733TIP3    H165614   0.818   1.671   4.891 -1.4877 -0.5775  1.9527
14733TIP3    H265615   0.947   1.712   4.959 -0.4532 -1.0576  0.3454
14734TIP3   OH265616   0.108   2.474  13.691 -0.1995 -0.7406 -0.0811
14734TIP3    H165617   0.031   2.476  13.635  0.4811 -1.7117 -1.0994
14734TIP3    H265618   0.073   2.462  13.779 -1.3011  1.0421 -0.2222
14735TIP3   OH265619   0.313   1.499   1.161  0.3918 -0.1740 -0.7324
14735TIP3    H165620   0.389   1.442   1.169  2.6914  2.7224 -0.3557
14735TIP3    H265621   0.293   1.501   1.067  3.6433  2.2875 -1.5350
14736TIP3   OH265622   3.615   5.814   0.159  0.4199 -0.0334 -0.1715
14736TIP3    H165623   3.553   5.887   0.151 -1.0226 -0.9228  1.9054
14736TIP3    H265624   3.673   5.839   0.231  1.7631  0.2479 -1.3077
14737TIP3   OH265625   2.497   5.099   3.918  0.7442 -0.0218  0.4192
14737TIP3    H165626   2.519   5.007   3.924 -0.7737 -0.3308  2.4127
14737TIP3    H265627   2.545   5.131   3.841 -0.1585 -2.8605 -1.4626
14738TIP3   OH265628   3.205   4.224  11.701  0.1828  0.4448  0.4023
14738TIP3    H165629   3.208   4.315  11.731  1.2626  1.0119 -1.2935
14738TIP3    H265630   3.131   4.186  11.748  1.1804  1.4867  3.0268
14739TIP3   OH265631   4.179   2.744   6.560 -0.0368  0.1235 -0.0916
14739TIP3    H165632   4.162   2.663   6.512 -0.4965  0.7125 -0.9452
14739TIP3    H265633   4.249   2.722   6.621 -0.1083 -0.8956 -0.3682
14740TIP3   OH265634   4.333   0.900   0.706 -0.3644  0.8827 -0.1368
14740TIP3    H165635   4.268   0.834   0.681 -0.3405  1.4168 -1.6919
14740TIP3    H265636   4.417   0.858   0.691 -0.3426  0.7424  0.3586
14741TIP3   OH265637   1.495   2.920   3.298 -0.0566 -0.0772 -0.7511
14741TIP3    H165638   1.552   2.978   3.348  0.4976 -1.6802  0.5877
14741TIP3    H265639   1.506   2.946   3.207  1.3606  0.8782 -0.3219
14742TIP3   OH265640   5.185   3.143   4.186 -0.3251 -0.1375  0.4864
14742TIP3    H165641   5.209   3.059   4.223  1.2192  1.1822  2.7332
14742TIP3    H265642   5.151   3.193   4.260  1.2383  2.0442 -0.1604
14743TIP3   OH265643   6.563   6.242  14.642  0.1518  1.1805 -0.5547
14743TIP3    H165644   6.538   6.197  14.562  0.3375  0.9271 -0.4704
14743TIP3    H265645   6.594   6.173  14.701 -0.1998  1.3347 -0.1807
14744TIP3   OH265646   1.513   6.085   0.421 -0.0100  0.1345  0.2308
14744TIP3    H165647   1.601   6.075   0.384 -0.4304  2.2652 -1.5432
14744TIP3    H265648   1.477   5.997   0.420  1.4007 -0.4766 -0.9137
14745TIP3   OH265649   4.977   4.026   0.056  0.2459 -0.0482  0.0487
14745TIP3    H165650   4.939   3.944   0.089  0.8740 -0.2638  0.2379
14745TIP3    H265651   5.016   4.067   0.133  0.2805  0.2400 -0.1234
14746TIP3   OH265652   4.992   5.761  13.685  0.3997 -0.0015 -0.1230
14746TIP3    H165653   4.916   5.751  13.742  0.0055  2.2248 -0.1662
14746TIP3    H265654   5.067   5.742  13.741 -0.0786  0.1361  0.5740
14747TIP3   OH265655   5.468   5.096   1.670 -0.2836 -0.4699  0.0242
14747TIP3    H165656   5.403   5.025   1.673  0.2820 -1.0123 -0.3658
14747TIP3    H265657   5.552   5.051   1.676  0.0618  0.2246  0.4433
14748TIP3   OH265658   4.235   6.683   6.290  0.4396  0.0537  0.1450
14748TIP3    H165659   4.142   6.693   6.272  0.6809  0.8145 -0.7550
14748TIP3    H265660   4.239   6.617   6.359 -0.7744  0.1854  0.3620
14749TIP3   OH265661   2.899   4.203   2.257 -0.1148 -0.2009 -1.2430
14749TIP3    H165662   2.865   4.153   2.182  0.3070 -0.2777 -1.3867
14749TIP3    H265663   2.822   4.244   2.296 -0.2969  0.1295 -1.9381
14750TIP3   OH265664   3.960   4.364   0.697 -0.1169  0.3620 -0.1018
14750TIP3    H165665   3.901   4.381   0.771 -0.0043  0.9866 -0.1498
14750TIP3    H265666   4.047   4.386   0.730 -0.0302  0.3607 -0.3299
14751TIP3   OH265667   4.713   1.144   5.805  0.4678 -0.1173  0.3102
14751TIP3    H165668   4.685   1.224   5.849  1.5990  0.7041 -0.4083
14751TIP3    H265669   4.782   1.108   5.861 -0.6198 -1.1048  1.0857
14752TIP3   OH265670   3.795   3.948   2.745 -0.2182  0.2111  0.4316
14752TIP3    H165671   3.800   3.859   2.710 -1.4895 -0.1468  1.0972
14752TIP3    H265672   3.819   3.939   2.837 -1.7853  0.2817  0.8714
14753TIP3   OH265673   6.068   3.787  14.096  0.3736 -0.6140  0.1243
14753TIP3    H165674   6.146   3.804  14.042 -1.3848 -2.3687 -3.2908
14753TIP3    H265675   6.010   3.861  14.077 -0.7158 -1.8111 -1.4913
14754TIP3   OH265676   3.008   0.650   6.164  0.7435  0.2259  0.1674
14754TIP3    H165677   3.104   0.654   6.158  0.7560  0.1694  0.3202
14754TIP3    H265678   2.988   0.692   6.248  0.6369  0.2117  0.1483
14755TIP3   OH265679   1.810   4.798   3.181  0.0730  0.1160  0.4814
14755TIP3    H165680   1.767   4.777   3.099  4.8565  2.0061 -2.9706
14755TIP3    H265681   1.782   4.888   3.201  0.7108  0.5471 -0.5125
14756TIP3   OH265682   5.451   6.282   5.805  0.6019 -0.4539  0.0593
14756TIP3    H165683   5.502   6.363   5.802 -0.4119  0.1834 -0.7088
14756TIP3    H265684   5.434   6.268   5.898 -0.5145  1.0859  0.1198
14757TIP3   OH265685   6.667   4.309  14.126 -0.1317 -0.3942  0.3116
14757TIP3    H165686   6.607   4.265  14.186 -1.8921 -0.9191 -1.7093
14757TIP3    H265687   6.730   4.241  14.102 -1.5292 -1.2555 -1.0881
14758TIP3   OH265688   5.713   3.649  14.759 -0.2644  0.0267 -0.5926
14758TIP3    H165689   5.693   3.556  14.764 -0.8172  0.1482 -0.4727
14758TIP3    H265690   5.694   3.683  14.846 -0.8396  0.3989 -0.8578
14759TIP3   OH265691   4.834   4.889  15.353  0.3718  0.5799 -0.0154
14759TIP3    H165692   4.901   4.928  15.297  0.9054 -1.2675 -0.7348
14759TIP3    H265693   4.882   4.859  15.431 -0.2653  2.5727  1.2073
14760TIP3   OH265694   3.972   3.093  14.006  0.2168  0.0148  0.1542
14760TIP3    H165695   3.961   3.064  13.915 -2.0155 -0.4332  0.5353
14760TIP3    H265696   4.006   3.016  14.052  3.9023  0.9180 -0.6762
14761TIP3   OH265697   3.907   2.693   0.497 -1.1790 -0.3880  0.1838
14761TIP3    H165698   3.959   2.771   0.518  0.6142 -1.1864 -1.0808
14761TIP3    H265699   3.850   2.721   0.425  0.9328 -0.7070 -1.7236
14762TIP3   OH265700   2.690   3.773  16.879 -0.2382 -0.0605  0.2264
14762TIP3    H165701   2.649   3.850  16.841  0.1451 -0.6410 -1.4713
14762TIP3    H265702   2.668   3.702  16.819  2.8787 -0.4739 -0.6073
14763TIP3   OH265703   6.631   1.709   4.895  0.7791 -0.6579 -0.1779
14763TIP3    H165704   6.632   1.784   4.836 -0.6128 -1.1500 -0.8620
14763TIP3    H265705   6.723   1.685   4.904  1.3783  1.6892  0.8398
14764TIP3   OH265706   6.309   1.538  12.750  0.5241 -0.0730 -0.1027
14764TIP3    H165707   6.222   1.575  12.734 -0.0259 -1.7962 -1.4036
14764TIP3    H265708   6.311   1.521  12.844 -0.3453  0.4756  0.0224
14765TIP3   OH265709   0.565   2.398   2.535  0.3770 -0.2332 -0.0550
14765TIP3    H165710   0.578   2.421   2.443  0.7297  0.4778  0.1662
14765TIP3    H265711   0.471   2.411   2.550  0.6415  1.7463  0.2161
14766TIP3   OH265712   3.979   5.359   1.118 -0.3801 -0.1798 -0.7753
14766TIP3    H165713   4.066   5.397   1.111  0.2142 -1.3149  0.0758
14766TIP3    H265714   3.954   5.371   1.209 -0.6118 -0.8812 -0.7384
14767TIP3   OH265715   4.211   5.206  15.046  0.1354  0.2769  0.5066
14767TIP3    H165716   4.247   5.161  14.969 -1.0622 -0.7928  0.5347
14767TIP3    H265717   4.287   5.226  15.100  0.8359 -0.4542 -0.1800
14768TIP3   OH265718   2.844   5.398   0.338  0.3045  0.1626 -0.2621
14768TIP3    H165719   2.920   5.423   0.285  0.6978  0.1161  0.2671
14768TIP3    H265720   2.795   5.479   0.349  0.1494  0.1468 -0.8023
14769TIP3   OH265721   4.367   5.228  14.220  0.7828 -0.9161  0.0301
14769TIP3    H165722   4.324   5.149  14.253 -0.0127 -0.3947  0.2509
14769TIP3    H265723   4.304   5.298  14.233  1.5210 -0.2119 -0.0709
14770TIP3   OH265724   4.763   5.519  16.965  0.5718 -0.0492 -0.2136
14770TIP3    H165725   4.848   5.477  16.980  0.9127  0.1389 -1.4593
14770TIP3    H265726   4.775   5.566  16.882 -1.5398 -2.1501 -1.8150
14771TIP3   OH265727   3.973   5.007   4.025 -0.2828 -0.0022 -0.1743
14771TIP3    H165728   3.878   5.001   4.012 -0.2600 -1.4569  0.1386
14771TIP3    H265729   3.984   5.013   4.120  0.0207 -4.1388  0.2166
14772TIP3   OH265730   3.769   4.928  13.901 -0.2266 -0.4193 -0.0078
14772TIP3    H165731   3.842   4.916  13.840  0.6279 -1.8539  1.2165
14772TIP3    H265732   3.806   4.908  13.987 -1.1460  2.3966  1.1776
14773TIP3   OH265733   3.346   4.518   3.022  0.0444  0.4973 -0.0028
14773TIP3    H165734   3.435   4.486   3.013 -1.0199 -2.1459 -3.2496
14773TIP3    H265735   3.302   4.454   3.078  0.4014  2.7865  3.2206
14774TIP3   OH265736   0.854   5.859  13.980  0.8552  0.2512  0.0047
14774TIP3    H165737   0.945   5.889  13.974  0.7536  0.5168 -0.2159
14774TIP3    H265738   0.859   5.765  13.963  1.2964 -0.0614  1.6699
14775TIP3   OH265739   0.819   0.962  10.574 -0.8835 -0.4802 -0.4373
14775TIP3    H165740   0.737   0.962  10.524 -0.9689 -1.5122 -0.3214
14775TIP3    H265741   0.879   1.016  10.523 -1.2072 -0.8697 -1.2497
14776TIP3   OH265742   4.580   2.774  11.931  0.5052 -0.0213 -0.1874
14776TIP3    H165743   4.617   2.720  11.861  0.6419  0.0196 -0.1474
14776TIP3    H265744   4.488   2.785  11.907  0.1903 -1.2375  0.4032
14777TIP3   OH265745   0.917   5.666  10.576 -0.1953 -0.2585  0.2096
14777TIP3    H165746   0.836   5.616  10.582 -1.1961  1.1494 -0.8284
14777TIP3    H265747   0.921   5.716  10.658  0.7697 -1.9068  1.2127
14778TIP3   OH265748   1.058   2.711   5.475  0.6701  0.0159  0.2637
14778TIP3    H165749   1.110   2.763   5.414  1.1832 -0.6338  0.1253
14778TIP3    H265750   1.072   2.620   5.446 -0.1011 -0.2057  0.5681
14779TIP3   OH265751   4.233   6.598  12.822  0.5146 -0.8776 -0.0172
14779TIP3    H165752   4.176   6.537  12.776  0.9004 -1.1813 -0.0989
14779TIP3    H265753   4.311   6.605  12.766  1.3244 -1.8482  0.9522
14780TIP3   OH265754   5.753   1.873   0.086 -0.2255  0.6087 -0.0336
14780TIP3    H165755   5.723   1.886   0.176  0.0465  2.1237 -0.1439
14780TIP3    H265756   5.786   1.783   0.085 -0.2279  0.5702  1.3798
14781TIP3   OH265757   2.598   5.423   4.134 -0.7799  0.0565  0.2781
14781TIP3    H165758   2.511   5.463   4.132 -1.4174 -1.2500 -2.0787
14781TIP3    H265759   2.640   5.454   4.053  0.4100 -0.4591  0.6768
14782TIP3   OH265760   3.884   5.856   3.923 -0.2727 -0.7812  0.8709
14782TIP3    H165761   3.882   5.762   3.940 -1.6166 -0.7036  1.2221
14782TIP3    H265762   3.894   5.864   3.828 -3.1801 -1.3332  0.4495
14783TIP3   OH265763   3.543   0.997   1.602  0.5021 -0.2606 -0.4321
14783TIP3    H165764   3.468   0.947   1.635  0.2265  0.5976  0.2760
14783TIP3    H265765   3.619   0.947   1.632  0.2298 -0.6992 -0.4448
14784TIP3   OH265766   5.910   2.676  13.318 -0.3419 -0.4538  0.3254
14784TIP3    H165767   5.865   2.731  13.254  1.3654  0.2025 -0.3763
14784TIP3    H265768   5.993   2.721  13.334  0.7799 -2.4177  0.3502
14785TIP3   OH265769   1.029   0.117   6.824  0.2061  0.5239 -0.4954
14785TIP3    H165770   1.100   0.100   6.762 -0.5743  0.7029 -1.4540
14785TIP3    H265771   1.047   0.205   6.856  0.9116  0.2258 -0.0492
14786TIP3   OH265772   2.697   5.861  15.382 -0.1762  0.2463 -0.0914
14786TIP3    H165773   2.722   5.950  15.358 -2.2797  1.1101  0.6801
14786TIP3    H265774   2.679   5.818  15.298 -1.1552  1.2183 -0.4083
14787TIP3   OH265775   5.002   4.872   5.351 -0.6958  0.0750  0.1536
14787TIP3    H165776   4.976   4.924   5.427  2.5765 -0.5218  1.8688
14787TIP3    H265777   5.067   4.927   5.306 -1.8306 -0.0115 -1.7210
14788TIP3   OH265778   4.552   6.264   3.622  0.5276  0.3634 -0.0898
14788TIP3    H165779   4.540   6.272   3.527 -0.0864 -0.2559 -0.0682
14788TIP3    H265780   4.470   6.226   3.654  0.3921  1.3670  0.8111
14789TIP3   OH265781   1.698   4.262   4.954 -0.0246  0.3576  0.0218
14789TIP3    H165782   1.739   4.282   5.038 -0.1696  1.1156 -0.0839
14789TIP3    H265783   1.770   4.227   4.900  0.2102  0.5046  0.2386
14790TIP3   OH265784   5.055   0.727   3.484 -0.6749  0.0555 -0.3713
14790TIP3    H165785   5.005   0.654   3.522 -2.9675  1.7073 -0.0209
14790TIP3    H265786   4.992   0.798   3.476  1.2734  1.7746 -1.4901
14791TIP3   OH265787   2.840   0.474   2.444 -0.2591  0.1620 -0.6019
14791TIP3    H165788   2.906   0.484   2.511 -2.0560 -0.4960  1.3844
14791TIP3    H265789   2.809   0.563   2.426 -0.8561  0.2255  0.6518
14792TIP3   OH265790   0.928   3.252  13.660  0.0024  0.6316 -0.4313
14792TIP3    H165791   0.971   3.169  13.639 -2.8306 -1.6052  1.8210
14792TIP3    H265792   0.931   3.301  13.578  1.4299 -1.8696 -2.0210
14793TIP3   OH265793   0.529   4.853  11.429 -0.3203 -0.5806 -0.2195
14793TIP3    H165794   0.574   4.937  11.417  0.3600 -0.9801 -0.5118
14793TIP3    H265795   0.591   4.788  11.398 -1.1212 -1.1473 -0.6661
14794TIP3   OH265796   6.361   6.282   4.592  0.0331  0.1784 -0.1326
14794TIP3    H165797   6.302   6.355   4.611 -0.6057  0.3088 -2.3483
14794TIP3    H265798   6.449   6.321   4.596  0.1652 -0.1342  3.7260
14795TIP3   OH265799   3.440   4.412  13.673  0.1287 -0.3637  0.1738
14795TIP3    H165800   3.373   4.386  13.737 -0.9378  0.6445 -0.5016
14795TIP3    H265801   3.400   4.393  13.588 -0.4511  2.7030 -0.3552
14796TIP3   OH265802   1.198   3.822  14.111 -0.2109 -0.1857 -0.0879
14796TIP3    H165803   1.173   3.879  14.184  1.0248 -2.2548  2.0763
14796TIP3    H265804   1.116   3.805  14.065 -2.1270 -2.6688  3.7445
14797TIP3   OH265805   5.383   4.885   0.311  0.6169  0.1693 -0.2374
14797TIP3    H165806   5.364   4.972   0.276  2.2272  0.6547 -0.0084
14797TIP3    H265807   5.361   4.892   0.404  1.4181  0.5770 -0.0679
14798TIP3   OH265808   1.638   6.621   5.450 -0.5363  0.3976  0.6210
14798TIP3    H165809   1.598   6.682   5.388  0.1972 -0.4528 -0.7415
14798TIP3    H265810   1.631   6.536   5.407  1.6443  0.0420  0.8635
14799TIP3   OH265811   6.298   4.257  11.896  0.3123 -0.2642  0.3367
14799TIP3    H165812   6.284   4.193  11.827 -0.5434 -1.1665  1.3060
14799TIP3    H265813   6.331   4.206  11.970  0.8966  0.6297  0.7162
14800TIP3   OH265814   2.430   6.198   1.508  0.1051 -0.4627  0.3239
14800TIP3    H165815   2.523   6.219   1.495  0.8175 -2.5095  1.5325
14800TIP3    H265816   2.416   6.210   1.602 -0.9508  0.1193  0.0959
14801TIP3   OH265817   0.534   5.337  14.222 -0.0939 -0.1588  0.4655
14801TIP3    H165818   0.581   5.254  14.230 -0.1754 -0.1882  0.6521
14801TIP3    H265819   0.557   5.385  14.301 -1.8115 -0.9117  1.4841
14802TIP3   OH265820   0.432   0.708  10.139 -0.1937 -0.2035  0.3773
14802TIP3    H165821   0.475   0.623  10.146 -1.3956 -0.7904  0.9893
14802TIP3    H265822   0.493   0.769  10.181  1.4028 -0.4507 -1.4554
14803TIP3   OH265823   1.202   5.329  14.019 -0.4085 -0.4180 -0.0410
14803TIP3    H165824   1.230   5.420  14.018  0.8074 -0.7718 -0.2750
14803TIP3    H265825   1.283   5.279  14.015 -1.0404 -1.5197  0.4253
14804TIP3   OH265826   4.594   1.105  11.933 -0.3170 -0.4708  0.4753
14804TIP3    H165827   4.532   1.032  11.930  0.4592 -1.1263 -0.2259
14804TIP3    H265828   4.667   1.076  11.879 -0.2656  1.0986 -0.3343
14805TIP3   OH265829   5.277   5.072  13.270  0.2310 -0.2819  0.1896
14805TIP3    H165830   5.329   5.131  13.216 -0.4593  0.6881  0.5448
14805TIP3    H265831   5.342   5.022  13.321  0.8526 -0.6583 -0.9465
14806TIP3   OH265832   2.847   0.622  13.845 -0.2512  0.1766  0.0962
14806TIP3    H165833   2.810   0.669  13.920  0.2823 -0.3369  0.7016
14806TIP3    H265834   2.776   0.617  13.782 -0.2653  1.9269 -0.0554
14807TIP3   OH265835   5.434   1.737   4.228 -0.6570  0.4580 -0.1664
14807TIP3    H165836   5.442   1.712   4.321 -2.0130  2.0635  0.4246
14807TIP3    H265837   5.352   1.698   4.200 -0.0192 -0.4233 -0.8616
14808TIP3   OH265838   0.871   3.832  12.886  0.3833  0.2981  0.4679
14808TIP3    H165839   0.905   3.753  12.845  0.9028  1.0607 -0.6319
14808TIP3    H265840   0.781   3.839  12.854  0.8515  1.0042 -0.7907
14809TIP3   OH265841   6.393   4.529   5.806  0.1225  1.1516  0.2011
14809TIP3    H165842   6.486   4.524   5.788  0.2097  0.5475  0.8019
14809TIP3    H265843   6.353   4.551   5.722  0.5108 -1.5168 -0.7513
14810TIP3   OH265844   1.568   0.590  11.652 -0.2078 -0.3869  0.7875
14810TIP3    H165845   1.591   0.565  11.742 -0.3689  0.7235  1.1458
14810TIP3    H265846   1.619   0.669  11.635  1.2023 -1.5494 -0.7526
14811TIP3   OH265847   2.573   2.246  11.621 -0.2471  0.1909  0.4751
14811TIP3    H165848   2.570   2.341  11.631  5.1183  0.7294  0.0086
14811TIP3    H265849   2.565   2.232  11.526 -0.9456  0.1810  0.5351
14812TIP3   OH265850   4.569   1.384  12.780  0.2342  0.3059 -0.1721
14812TIP3    H165851   4.617   1.311  12.819  1.0712  0.5959 -0.6197
14812TIP3    H265852   4.625   1.412  12.707  0.1919  1.7341  0.3195
14813TIP3   OH265853   0.271   1.965  15.138  0.3150 -0.0382  0.4479
14813TIP3    H165854   0.336   1.908  15.178  1.1615  1.3493  1.1164
14813TIP3    H265855   0.187   1.933  15.172  0.9168  0.2801  2.3780
14814TIP3   OH265856   3.264   2.935  11.424 -0.1957 -0.1191 -0.3293
14814TIP3    H165857   3.219   2.987  11.358 -1.6271 -1.4998 -0.5032
14814TIP3    H265858   3.194   2.898  11.477  0.8929  0.9432  2.0199
14815TIP3   OH265859   2.352   2.848   3.499 -0.2679  0.0008  0.2159
14815TIP3    H165860   2.443   2.825   3.483 -0.2165 -0.4892  1.1560
14815TIP3    H265861   2.308   2.831   3.416  0.9407  2.7401 -1.1020
14816TIP3   OH265862   0.961   6.474   1.138  0.3779  0.8741  0.7484
14816TIP3    H165863   0.932   6.539   1.074  1.1255  0.3111 -0.1956
14816TIP3    H265864   0.990   6.526   1.213  1.1830  1.6638 -0.0771
14817TIP3   OH265865   6.148   5.782  11.557  0.2978 -0.1474  1.0646
14817TIP3    H165866   6.068   5.756  11.603 -0.2899  0.1097  0.2173
14817TIP3    H265867   6.215   5.721  11.588 -0.5318 -1.2175  0.8141
14818TIP3   OH265868   2.402   4.311   5.727  0.0031  0.1724 -0.7929
14818TIP3    H165869   2.449   4.394   5.721 -0.4359  0.4268 -0.6587
14818TIP3    H265870   2.354   4.316   5.809 -0.8066  0.1899 -1.2589
14819TIP3   OH265871   6.732   1.028  13.204 -0.0563  0.8600 -0.1101
14819TIP3    H165872   6.639   1.039  13.186  0.0163  1.5552 -0.0925
14819TIP3    H265873   6.764   0.973  13.133 -0.6913 -0.3045  0.4764
14820TIP3   OH265874   0.389   1.718  12.016  0.2357  0.0096  0.4679
14820TIP3    H165875   0.295   1.713  12.001  0.0585  2.3411  0.4373
14820TIP3    H265876   0.428   1.676  11.940 -0.7909  1.3789 -0.8754
14821TIP3   OH265877   4.622   2.912   1.234  0.2380  0.2012 -0.8884
14821TIP3    H165878   4.548   2.921   1.174  0.0791 -0.5328 -0.8128
14821TIP3    H265879   4.680   2.986   1.213 -0.7557  1.0869 -0.5933
14822TIP3   OH265880   0.723   0.069   6.290  0.0644 -0.2649 -0.1943
14822TIP3    H165881   0.635   0.053   6.325  0.3816 -1.3996  0.1403
14822TIP3    H265882   0.709   0.128   6.216 -1.0694 -0.9742 -0.5771
14823TIP3   OH265883   5.879   2.369  12.029  0.2940  0.6324  0.4268
14823TIP3    H165884   5.963   2.411  12.047 -0.0800  0.9886  1.3674
14823TIP3    H265885   5.858   2.395  11.939  0.8542  1.1137  0.4311
14824TIP3   OH265886   2.236   6.341  11.607  0.2235  0.0918 -0.1387
14824TIP3    H165887   2.195   6.308  11.687  1.1419  0.3860  0.4696
14824TIP3    H265888   2.256   6.433  11.626  1.1815 -0.0564 -0.4145
14825TIP3   OH265889   0.316   6.153  12.587 -0.2732  0.0828  0.2986
14825TIP3    H165890   0.272   6.214  12.527 -2.4649 -2.9039 -1.4116
14825TIP3    H265891   0.257   6.149  12.663 -0.9380 -0.9416 -0.2482
14826TIP3   OH265892   4.792   2.599  11.798 -0.1529 -0.2978 -0.4114
14826TIP3    H165893   4.824   2.623  11.885 -1.9118 -0.2844  0.2799
14826TIP3    H265894   4.823   2.509  11.785  0.9719  0.0443 -0.2294
14827TIP3   OH265895   6.511   1.890   5.730  0.7586  0.4406 -0.4656
14827TIP3    H165896   6.596   1.861   5.764  0.6252  0.4038 -0.1586
14827TIP3    H265897   6.500   1.978   5.767 -0.0492 -0.1614  0.7857
14828TIP3   OH265898   0.909   2.285  17.278 -0.3669  0.0807  0.0809
14828TIP3    H165899   0.903   2.251  17.188 -1.8181  0.3971  0.0273
14828TIP3    H265900   0.821   2.276  17.313  0.3550 -0.7748  1.7750
14829TIP3   OH265901   3.948   2.767  15.540 -0.1857 -0.6246 -0.5060
14829TIP3    H165902   4.027   2.794  15.493  0.3202  1.8683  1.5513
14829TIP3    H265903   3.878   2.818  15.500  0.3887  2.2356  1.7845
14830TIP3   OH265904   3.629   1.418  15.551  0.1510  0.1698 -0.0344
14830TIP3    H165905   3.615   1.353  15.482  1.4216 -1.2406  0.9610
14830TIP3    H265906   3.629   1.502  15.506 -0.2822 -0.6135 -1.5601
14831TIP3   OH265907   5.157   5.024  12.318 -0.0795  0.3819 -0.0352
14831TIP3    H165908   5.236   5.070  12.291  0.7074 -0.5506  0.6018
14831TIP3    H265909   5.088   5.090  12.317  0.9559  1.4962  0.6176
14832TIP3   OH265910   5.467   6.312   2.105  0.9598 -0.1719 -0.1551
14832TIP3    H165911   5.469   6.406   2.086 -0.4158 -0.2405 -0.7992
14832TIP3    H265912   5.428   6.306   2.192 -0.7967 -0.1960 -0.9060
14833TIP3   OH265913   3.584   3.198   4.891 -0.1749 -0.1137 -0.1199
14833TIP3    H165914   3.548   3.140   4.824 -1.1528  1.3980 -0.9767
14833TIP3    H265915   3.678   3.198   4.876 -0.1487 -1.4809 -0.0611
14834TIP3   OH265916   1.754   2.551   3.826 -0.1029  0.1191 -0.0314
14834TIP3    H165917   1.783   2.639   3.850 -0.1749  0.3940 -0.9109
14834TIP3    H265918   1.661   2.562   3.805 -0.4189 -0.4074  1.0156
14835TIP3   OH265919   4.116   4.566   0.852 -0.4389 -0.0222 -0.1475
14835TIP3    H165920   4.052   4.628   0.818  0.2959  1.1974  0.6424
14835TIP3    H265921   4.200   4.611   0.845  0.1130 -0.9063  0.4993
14836TIP3   OH265922   6.021   2.571  11.264 -0.1898  0.1684  0.1919
14836TIP3    H165923   5.953   2.537  11.205  0.6648  0.2596 -0.8809
14836TIP3    H265924   6.097   2.586  11.207  0.8578 -0.2719  1.4240
14837TIP3   OH265925   1.930   6.478  14.336 -0.0801 -0.5979 -0.2823
14837TIP3    H165926   1.877   6.543  14.290  0.6091 -0.0391 -0.2990
14837TIP3    H265927   1.884   6.464  14.418 -2.6170 -3.3253 -1.9720
14838TIP3   OH265928   3.877   5.579   0.528  0.4936 -0.1977  0.2266
14838TIP3    H165929   3.793   5.565   0.572  1.4285 -3.2896  1.2859
14838TIP3    H265930   3.856   5.579   0.435 -1.0768  2.9040  0.4750
14839TIP3   OH265931   5.446   3.918   0.940 -0.4165 -0.4318 -0.3025
14839TIP3    H165932   5.461   3.925   1.034 -1.8884  0.7063 -0.1162
14839TIP3    H265933   5.356   3.884   0.933 -0.8946  0.9495 -1.2666
14840TIP3   OH265934   6.431   2.920  12.004 -0.2319 -0.4573 -0.0355
14840TIP3    H165935   6.366   2.850  11.994 -0.1878 -0.2790 -1.8005
14840TIP3    H265936   6.481   2.894  12.082 -1.4109 -1.3932  0.4539
14841TIP3   OH265937   5.170   1.127  15.580  0.0148  0.7156  0.2204
14841TIP3    H165938   5.210   1.101  15.663 -1.5016  0.1145  0.7973
14841TIP3    H265939   5.117   1.204  15.602 -1.5427 -0.2831  0.1653
14842TIP3   OH265940   0.098   3.625  13.369  0.6203 -0.0182  0.1631
14842TIP3    H165941   0.018   3.667  13.401  0.4588 -0.5838  0.5190
14842TIP3    H265942   0.168   3.671  13.414  0.4584  0.0406  0.3608
14843TIP3   OH265943   3.265   5.558   5.194 -0.1441  0.4304 -0.1797
14843TIP3    H165944   3.312   5.635   5.163  1.0516 -0.9221 -1.8847
14843TIP3    H265945   3.318   5.484   5.167 -2.7512 -1.1572 -1.3918
14844TIP3   OH265946   5.007   3.337   0.402  0.1263  0.4291 -0.0286
14844TIP3    H165947   5.024   3.424   0.365 -1.7438  0.8108 -0.0840
14844TIP3    H265948   4.941   3.299   0.345 -0.8734 -0.0338  1.3732
14845TIP3   OH265949   4.411   0.803  15.285 -0.4274  0.1607  0.0421
14845TIP3    H165950   4.455   0.793  15.369 -0.5168  3.2045  0.5922
14845TIP3    H265951   4.412   0.716  15.246  0.7946 -1.0762  2.5971
14846TIP3   OH265952   0.835   4.946   0.653  0.2909 -0.0738  0.3382
14846TIP3    H165953   0.908   4.883   0.645  0.5560  0.1832  0.6758
14846TIP3    H265954   0.771   4.917   0.588  0.1036 -1.1115  0.9610
14847TIP3   OH265955   5.921   2.280   2.227 -0.1504 -0.9676 -0.0918
14847TIP3    H165956   5.950   2.347   2.289  0.2535 -0.7951 -0.4591
14847TIP3    H265957   5.976   2.294   2.150  0.2005 -1.9600 -0.0395
14848TIP3   OH265958   0.328   0.919  13.154  0.1702 -0.2284 -0.1424
14848TIP3    H165959   0.301   0.965  13.233 -2.5146 -0.5336 -0.8027
14848TIP3    H265960   0.299   0.974  13.082  2.1387 -0.1980 -0.9896
14849TIP3   OH265961   2.515   0.412  13.468 -0.2647  0.0039 -0.8169
14849TIP3    H165962   2.434   0.451  13.437 -0.6181  0.3219  0.4419
14849TIP3    H265963   2.549   0.363  13.393 -1.4293  0.1563 -1.4589
14850TIP3   OH265964   4.909   2.251  14.071 -0.3687  0.2821 -0.0029
14850TIP3    H165965   4.915   2.159  14.096 -1.5199  1.0062  3.3425
14850TIP3    H265966   4.815   2.270  14.070 -0.0952  1.9218  1.5471
14851TIP3   OH265967   3.052   1.036  11.978 -0.6244  0.0682  0.2722
14851TIP3    H165968   3.098   1.009  11.898  1.3568 -0.4957  1.5404
14851TIP3    H265969   2.989   1.102  11.948  0.1239 -0.0552 -1.7343
14852TIP3   OH265970   1.152   6.657   0.134  0.0154 -0.3621  0.1444
14852TIP3    H165971   1.132   6.711   0.058  1.1592 -1.2379 -0.8307
14852TIP3    H265972   1.072   6.607   0.149  0.3360 -1.5962 -1.7633
14853TIP3   OH265973   1.814   6.425  15.366  0.1731 -0.3157  0.1035
14853TIP3    H165974   1.757   6.405  15.292  1.0310  0.8917 -0.9281
14853TIP3    H265975   1.754   6.455  15.435 -0.5646 -0.6331 -0.3914
14854TIP3   OH265976   5.589   2.007  11.452 -0.2647  0.9203 -0.3733
14854TIP3    H165977   5.493   2.000  11.459 -0.2211  0.2089 -0.4195
14854TIP3    H265978   5.609   2.095  11.484 -0.8524  0.7378  0.5328
14855TIP3   OH265979   5.854   2.945  13.375 -0.0329 -0.0583  0.1205
14855TIP3    H165980   5.830   3.037  13.384  1.3736  0.2468  1.2018
14855TIP3    H265981   5.789   2.898  13.427  1.1693  0.6758  2.4538
14856TIP3   OH265982   1.176   1.268  14.988  0.0942 -0.4098  0.5794
14856TIP3    H165983   1.245   1.333  14.998 -0.5541  0.7078 -1.5931
14856TIP3    H265984   1.099   1.308  15.029  0.1382 -0.5996  0.8477
14857TIP3   OH265985   2.830   2.667   1.562 -0.1048  0.1122 -0.0413
14857TIP3    H165986   2.741   2.668   1.598 -0.3226 -1.6732 -0.4175
14857TIP3    H265987   2.829   2.734   1.494 -1.1143  0.2524  0.0902
14858TIP3   OH265988   2.033   2.501   1.448 -0.1325  0.2950 -0.7734
14858TIP3    H165989   1.991   2.426   1.490  2.0640 -1.2489 -1.1570
14858TIP3    H265990   1.961   2.550   1.407 -1.8550 -0.3899  1.2840
14859TIP3   OH265991   3.279   0.995   0.318  0.4334  0.3913 -0.1114
14859TIP3    H165992   3.346   0.928   0.303 -0.6792 -0.8898  0.4380
14859TIP3    H265993   3.244   1.013   0.231  1.1479  0.7046 -0.3389
14860TIP3   OH265994   0.151   6.303   1.027  0.0121  0.6427  0.1180
14860TIP3    H165995   0.126   6.227   0.973  0.0713  1.5359 -1.2026
14860TIP3    H265996   0.103   6.376   0.989 -0.7393  1.1540  1.9347
14861TIP3   OH265997   3.230   6.432   1.747  0.1282 -0.6859 -0.5291
14861TIP3    H165998   3.284   6.382   1.687  1.7173  0.1797  0.1270
14861TIP3    H265999   3.288   6.456   1.819 -0.3064  2.6154 -1.0784
14862TIP3   OH266000   2.094   2.614   5.392 -0.0172 -0.3215  0.2871
14862TIP3    H166001   2.030   2.631   5.323  0.3841  0.3990  0.0801
14862TIP3    H266002   2.107   2.519   5.390 -1.4536 -0.5557  0.6776
14863TIP3   OH266003   1.487   0.005  15.017 -0.3299 -0.2630  0.1001
14863TIP3    H166004   1.531  -0.006  15.101 -0.4420 -1.7369 -0.0040
14863TIP3    H266005   1.557  -0.005  14.952 -0.4562 -0.4883 -0.0046
14864TIP3   OH266006   0.569   0.398  13.475  0.5411 -0.2603 -0.3424
14864TIP3    H166007   0.551   0.465  13.541  0.4579 -0.3023 -0.3237
14864TIP3    H266008   0.630   0.338  13.518  1.0267  0.0848 -0.5307
14865TIP3   OH266009   1.364   1.588  14.229 -0.0718  0.1638 -0.2348
14865TIP3    H166010   1.436   1.622  14.283 -0.0200 -0.2765 -0.0170
14865TIP3    H266011   1.357   1.649  14.156  0.4868  0.2456 -0.2250
14866TIP3   OH266012   5.203   6.480  15.446  0.0952  0.1528  0.3059
14866TIP3    H166013   5.246   6.400  15.414  0.9060  0.0814  1.5214
14866TIP3    H266014   5.178   6.527  15.366  2.0953  0.0080 -0.4577
14867TIP3   OH266015   0.527   2.275   3.680  0.5286  0.5560 -0.2890
14867TIP3    H166016   0.497   2.186   3.661  0.6846  0.4212  0.0828
14867TIP3    H266017   0.478   2.331   3.620 -0.7028  0.3713  0.5089
14868TIP3   OH266018   0.394   3.605  16.193 -1.0858  0.2867 -0.1017
14868TIP3    H166019   0.377   3.528  16.247 -1.0042  0.0186 -0.4533
14868TIP3    H266020   0.416   3.570  16.107 -1.4181  0.7142 -0.3679
14869TIP3   OH266021   5.562   2.761  15.747  0.0768  0.8115 -0.2276
14869TIP3    H166022   5.600   2.823  15.810  2.0576 -0.1348 -0.4293
14869TIP3    H266023   5.510   2.816  15.688  0.6916  2.1092  0.3887
14870TIP3   OH266024   1.315   5.947   3.943  0.5845  0.8667 -0.1538
14870TIP3    H166025   1.392   5.946   3.887  0.2901  2.4210 -0.6534
14870TIP3    H266026   1.330   5.878   4.007  1.1165 -0.6963 -1.9041
14871TIP3   OH266027   6.761   5.923  16.816 -0.4580  0.6610 -0.0641
14871TIP3    H166028   6.822   5.992  16.843  1.2927 -1.2709  1.2022
14871TIP3    H266029   6.682   5.939  16.868  0.1003  1.4216  0.5690
14872TIP3   OH266030   0.895   1.461  12.914 -0.5436 -0.0436  0.6807
14872TIP3    H166031   0.867   1.500  12.831  0.8117  1.9183  1.0734
14872TIP3    H266032   0.814   1.431  12.955 -1.6300  1.8554  0.0573
14873TIP3   OH266033   5.709   1.783  16.999 -0.4636  0.0329 -1.0723
14873TIP3    H166034   5.751   1.772  16.914  0.5931  1.0463 -0.7167
14873TIP3    H266035   5.625   1.737  16.991  0.6247 -1.9411 -1.8649
14874TIP3   OH266036   4.554   5.344   3.393 -0.4954 -0.2422  0.6106
14874TIP3    H166037   4.488   5.399   3.350  0.4109 -0.0103 -0.5470
14874TIP3    H266038   4.628   5.403   3.408  0.6226 -1.1868 -0.9526
14875TIP3   OH266039   5.416   6.493  15.629 -0.3148 -0.1483  0.2825
14875TIP3    H166040   5.339   6.507  15.574  0.3514  0.6731 -0.4673
14875TIP3    H266041   5.456   6.579  15.637  0.4496 -0.5383  0.7922
14876TIP3   OH266042   1.035   5.843   6.075 -0.5418 -0.1465 -0.2053
14876TIP3    H166043   1.047   5.798   6.158  3.8678  2.5713  0.9763
14876TIP3    H266044   1.011   5.932   6.099 -1.0809  0.2245 -1.9842
14877TIP3   OH266045   0.793   6.337   5.505  0.8496  0.0124 -0.2534
14877TIP3    H166046   0.826   6.248   5.513  1.1560  0.0998 -0.5214
14877TIP3    H266047   0.834   6.384   5.578 -0.5416 -0.4192  0.8458
14878TIP3   OH266048   3.651   1.400   1.556 -0.8098  0.3764  0.1787
14878TIP3    H166049   3.742   1.375   1.572 -0.8236  1.7145  2.9061
14878TIP3    H266050   3.650   1.433   1.466  1.1800 -0.5140 -0.2100
14879TIP3   OH266051   1.832   5.364  15.050  0.0482 -0.4626 -0.2403
14879TIP3    H166052   1.837   5.292  15.112  0.2995 -0.4355 -0.2288
14879TIP3    H266053   1.921   5.400  15.047  0.4621 -1.5174 -1.8676
14880TIP3   OH266054   6.491   3.229  16.400 -0.1740  0.7730 -0.4554
14880TIP3    H166055   6.464   3.234  16.492 -0.6358  1.7719 -0.6328
14880TIP3    H266056   6.562   3.293  16.392  3.1753 -2.5068  0.2477
14881TIP3   OH266057   5.596   4.660  15.695  0.0250  0.2771  0.2692
14881TIP3    H166058   5.603   4.694  15.606 -1.3199  2.7339  1.0017
14881TIP3    H266059   5.573   4.737  15.748  1.7003 -0.9016  2.9071
14882TIP3   OH266060   6.659   0.107   6.113  0.1769  0.5672 -0.1244
14882TIP3    H166061   6.706   0.168   6.056 -0.4094  1.5451  0.4180
14882TIP3    H266062   6.683   0.021   6.080 -0.0579  1.1053 -1.7820
14883TIP3   OH266063   5.254   5.393  16.324 -0.0974  0.4118  0.1912
14883TIP3    H166064   5.332   5.343  16.302  0.0508  1.0945 -0.9319
14883TIP3    H266065   5.237   5.446  16.246 -0.7010  1.5247  1.0481
14884TIP3   OH266066   4.065   6.672   3.134  0.3755 -0.7482 -0.1586
14884TIP3    H166067   4.070   6.720   3.217  0.2297 -0.4156 -0.3390
14884TIP3    H266068   4.155   6.671   3.101  0.1535  0.7829 -0.9195
14885TIP3   OH266069   2.396   1.127  15.947 -0.1613  0.3238 -0.2114
14885TIP3    H166070   2.325   1.151  16.007 -0.8676 -0.2227 -0.7981
14885TIP3    H266071   2.387   1.032  15.936  0.4350  0.3037 -0.5831
14886TIP3   OH266072   2.196   5.656   0.180  0.4768  0.1372 -0.4007
14886TIP3    H166073   2.267   5.706   0.140  1.7022 -0.7874  0.5050
14886TIP3    H266074   2.183   5.697   0.266 -0.3043  0.4803 -0.6750
14887TIP3   OH266075   3.493   5.432   1.242  0.1598  0.0909 -0.0245
14887TIP3    H166076   3.474   5.370   1.172  0.4487  0.0602 -0.0786
14887TIP3    H266077   3.563   5.390   1.292 -1.1409 -0.6385  1.2600
14888TIP3   OH266078   5.961   5.469   5.239 -0.1893 -0.1943 -0.3724
14888TIP3    H166079   6.033   5.454   5.177  0.4379 -0.9949  0.5127
14888TIP3    H266080   5.883   5.437   5.194  0.1854 -0.3402 -0.9212
14889TIP3   OH266081   4.034   4.783   3.885  0.3055  0.0653 -0.4501
14889TIP3    H166082   3.982   4.849   3.930  0.4254  0.3316 -0.6964
14889TIP3    H266083   3.970   4.724   3.846  0.1458 -1.7040  2.1955
14890TIP3   OH266084   6.041   3.861   4.774  0.0228 -0.8933 -0.3875
14890TIP3    H166085   6.088   3.941   4.798 -0.5188 -0.2652 -1.3665
14890TIP3    H266086   6.020   3.819   4.857  1.9038 -0.9636  0.0989
14891TIP3   OH266087   5.473   4.625  13.209 -0.1682  0.0351  0.2636
14891TIP3    H166088   5.531   4.681  13.262 -1.1272  1.3804 -0.0431
14891TIP3    H266089   5.533   4.573  13.156  0.7852  0.0333  1.2931
14892TIP3   OH266090   3.097   2.404  16.033 -0.1686  0.0121 -0.2766
14892TIP3    H166091   3.032   2.451  16.085  0.0513  0.0760 -0.0586
14892TIP3    H266092   3.168   2.384  16.094 -0.2425 -0.5760 -0.3701
14893TIP3   OH266093   3.110   4.259   0.727 -0.4257 -0.2333  0.0535
14893TIP3    H166094   3.114   4.165   0.709 -1.6016 -0.1429 -0.8230
14893TIP3    H266095   3.089   4.266   0.820 -0.9488 -0.8589 -0.0135
14894TIP3   OH266096   0.854   3.513   5.684 -0.2574  0.0317  0.0230
14894TIP3    H166097   0.917   3.541   5.750 -1.2893  0.4270  0.8641
14894TIP3    H266098   0.769   3.523   5.726 -0.8552 -1.0964 -0.8713
14895TIP3   OH266099   5.856   3.311  15.125 -0.1927 -0.0921  0.4355
14895TIP3    H166100   5.793   3.297  15.196 -0.4978 -0.6220  0.0671
14895TIP3    H266101   5.860   3.227  15.079 -0.0375  0.2568 -0.2085
14896TIP3   OH266102   4.743   6.273   2.057 -0.3145 -0.4548 -0.3380
14896TIP3    H166103   4.811   6.279   1.990  0.0959  1.4257  0.1722
14896TIP3    H266104   4.662   6.258   2.009  0.3053 -1.6796 -1.0332
14897TIP3   OH266105   3.772   3.173   3.962 -0.3036 -0.8326  0.4387
14897TIP3    H166106   3.854   3.202   3.924 -0.6553  1.2745  1.1703
14897TIP3    H266107   3.723   3.135   3.889  0.3521  0.1168 -0.5170
14898TIP3   OH266108   5.699   1.195   2.015 -0.5883  0.5647 -0.4384
14898TIP3    H166109   5.725   1.214   1.924  0.3334  2.1357  0.1162
14898TIP3    H266110   5.698   1.280   2.058 -0.4571 -0.2130  1.1839
14899TIP3   OH266111   5.513   1.314   0.586  0.0624  0.3740 -0.3374
14899TIP3    H166112   5.559   1.272   0.514 -3.1715 -0.9242 -1.8835
14899TIP3    H266113   5.524   1.255   0.660  2.1362  0.9289 -0.1661
14900TIP3   OH266114   4.471   5.892   0.587  0.5950 -0.4108 -0.7142
14900TIP3    H166115   4.404   5.907   0.653  2.1441 -1.0577  1.0902
14900TIP3    H266116   4.426   5.906   0.504 -1.1993  1.2954  0.4681
14901TIP3   OH266117   5.470   5.135   3.020 -0.0442 -0.1744 -0.3865
14901TIP3    H166118   5.423   5.210   3.057  0.4465  0.1497 -0.4051
14901TIP3    H266119   5.402   5.076   2.989 -0.4507 -0.0948  0.3425
14902TIP3   OH266120   5.337   6.630  12.314 -0.3879 -0.3037 -0.0500
14902TIP3    H166121   5.301   6.590  12.234 -0.6735  0.1773 -0.1659
14902TIP3    H266122   5.261   6.669  12.357 -0.0687  0.3680 -0.0906
14903TIP3   OH266123   6.020   4.926  16.064  0.2944  0.0037 -0.1140
14903TIP3    H166124   6.043   4.920  16.157 -1.7178  2.2765  0.6552
14903TIP3    H266125   6.000   4.836  16.039 -1.1419 -0.4463  2.2853
14904TIP3   OH266126   2.441   1.897   4.709 -0.1964 -0.1727 -0.3499
14904TIP3    H166127   2.366   1.850   4.674 -2.2744  1.9007  1.0867
14904TIP3    H266128   2.473   1.841   4.780 -2.4697  0.3242  1.1770
14905TIP3   OH266129   4.751   5.658   1.807  0.0256 -0.2024 -0.0440
14905TIP3    H166130   4.790   5.714   1.740  0.3970  0.3132  0.5839
14905TIP3    H266131   4.755   5.711   1.887  0.3459 -1.1002  0.5534
14906TIP3   OH266132   1.335   0.734  17.174 -0.1337  0.4458  0.1163
14906TIP3    H166133   1.374   0.804  17.226  1.7154 -1.9114  2.1751
14906TIP3    H266134   1.395   0.660  17.184 -2.5498 -1.8396 -0.9059
14907TIP3   OH266135   0.983   0.270  14.606 -0.0263 -0.1396  0.6526
14907TIP3    H166136   0.937   0.187  14.618 -1.0052 -0.0788 -1.9497
14907TIP3    H266137   0.914   0.337  14.608  0.1547  0.1663 -1.0938
14908TIP3   OH266138   3.686   4.212   2.905 -0.3117  0.1913 -0.2260
14908TIP3    H166139   3.655   4.126   2.934 -0.9322  0.5296  0.1272
14908TIP3    H266140   3.633   4.275   2.954 -0.1481  0.7771 -0.7870
14909TIP3   OH266141   1.232   4.436   5.939  0.0214  0.4002 -0.0227
14909TIP3    H166142   1.281   4.489   6.002 -1.7097  1.0637  0.8640
14909TIP3    H266143   1.237   4.347   5.973  4.0659 -0.4201 -2.2283
14910TIP3   OH266144   2.253   6.374  13.356 -0.5381  0.2685  0.4021
14910TIP3    H166145   2.285   6.284  13.365 -1.8591 -0.1945  0.6173
14910TIP3    H266146   2.212   6.394  13.440  0.9377  1.5917  0.8619
14911TIP3   OH266147   1.032   4.994  16.698 -0.0466 -0.9489  0.5323
14911TIP3    H166148   1.011   4.961  16.610  0.4831 -1.3329  0.5405
14911TIP3    H266149   0.959   4.965  16.753 -1.1728  0.6337 -0.0638
14912TIP3   OH266150   2.613   6.254  10.930 -0.0024 -0.2009  0.7278
14912TIP3    H166151   2.655   6.287  10.850 -0.5159  0.4474  0.7146
14912TIP3    H266152   2.674   6.189  10.964  0.3905 -0.2260 -0.0006
14913TIP3   OH266153   6.603   4.287  13.222  0.3527 -0.2420  0.1135
14913TIP3    H166154   6.572   4.296  13.313  1.2345  1.6818  0.2778
14913TIP3    H266155   6.626   4.195  13.213  2.5279 -0.0491  2.6413
14914TIP3   OH266156   4.501   1.813  13.179  0.5902  0.4952 -0.2430
14914TIP3    H166157   4.459   1.804  13.094  1.1907  1.0004 -0.6032
14914TIP3    H266158   4.595   1.806  13.160  0.6996 -0.1781  0.4809
14915TIP3   OH266159   2.838   1.451   3.420 -0.0779 -0.1058 -0.2432
14915TIP3    H166160   2.915   1.413   3.464 -0.3239  2.4228  2.7148
14915TIP3    H266161   2.811   1.522   3.478 -0.9303  3.1689 -4.2655
14916TIP3   OH266162   0.858   5.706  12.080 -0.3556  0.0871  0.4583
14916TIP3    H166163   0.893   5.787  12.042  1.0065 -1.2517 -1.3611
14916TIP3    H266164   0.936   5.655  12.101 -1.1709 -1.5189 -0.2576
14917TIP3   OH266165   0.240   1.918   5.499 -0.0932  0.0139 -0.4417
14917TIP3    H166166   0.277   1.851   5.556  0.9253  1.0664  0.1770
14917TIP3    H266167   0.165   1.952   5.546 -0.9925 -1.0786 -1.0289
14918TIP3   OH266168   6.599   5.654   2.505  0.0449  0.5049  0.2327
14918TIP3    H166169   6.637   5.651   2.417 -1.8239  0.8069 -0.6363
14918TIP3    H266170   6.631   5.736   2.542  2.4998 -0.5640  0.6838
14919TIP3   OH266171   0.672   0.579  17.224  0.0661 -0.0211 -0.5786
14919TIP3    H166172   0.684   0.540  17.137 -1.6949 -0.2863 -0.7394
14919TIP3    H266173   0.703   0.669  17.215  1.7527 -0.5969 -0.9135
14920TIP3   OH266174   6.614   4.216  14.536 -0.7275  0.1887  0.1486
14920TIP3    H166175   6.608   4.122  14.553  2.0299  0.1138  1.2861
14920TIP3    H266176   6.554   4.255  14.600 -0.7700 -0.7420  0.7075
14921TIP3   OH266177   6.181   1.023   2.176 -0.3891 -0.4012 -0.4239
14921TIP3    H166178   6.257   1.061   2.221 -0.5927  0.7964 -1.0654
14921TIP3    H266179   6.108   1.079   2.200 -1.4883 -2.5024  1.5569
14922TIP3   OH266180   3.712   4.104   6.207  0.4857  0.0063 -0.6115
14922TIP3    H166181   3.765   4.169   6.254 -0.3560  0.9551 -0.9440
14922TIP3    H266182   3.712   4.134   6.117  0.4079 -0.6946 -0.8520
14923TIP3   OH266183   2.915   3.556  15.169  0.3916  0.7247 -0.1345
14923TIP3    H166184   2.959   3.622  15.223 -0.8435  0.9918  0.6027
14923TIP3    H266185   2.831   3.542  15.213  1.1842 -2.4758  0.5739
14924TIP3   OH266186   5.663   0.279   4.768 -0.3979 -0.3161 -0.0665
14924TIP3    H166187   5.665   0.212   4.700  1.3586 -0.5827  0.2147
14924TIP3    H266188   5.691   0.359   4.723  1.5856 -0.6649  0.4887
14925TIP3   OH266189   5.493   6.742   6.113 -0.1270  0.1130 -0.3200
14925TIP3    H166190   5.466   6.787   6.192  0.8163  0.6655 -0.2958
14925TIP3    H266191   5.499   6.811   6.047  3.5384  0.5670  0.2431
14926TIP3   OH266192   3.438   4.433   3.995 -0.2430 -0.2741  0.4136
14926TIP3    H166193   3.380   4.449   3.921  0.3035  0.1697  0.0766
14926TIP3    H266194   3.394   4.474   4.070 -1.3712 -1.7408  0.5866
14927TIP3   OH266195   4.607   4.514   2.317  0.3871 -0.2137 -0.2221
14927TIP3    H166196   4.633   4.434   2.271 -1.9232 -0.7426 -0.6937
14927TIP3    H266197   4.657   4.583   2.274  1.7960 -1.2706 -0.3680
14928TIP3   OH266198   5.925   1.336  16.816  0.6694 -0.2729 -0.4414
14928TIP3    H166199   5.916   1.306  16.907 -0.8045  2.6270  0.5084
14928TIP3    H266200   6.019   1.331  16.799  1.0976 -0.1366  1.5599
14929TIP3   OH266201   4.040   5.368   1.710  0.2324  0.0476 -0.1191
14929TIP3    H166202   4.065   5.457   1.686  0.7794 -0.2688 -0.7859
14929TIP3    H266203   4.037   5.321   1.626  1.6912 -0.9810  0.3507
14930TIP3   OH266204   2.384   6.516  16.466  0.5527  0.5097  0.0648
14930TIP3    H166205   2.307   6.544  16.416  0.9863  0.7873 -0.4634
14930TIP3    H266206   2.409   6.593  16.517 -0.6924 -0.1616  1.7959
14931TIP3   OH266207   2.198   0.840   2.800  0.3666 -0.4831 -0.3068
14931TIP3    H166208   2.234   0.928   2.796  0.9843 -0.7034  0.3066
14931TIP3    H266209   2.107   0.851   2.771  0.9386  0.0378 -2.0553
14932TIP3   OH266210   6.364   2.587  12.846 -0.0562 -0.5268 -0.1478
14932TIP3    H166211   6.340   2.513  12.902 -0.0352 -0.8189 -0.5207
14932TIP3    H266212   6.281   2.634  12.833 -0.5617 -1.7343 -1.7261
14933TIP3   OH266213   2.185   4.634   2.017  0.5881  0.0452 -0.5672
14933TIP3    H166214   2.167   4.541   2.031  2.4383 -0.3481 -0.6416
14933TIP3    H266215   2.163   4.649   1.925  1.4923 -0.6277 -0.8964
14934TIP3   OH266216   0.518   1.476  14.685  0.2187 -0.5145  0.1061
14934TIP3    H166217   0.526   1.529  14.765 -0.1787 -0.8474  0.3717
14934TIP3    H266218   0.544   1.535  14.615 -0.0183 -0.0232  0.4198
14935TIP3   OH266219   4.559   5.780  15.612  0.7086 -0.2527 -0.5801
14935TIP3    H166220   4.598   5.816  15.533 -0.0620  1.2159 -0.3226
14935TIP3    H266221   4.605   5.697  15.626  3.4135  1.1798 -0.5142
14936TIP3   OH266222   6.688   4.761  16.704 -0.0557 -0.4535  0.2329
14936TIP3    H166223   6.611   4.765  16.761  0.8178 -0.0417  1.3873
14936TIP3    H266224   6.659   4.803  16.623 -0.6615  0.8670  1.1033
14937TIP3   OH266225   2.251   5.512   5.062 -0.3823 -0.5205  0.0878
14937TIP3    H166226   2.231   5.572   5.134 -0.9101  1.6617 -1.7780
14937TIP3    H266227   2.169   5.465   5.047 -0.7639  0.2075 -0.1458
14938TIP3   OH266228   1.097   6.076   0.377  0.2597  0.2110  0.1003
14938TIP3    H166229   1.118   6.170   0.371 -1.4239  0.5924 -0.6088
14938TIP3    H266230   1.175   6.032   0.345  1.3019  1.3364  0.9642
14939TIP3   OH266231   1.548   0.287   6.450 -0.5843 -0.2956  0.2807
14939TIP3    H166232   1.513   0.271   6.538 -0.5258 -0.9040  0.1990
14939TIP3    H266233   1.523   0.209   6.400  0.2606 -0.4103  0.0255
14940TIP3   OH266234   2.030   5.265  13.617  0.5299  0.1633  0.8073
14940TIP3    H166235   1.997   5.253  13.528  0.5949  2.4556  0.4180
14940TIP3    H266236   1.996   5.189  13.666 -2.3108  0.5571 -0.4023
14941TIP3   OH266237   3.698   2.255   1.291 -0.0801 -0.2700 -0.2243
14941TIP3    H166238   3.683   2.234   1.198  2.8708 -0.3211 -0.7849
14941TIP3    H266239   3.786   2.223   1.309  0.5220  2.1966  1.8355
14942TIP3   OH266240   4.528   5.215   5.975  0.0830 -0.1659 -0.4799
14942TIP3    H166241   4.550   5.199   6.067  0.4870  0.4274 -0.4694
14942TIP3    H266242   4.480   5.298   5.976 -1.6636 -1.1365 -0.5735
14943TIP3   OH266243   6.654   0.468   0.042  0.4258 -0.2429 -0.0420
14943TIP3    H166244   6.739   0.504   0.014  0.0866  0.2599 -0.4305
14943TIP3    H266245   6.650   0.486   0.136 -0.1786  1.6563 -0.3986
14944TIP3   OH266246   4.851   2.145   1.995 -0.3014  0.0601  0.0259
14944TIP3    H166247   4.787   2.216   1.986 -0.5564 -0.3863 -2.4319
14944TIP3    H266248   4.802   2.073   2.035 -1.2333 -0.1095 -1.3807
14945TIP3   OH266249   3.012   0.296   1.406 -0.0009  0.3041 -0.6836
14945TIP3    H166250   3.103   0.301   1.376  0.7893 -0.6593  1.4069
14945TIP3    H266251   2.974   0.224   1.355  1.5477 -1.8677  1.0194
14946TIP3   OH266252   1.001   1.479   4.132 -0.0198  0.0859 -0.0919
14946TIP3    H166253   1.023   1.513   4.045  1.1579 -0.2857  0.0379
14946TIP3    H266254   1.084   1.479   4.179 -0.0857 -2.2557  0.1432
14947TIP3   OH266255   3.142   1.041   5.340 -0.1472  0.1660 -0.0435
14947TIP3    H166256   3.115   1.080   5.257 -0.5536  0.5995  0.2892
14947TIP3    H266257   3.068   1.055   5.398  0.4742  0.6410  0.6445
14948TIP3   OH266258   3.375   1.174  14.237  0.1729  0.1459  0.2433
14948TIP3    H166259   3.395   1.264  14.213  0.3834  0.4657  1.5165
14948TIP3    H266260   3.398   1.168  14.330  0.9275 -1.4417 -0.0022
14949TIP3   OH266261   1.400   6.533  12.615  0.0856  0.3652  0.1964
14949TIP3    H166262   1.379   6.612  12.664 -1.1195 -0.4634  1.0483
14949TIP3    H266263   1.347   6.539  12.536  1.6402  1.4429 -0.8402
14950TIP3   OH266264   2.545   0.212   1.067 -0.0760 -0.1612  0.1194
14950TIP3    H166265   2.467   0.252   1.106 -1.1867 -1.1617 -1.0056
14950TIP3    H266266   2.576   0.151   1.134 -0.7715 -0.3999  0.2254
14951TIP3   OH266267   1.515   3.881   1.316 -0.0584  0.1770  0.2835
14951TIP3    H166268   1.553   3.895   1.403  2.3563  0.8508 -0.8072
14951TIP3    H266269   1.531   3.788   1.297 -0.5224  0.0468  0.5143
14952TIP3   OH266270   3.762   0.949   2.155  0.0143  0.7022 -0.2160
14952TIP3    H166271   3.727   0.899   2.082  1.6391  0.3095 -0.7693
14952TIP3    H266272   3.756   1.040   2.126  2.3207  0.4639 -1.6882
14953TIP3   OH266273   6.600   2.304   2.355 -0.1239  0.6973  0.0380
14953TIP3    H166274   6.544   2.339   2.424  0.0909  0.2487  0.4462
14953TIP3    H266275   6.614   2.212   2.380 -1.2660  0.1082 -1.3868
14954TIP3   OH266276   1.944   0.725  14.844 -0.3165  0.0209  0.1662
14954TIP3    H166277   2.028   0.700  14.804  0.5280  0.3138  1.6629
14954TIP3    H266278   1.884   0.734  14.770  0.3827 -2.3166 -0.7890
14955TIP3   OH266279   6.572   6.091  12.976 -0.1017 -0.5100 -0.1162
14955TIP3    H166280   6.514   6.033  12.926  0.4067 -3.0605  2.0339
14955TIP3    H266281   6.531   6.099  13.061  1.3745 -0.1972  0.5952
14956TIP3   OH266282   0.073   4.475   3.832  0.3437  0.4956  0.2084
14956TIP3    H166283   0.016   4.551   3.848 -0.0875 -0.0980  1.6594
14956TIP3    H266284   0.070   4.425   3.913  0.5823 -1.1204 -0.7301
14957TIP3   OH266285   4.978   6.533  11.677  0.5414  0.1523 -0.4718
14957TIP3    H166286   4.921   6.577  11.614  1.3042 -0.1759 -1.4163
14957TIP3    H266287   5.049   6.495  11.624  1.5991  0.4772  0.6526
14958TIP3   OH266288   3.956   0.355   3.458 -0.7066 -0.1622  0.8716
14958TIP3    H166289   3.888   0.421   3.446  0.3996  1.1021  1.3967
14958TIP3    H266290   3.958   0.339   3.552 -2.0011 -2.1326  0.6424
14959TIP3   OH266291   3.036   6.563  12.921 -0.1773  0.4856 -0.0637
14959TIP3    H166292   3.009   6.626  12.988  0.9032  1.5838 -0.6403
14959TIP3    H266293   3.132   6.566  12.922 -0.1177 -0.6138 -0.6273
14960TIP3   OH266294   1.258   2.192  12.712  0.2955  0.1147 -0.5292
14960TIP3    H166295   1.270   2.164  12.621 -1.3065  1.8253 -1.3382
14960TIP3    H266296   1.172   2.158  12.737 -0.2066  1.4041 -0.4142
14961TIP3   OH266297   4.794   3.474  15.200  0.2571  0.0178 -0.0192
14961TIP3    H166298   4.720   3.417  15.179 -1.2578  2.5471 -2.2193
14961TIP3    H266299   4.867   3.414  15.211 -1.6301 -2.4706  0.0100
14962TIP3   OH266300   0.618   5.655   5.301  0.0171  0.0751  0.1282
14962TIP3    H166301   0.562   5.584   5.334  1.8441 -1.4042  0.2401
14962TIP3    H266302   0.690   5.660   5.364  0.5166  1.2631 -0.5068
14963TIP3   OH266303   5.960   5.903   0.403  0.1907 -0.0568  0.1780
14963TIP3    H166304   5.997   5.838   0.343 -0.1092 -0.1465  0.0902
14963TIP3    H266305   5.903   5.852   0.460 -1.1666  0.3287 -0.7879
14964TIP3   OH266306   1.079   1.016   0.442  0.0041 -0.1910  0.6711
14964TIP3    H166307   1.109   1.059   0.362  0.6307 -0.3815  0.8010
14964TIP3    H266308   1.120   0.930   0.440  2.0474  0.6398  2.3715
14965TIP3   OH266309   5.976   6.042   2.347 -0.8241  0.0743 -0.5363
14965TIP3    H166310   6.000   6.131   2.321  2.1009 -0.9083 -1.5351
14965TIP3    H266311   5.997   5.988   2.271 -1.0277 -1.6804  0.6000
14966TIP3   OH266312   3.419   4.173  14.600 -0.2645 -0.3636  0.6456
14966TIP3    H166313   3.403   4.264  14.624  1.2608 -0.1562  1.0033
14966TIP3    H266314   3.403   4.124  14.680  2.6575  0.0757  1.6109
14967TIP3   OH266315   5.165   5.069  13.626 -0.2799  0.8853  0.2726
14967TIP3    H166316   5.098   5.082  13.559 -3.0528 -0.9575  2.4484
14967TIP3    H266317   5.150   4.980  13.657  2.2681  0.9384  1.9246
14968TIP3   OH266318   1.162   0.300  17.151 -0.0942 -0.0372 -0.4368
14968TIP3    H166319   1.105   0.377  17.142  0.4639  0.3082 -1.1149
14968TIP3    H266320   1.160   0.259  17.065 -1.1997 -1.3792  0.2015
14969TIP3   OH266321   1.168   2.749   4.907 -0.9188  0.3765  0.5828
14969TIP3    H166322   1.142   2.736   4.816 -0.3518 -0.3904  0.5228
14969TIP3    H266323   1.247   2.803   4.902 -0.8263  0.2455  0.6098
14970TIP3   OH266324   3.857   6.117   3.370 -0.1419  0.1094 -0.0320
14970TIP3    H166325   3.869   6.129   3.276  0.8090 -0.1942  0.0441
14970TIP3    H266326   3.775   6.068   3.377 -0.0983 -0.0781 -0.7117
14971TIP3   OH266327   3.249   1.019  15.216  0.6310 -0.0131  0.6417
14971TIP3    H166328   3.204   0.937  15.197 -0.1829  0.3543  0.9096
14971TIP3    H266329   3.307   1.032  15.141 -0.0725 -0.2641  0.0291
14972TIP3   OH266330   5.347   4.899  14.812 -0.1141 -0.1628  0.2047
14972TIP3    H166331   5.334   4.927  14.902 -0.1015  0.4723  0.0134
14972TIP3    H266332   5.259   4.888  14.777 -0.1280 -1.2523  0.5403
14973TIP3   OH266333   0.543   2.520   2.280 -0.3283 -0.2602  0.1653
14973TIP3    H166334   0.484   2.473   2.222  0.6553 -2.1219  0.5943
14973TIP3    H266335   0.629   2.516   2.237  0.0165  0.0518  0.8013
14974TIP3   OH266336   4.452   6.099  10.811 -0.1381 -0.1015 -0.8043
14974TIP3    H166337   4.492   6.166  10.866  2.2989 -2.2450  0.2790
14974TIP3    H266338   4.480   6.122  10.722 -0.7866  1.2242 -0.6879
14975TIP3   OH266339   4.719   3.903  16.280 -0.1448 -0.2996 -0.8493
14975TIP3    H166340   4.807   3.932  16.257  0.3890 -1.1989  0.0036
14975TIP3    H266341   4.673   3.897  16.196  0.6356  0.0621 -1.3115
14976TIP3   OH266342   6.395   3.582   1.593 -0.2570 -0.2946  0.0471
14976TIP3    H166343   6.487   3.578   1.568  0.1343  2.4641  0.7640
14976TIP3    H266344   6.382   3.506   1.649  2.0284  0.1126  1.2471
14977TIP3   OH266345   1.212   5.518   3.386 -0.7021 -0.0594  0.0678
14977TIP3    H166346   1.293   5.568   3.377 -0.0914 -0.8879  0.7907
14977TIP3    H266347   1.145   5.584   3.402  0.0474  0.5506  0.7987
14978TIP3   OH266348   0.916   1.729   6.583 -0.0361  0.1266  0.2488
14978TIP3    H166349   0.856   1.754   6.514  1.5265  0.3843 -1.0755
14978TIP3    H266350   0.877   1.651   6.622 -0.3596 -0.7493 -1.7268
14979TIP3   OH266351   4.968   2.034  15.720  0.1795 -0.2899 -0.1167
14979TIP3    H166352   5.017   2.095  15.664 -2.0993  1.1572 -0.7040
14979TIP3    H266353   5.026   1.958  15.730  2.7595  1.5368 -0.1662
14980TIP3   OH266354   5.445   4.178  15.543 -0.5510 -0.0744 -0.0623
14980TIP3    H166355   5.420   4.218  15.460  0.6998  1.0734  0.0894
14980TIP3    H266356   5.372   4.197  15.602 -0.5441  0.8866 -0.3490
14981TIP3   OH266357   4.593   1.362   0.453 -0.4229 -0.1426  0.3251
14981TIP3    H166358   4.537   1.291   0.484 -0.5322 -0.5099 -0.6693
14981TIP3    H266359   4.532   1.429   0.423 -0.3428 -0.3095 -0.2345
14982TIP3   OH266360   1.737   5.853  16.532 -0.3342 -0.2444 -0.4990
14982TIP3    H166361   1.693   5.793  16.592  0.3495 -1.3334 -1.0452
14982TIP3    H266362   1.752   5.932  16.583  0.6769 -1.3218  0.9575
14983TIP3   OH266363   0.784   3.623   1.855 -0.0111  0.1077  0.1340
14983TIP3    H166364   0.823   3.570   1.925 -0.3080  1.6086  1.4848
14983TIP3    H266365   0.744   3.697   1.900  0.0290  1.2847 -1.6724
14984TIP3   OH266366   1.882   3.310   4.441  0.2793 -0.3210  0.3104
14984TIP3    H166367   1.959   3.313   4.384  0.6867  3.1147  0.8288
14984TIP3    H266368   1.855   3.402   4.450 -1.8819 -1.0699  2.8555
14985TIP3   OH266369   5.723   3.193   4.082  0.2278  0.0451 -0.4112
14985TIP3    H166370   5.716   3.131   4.155  0.9954 -1.1221 -1.2957
14985TIP3    H266371   5.733   3.278   4.124  0.7738 -0.6190  0.8573
14986TIP3   OH266372   6.666   3.012   2.889  0.0687  0.2444 -0.1457
14986TIP3    H166373   6.668   3.033   2.983  0.3870  1.4707 -0.4110
14986TIP3    H266374   6.758   3.021   2.861  0.0386 -0.4772 -0.5115
14987TIP3   OH266375   5.878   0.330   0.726  0.8911 -0.0580 -0.3466
14987TIP3    H166376   5.900   0.241   0.752  0.6310  0.4655  1.8811
14987TIP3    H266377   5.800   0.351   0.778 -0.3007  0.7693 -2.3645
14988TIP3   OH266378   0.625   3.168   4.002 -0.2752 -0.4406  0.5090
14988TIP3    H166379   0.666   3.222   4.069  1.7440 -1.6656  0.3361
14988TIP3    H266380   0.655   3.079   4.021  0.8741 -0.7554 -2.3414
14989TIP3   OH266381   2.722   2.020  11.169  0.1367 -0.0426 -0.6252
14989TIP3    H166382   2.709   2.027  11.074 -0.4769 -0.2174 -0.5564
14989TIP3    H266383   2.767   1.937  11.181 -0.6214 -0.4703 -0.6901
14990TIP3   OH266384   6.476   0.960  11.982  0.2936  0.1249 -0.0175
14990TIP3    H166385   6.428   0.936  12.060  1.3289 -0.8285  0.3571
14990TIP3    H266386   6.410   0.964  11.912 -0.1779 -2.3382  0.2140
14991TIP3   OH266387   1.612   2.329  13.842  0.0212 -0.1383  0.3336
14991TIP3    H166388   1.563   2.285  13.773  0.1843  0.0175  0.1129
14991TIP3    H266389   1.619   2.420  13.812  2.4615 -0.6034 -0.8276
14992TIP3   OH266390   2.356   5.600  17.189 -0.4888  0.3829  0.1403
14992TIP3    H166391   2.384   5.515  17.223 -2.1830  0.2701  1.3737
14992TIP3    H266392   2.333   5.583  17.098  1.1562  0.0107 -0.2445
14993TIP3   OH266393   0.019   5.633  15.746  0.3759 -0.4064  0.1497
14993TIP3    H166394  -0.024   5.578  15.680  0.4615 -0.4535  0.1333
14993TIP3    H266395   0.074   5.573  15.796  0.6737 -0.2947 -0.0383
14994TIP3   OH266396   4.790   6.003   3.325  0.1111  0.5793  0.3560
14994TIP3    H166397   4.834   6.085   3.346  3.1222 -0.5946 -0.7605
14994TIP3    H266398   4.849   5.935   3.358 -1.0183 -1.1364 -0.9710
14995TIP3   OH266399   0.203   3.961   5.666  0.0085  0.2419  0.0267
14995TIP3    H166400   0.154   4.028   5.712  1.1944  0.7462  0.5966
14995TIP3    H266401   0.136   3.904   5.628 -1.0029  1.0524  0.5452
14996TIP3   OH266402   6.093   6.488   0.712 -0.4486 -0.5589  0.6547
14996TIP3    H166403   6.139   6.435   0.778 -0.8688 -0.0340  1.3879
14996TIP3    H266404   6.163   6.520   0.654  0.1917  0.5123  1.9452
14997TIP3   OH266405   0.038   3.807   3.677 -0.2772 -1.1064  0.2749
14997TIP3    H166406   0.021   3.870   3.748 -0.0155 -1.3152  0.5253
14997TIP3    H266407  -0.015   3.839   3.604 -0.8577 -1.1091  0.6864
14998TIP3   OH266408   1.496   4.158   1.068  0.6471  0.2166 -0.0262
14998TIP3    H166409   1.440   4.096   1.115  1.2005  0.2485  0.7086
14998TIP3    H266410   1.544   4.203   1.138  0.9564  0.7862 -0.6009
14999TIP3   OH266411   3.571   0.774   6.545  0.1382 -0.1632 -0.0102
14999TIP3    H166412   3.480   0.800   6.531 -0.3468 -1.7037  0.0982
14999TIP3    H266413   3.586   0.791   6.639 -0.3790 -0.9006  0.2091
15000TIP3   OH266414   6.122   2.445   0.290 -0.1083 -0.2439  0.1306
15000TIP3    H166415   6.100   2.383   0.221  3.4432 -0.8117 -0.6768
15000TIP3    H266416   6.199   2.408   0.333  0.4343  2.2315  1.5138
15001TIP3   OH266417   1.957   2.058  12.725 -0.1847  0.2373  0.3722
15001TIP3    H166418   1.926   1.968  12.722 -1.7419  0.7700 -0.8288
15001TIP3    H266419   2.048   2.051  12.756 -0.1061 -1.7629 -0.1791
15002TIP3   OH266420   1.196   2.351   4.150  0.2055 -0.0544 -0.5348
15002TIP3    H166421   1.186   2.386   4.239 -1.2110  0.9472 -1.0563
15002TIP3    H266422   1.215   2.428   4.096 -0.9026 -0.3542 -1.3868
15003TIP3   OH266423   6.593   0.886   0.139 -0.0043  0.2140  0.3902
15003TIP3    H166424   6.682   0.906   0.109  0.1972  0.3112  1.0244
15003TIP3    H266425   6.558   0.971   0.167  0.6908 -0.1814  2.6816
15004TIP3   OH266426   6.384   3.055   4.274 -0.2070  0.0995  0.3421
15004TIP3    H166427   6.457   2.993   4.281  0.5550  0.8927 -0.2019
15004TIP3    H266428   6.426   3.137   4.246 -1.2342  0.7522  0.6707
15005TIP3   OH266429   0.019   2.548  14.946  0.4701 -0.4634  0.0283
15005TIP3    H166430   0.115   2.549  14.939  0.5328 -0.6101  0.7575
15005TIP3    H266431   0.001   2.600  15.025 -0.1839  1.4867 -1.3215
15006TIP3   OH266432   5.855   3.093   1.267 -0.9795 -0.0376 -0.0121
15006TIP3    H166433   5.845   2.999   1.256  2.2730 -0.3697 -1.4398
15006TIP3    H266434   5.871   3.105   1.360 -1.0674 -0.9649  0.1310
15007TIP3   OH266435   6.021   3.216  11.017 -0.3820  0.1776  0.3136
15007TIP3    H166436   6.011   3.311  11.009  0.1749  0.1738 -0.5614
15007TIP3    H266437   5.933   3.184  11.034 -0.7368  0.7580 -0.3813
15008TIP3   OH266438   4.779   3.891   3.977  0.4060  0.1671  0.3222
15008TIP3    H166439   4.710   3.849   4.029 -1.3309 -0.0674 -1.9588
15008TIP3    H266440   4.825   3.818   3.936  0.5883  0.3660  0.1712
15009TIP3   OH266441   5.979   1.301  10.824  0.1119 -0.1870 -0.4480
15009TIP3    H166442   6.053   1.241  10.837 -0.5578 -0.8455  0.4925
15009TIP3    H266443   5.991   1.335  10.736  1.4294 -0.4368 -0.3850
15010TIP3   OH266444   2.100   0.791  14.550 -0.4808 -0.6577  0.2150
15010TIP3    H166445   2.042   0.766  14.477 -0.4852  0.1518 -0.0712
15010TIP3    H266446   2.178   0.738  14.537 -0.2137 -0.0537 -0.7743
15011TIP3   OH266447   3.818   5.799   5.444 -0.0109 -0.3393 -0.2029
15011TIP3    H166448   3.881   5.859   5.485  0.2213 -1.0796  0.5526
15011TIP3    H266449   3.771   5.853   5.381  1.9168  0.0742 -1.3744
15012TIP3   OH266450   3.547   4.441   4.576 -0.0383  0.0043  0.2064
15012TIP3    H166451   3.624   4.474   4.622  1.3511 -3.6189  0.8289
15012TIP3    H266452   3.474   4.456   4.636  0.6347  0.9290  0.8232
15013TIP3   OH266453   3.912   3.396   0.088 -0.7513 -0.2005 -0.2302
15013TIP3    H166454   3.837   3.451   0.067  0.0278  1.8006  1.8068
15013TIP3    H266455   3.953   3.376   0.004 -1.7322  1.3688 -1.1155
15014TIP3   OH266456   0.161   4.103   3.859  0.5852  0.1551  0.7556
15014TIP3    H166457   0.107   4.109   3.938  0.5422  0.7733  0.6865
15014TIP3    H266458   0.221   4.030   3.876 -0.1527 -0.4241  0.9054
15015TIP3   OH266459   4.724   5.898   1.392  0.0647  0.1057 -0.5775
15015TIP3    H166460   4.672   5.896   1.472  0.8734  0.5942 -0.0288
15015TIP3    H266461   4.724   5.990   1.366  1.3208  0.2465 -0.1199
15016TIP3   OH266462   6.299   5.378   2.165  0.5850  0.3846 -0.3279
15016TIP3    H166463   6.386   5.388   2.128  1.6533 -0.1223  1.8407
15016TIP3    H266464   6.267   5.295   2.131  2.3899 -1.1006  1.3453
15017TIP3   OH266465   2.346   5.189  12.644  0.0141  0.2277 -0.1735
15017TIP3    H166466   2.312   5.118  12.698  1.5980  0.6853  1.5609
15017TIP3    H266467   2.440   5.172  12.640  0.0460  0.6399 -2.2311
15018TIP3   OH266468   3.356   1.639  16.814 -0.1774  0.1010 -0.1562
15018TIP3    H166469   3.271   1.600  16.793 -0.8397  1.2268  0.3014
15018TIP3    H266470   3.352   1.655  16.908  1.9355 -2.9890  0.5888
15019TIP3   OH266471   0.378   2.552  15.776  0.1819  0.0804  0.1317
15019TIP3    H166472   0.294   2.508  15.784  1.4531 -2.1529  3.4859
15019TIP3    H266473   0.368   2.635  15.822 -0.1419 -0.2651  0.6851
15020TIP3   OH266474   4.978   6.356   5.349 -0.7663  0.1709 -0.3473
15020TIP3    H166475   4.922   6.429   5.324  1.1583  1.9813  0.3121
15020TIP3    H266476   5.057   6.397   5.385  0.4385 -2.2421  0.0111
15021TIP3   OH266477   1.379   5.032   3.966  0.0774 -0.5686  0.0633
15021TIP3    H166478   1.342   5.024   3.878  0.3497 -0.3190 -0.0748
15021TIP3    H266479   1.352   5.119   3.996 -1.4692 -1.2971  0.9092
15022TIP3   OH266480   3.086   3.921  17.258 -0.0451  0.0963 -1.3342
15022TIP3    H166481   3.141   3.912  17.180  0.4329  1.5287 -1.1900
15022TIP3    H266482   2.997   3.928  17.223  0.0547 -0.3031 -1.6837
15023TIP3   OH266483   1.284   2.702  12.941  0.1106 -0.5325  0.4476
15023TIP3    H166484   1.261   2.617  12.904 -0.2346 -0.7399  1.1218
15023TIP3    H266485   1.200   2.745  12.955  0.2219 -0.5689  1.2391
15024TIP3   OH266486   5.341   1.172  16.122 -0.8021  0.2741  0.0150
15024TIP3    H166487   5.345   1.084  16.085  0.5585  0.2914  0.0659
15024TIP3    H266488   5.290   1.161  16.202  1.0288 -0.9318  1.1190
15025TIP3   OH266489   5.879   4.006  17.005 -0.0619 -0.1889 -0.4614
15025TIP3    H166490   5.818   4.009  16.930 -1.5308 -1.1494  0.6453
15025TIP3    H266491   5.865   3.920  17.043  0.0192  0.5958  1.4266
15026TIP3   OH266492   4.296   3.056  16.710  0.0889  0.6214  0.2501
15026TIP3    H166493   4.275   3.103  16.790 -0.7038  0.6820  0.0228
15026TIP3    H266494   4.292   2.963  16.735 -0.9957  0.6150  0.1055
15027TIP3   OH266495   1.620   2.610   3.470 -0.2326  0.1418  0.5020
15027TIP3    H166496   1.579   2.597   3.556 -0.3298 -0.9998  0.2884
15027TIP3    H266497   1.670   2.691   3.480  0.4721 -0.4285  1.9101
15028TIP3   OH266498   1.184   2.866  11.189  0.0289  0.2321 -0.1690
15028TIP3    H166499   1.088   2.869  11.182  0.1316  1.5145 -1.3547
15028TIP3    H266500   1.210   2.796  11.129 -0.1270  0.3290 -0.3521
15029TIP3   OH266501   6.054   2.791  15.304  0.4642 -0.0221  0.3866
15029TIP3    H166502   6.057   2.802  15.399  0.6992  0.3931  0.3344
15029TIP3    H266503   6.028   2.876  15.271 -0.1901 -0.3262  0.1058
15030TIP3   OH266504   3.956   2.874  11.903  0.2568 -0.4638 -0.2629
15030TIP3    H166505   3.903   2.895  11.827 -2.0114 -0.9800  1.0923
15030TIP3    H266506   3.918   2.794  11.938  2.4603 -1.3307  0.3562
15031TIP3   OH266507   1.336   6.071  16.628 -0.2335  0.2686 -0.0085
15031TIP3    H166508   1.269   6.123  16.584 -1.2865 -0.1588  1.0499
15031TIP3    H266509   1.411   6.130  16.638 -0.4737  0.7751 -1.1213
15032TIP3   OH266510   2.378   1.374  15.586 -0.7947 -0.7747  0.2467
15032TIP3    H166511   2.337   1.307  15.531 -2.4574  0.1888  0.2452
15032TIP3    H266512   2.437   1.325  15.643 -1.0966 -2.1098 -0.5343
15033TIP3   OH266513   6.355   0.608   1.599 -0.3535 -0.0022  0.1147
15033TIP3    H166514   6.351   0.539   1.533  3.4373  0.6046 -0.9815
15033TIP3    H266515   6.404   0.570   1.671  1.3400  1.2611 -0.2910
15034TIP3   OH266516   5.424   3.742   3.839  0.2218 -0.2889  0.1494
15034TIP3    H166517   5.460   3.695   3.764  1.5490  0.7360  0.0962
15034TIP3    H266518   5.373   3.676   3.886  3.4602 -2.3848  1.0774
15035TIP3   OH266519   0.438   2.731  15.457 -0.5103  0.7597  0.4182
15035TIP3    H166520   0.508   2.692  15.509  0.0792  1.3056  0.0445
15035TIP3    H266521   0.479   2.805  15.413 -1.3870  1.2415  0.3912
15036TIP3   OH266522   1.245   3.399   1.936 -0.0921  0.0744 -0.1186
15036TIP3    H166523   1.207   3.486   1.945  1.1979  0.6476 -0.0557
15036TIP3    H266524   1.197   3.345   1.999  0.2220  1.1298  1.0575
15037TIP3   OH266525   0.476   1.143  16.267 -0.5387 -1.2339  0.2307
15037TIP3    H166526   0.539   1.212  16.288 -1.2897 -0.7591  0.9825
15037TIP3    H266527   0.517   1.063  16.299  0.1579 -1.0854 -0.2736
15038TIP3   OH266528   5.830   4.906  12.532  0.2983  0.5839 -0.3036
15038TIP3    H166529   5.854   4.886  12.441  0.8371  2.0956 -0.5163
15038TIP3    H266530   5.859   4.829  12.581 -1.9828 -1.2745 -1.6501
15039TIP3   OH266531   3.270   6.314  15.639  0.2013  0.2684  0.0183
15039TIP3    H166532   3.331   6.286  15.571  1.1110  0.4305  0.7566
15039TIP3    H266533   3.325   6.335  15.714 -0.5243  2.9646 -0.1162
15040TIP3   OH266534   4.175   1.635  15.069  0.2217 -0.0359  0.6825
15040TIP3    H166535   4.158   1.631  14.975  0.8618  2.1419  0.4231
15040TIP3    H266536   4.096   1.674  15.107  0.1942 -0.3708  0.9792
15041TIP3   OH266537   5.344   6.734  15.362 -0.1960  0.2132  0.1728
15041TIP3    H166538   5.261   6.695  15.390 -0.6793  0.8989 -0.2768
15041TIP3    H266539   5.369   6.791  15.434 -0.0892 -0.0247  0.3259
15042TIP3   OH266540   1.111   4.427   5.023  0.0916  0.0308  0.4686
15042TIP3    H166541   1.123   4.393   5.111  0.8503 -2.5581 -0.5613
15042TIP3    H266542   1.050   4.501   5.035 -0.6455 -0.8670  3.0073
15043TIP3   OH266543   4.778   0.197   1.782  0.1710  0.1224  0.1026
15043TIP3    H166544   4.816   0.216   1.696 -2.1075 -0.1388 -1.0267
15043TIP3    H266545   4.760   0.282   1.820  2.9515  0.3077  1.2605
15044TIP3   OH266546   5.964   1.552   3.065  0.4690 -0.1895 -0.1497
15044TIP3    H166547   6.039   1.493   3.063 -0.6214 -1.6099 -1.1283
15044TIP3    H266548   5.888   1.494   3.070 -0.5911  1.2077  0.7217
15045TIP3   OH266549   2.170   2.881   1.662 -0.0796 -0.1752 -0.1307
15045TIP3    H166550   2.253   2.837   1.643 -1.6490 -4.1490  1.0998
15045TIP3    H266551   2.194   2.968   1.691  3.7409 -1.4960  1.1619
15046TIP3   OH266552   3.693   6.714  14.258  0.2981  1.2014 -0.2106
15046TIP3    H166553   3.689   6.620  14.240 -4.4623  1.1132  0.0662
15046TIP3    H266554   3.737   6.751  14.181  0.0523 -1.0364 -1.5067
15047TIP3   OH266555   5.743   1.473  14.942 -0.0530 -0.2509 -0.4359
15047TIP3    H166556   5.831   1.500  14.916  0.0529 -0.0187  0.1335
15047TIP3    H266557   5.758   1.393  14.993  0.1045  1.0926  1.7838
15048TIP3   OH266558   0.330   1.828  13.442  0.1632 -0.7590 -0.8584
15048TIP3    H166559   0.245   1.863  13.415 -0.3747 -0.6462  0.8655
15048TIP3    H266560   0.323   1.734  13.429 -0.9963 -0.9944  1.1256
15049TIP3   OH266561   6.659   4.980  13.977 -0.1685  0.0092  0.5288
15049TIP3    H166562   6.642   4.918  13.906  0.0499 -0.6802  1.0596
15049TIP3    H266563   6.704   5.053  13.935  1.0912 -0.9496  0.1558
15050TIP3   OH266564   2.573   4.567  13.359  0.7839 -0.3240 -0.4080
15050TIP3    H166565   2.500   4.545  13.416  1.8581 -0.1267  1.0890
15050TIP3    H266566   2.615   4.483  13.339  1.3700 -0.2514  0.4580
15051TIP3   OH266567   6.660   4.122  16.052  0.2921 -0.6230 -0.0923
15051TIP3    H166568   6.627   4.200  16.098 -0.3262  0.1311 -1.7504
15051TIP3    H266569   6.702   4.071  16.121  0.8671  1.2422  1.0284
15052TIP3   OH266570   5.721   4.846  16.799 -0.4567 -0.2286  0.1340
15052TIP3    H166571   5.777   4.856  16.722 -2.2115 -1.9846 -1.4814
15052TIP3    H266572   5.683   4.933  16.812 -0.2788  0.0643 -1.1366
15053TIP3   OH266573   2.144   4.115   3.318 -0.0624 -0.2181 -0.5423
15053TIP3    H166574   2.054   4.103   3.346  0.7344 -0.5447  2.1015
15053TIP3    H266575   2.178   4.026   3.307 -0.0405 -0.0982 -1.6065
15054TIP3   OH266576   4.208   3.985   3.333  0.1596 -0.1312  0.5782
15054TIP3    H166577   4.218   3.968   3.239 -1.0240  0.4642  0.3361
15054TIP3    H266578   4.184   4.077   3.340 -1.6270 -0.6042  1.3162
15055TIP3   OH266579   2.738   2.964  10.881  0.3842 -0.2914 -0.1599
15055TIP3    H166580   2.783   2.879  10.882 -0.4536 -0.7560 -0.8604
15055TIP3    H266581   2.681   2.960  10.804 -0.3666  0.5507  0.3391
15056TIP3   OH266582   0.151   2.875  12.925 -0.5427 -0.0106 -0.4490
15056TIP3    H166583   0.199   2.957  12.918  0.1208 -0.4756 -1.5480
15056TIP3    H266584   0.060   2.899  12.907 -0.7869  0.8782  1.6673
15057TIP3   OH266585   1.087   2.264  10.644 -0.4395 -0.1244  0.6918
15057TIP3    H166586   1.033   2.232  10.717  1.5333 -1.7203  1.5460
15057TIP3    H266587   1.110   2.354  10.668 -1.9443  0.2789  0.7221
15058TIP3   OH266588   0.119   2.039   4.736  0.1779  0.3251 -0.4114
15058TIP3    H166589   0.188   1.973   4.737 -0.8680 -0.7983  0.3251
15058TIP3    H266590   0.153   2.110   4.791 -0.1307 -1.2127  1.9438
15059TIP3   OH266591   0.023   2.759  12.597 -0.3957 -0.1605 -0.1912
15059TIP3    H166592  -0.067   2.744  12.627  0.3303 -0.7497  1.8761
15059TIP3    H266593   0.076   2.750  12.676  1.5698 -0.5307 -1.4873
15060TIP3   OH266594   2.462   6.761  16.515  0.4557  0.0097  0.3152
15060TIP3    H166595   2.535   6.804  16.558 -0.0774 -1.1780  2.5898
15060TIP3    H266596   2.388   6.822  16.526  0.3417 -0.2517  1.0651
15061TIP3   OH266597   1.651   2.813  16.796 -0.1043  0.1006  0.3785
15061TIP3    H166598   1.643   2.907  16.813 -1.0842  0.6757 -2.6052
15061TIP3    H266599   1.637   2.804  16.702  2.8237 -2.7543  0.0134
15062TIP3   OH266600   3.223   6.218  14.288  0.3845  0.2878  0.6958
15062TIP3    H166601   3.316   6.216  14.310  0.6522 -1.5491 -0.4114
15062TIP3    H266602   3.186   6.143  14.335  0.1337 -0.9949 -1.4047
15063TIP3   OH266603   2.711   0.092   4.864  0.2593  0.2805 -0.4333
15063TIP3    H166604   2.701   0.160   4.797 -1.6419  1.7594  1.2180
15063TIP3    H266605   2.623   0.055   4.873  1.0736 -1.8316 -0.6476
15064TIP3   OH266606   4.532   5.496  12.665  0.1187 -0.0753  0.5334
15064TIP3    H166607   4.482   5.416  12.679  0.0217 -0.2864 -0.8473
15064TIP3    H266608   4.623   5.469  12.672  0.1705 -0.7909 -1.8826
15065TIP3   OH266609   0.523   5.970   0.767 -0.2384  0.6007 -0.5028
15065TIP3    H166610   0.485   5.910   0.830 -0.3013 -0.4437 -1.5043
15065TIP3    H266611   0.568   6.036   0.820 -0.4470 -0.1454  0.6224
15066TIP3   OH266612   1.608   6.072  11.863 -0.1990 -0.7556 -1.1473
15066TIP3    H166613   1.598   6.030  11.777 -0.6856 -1.8797 -0.5634
15066TIP3    H266614   1.519   6.097  11.887  0.1050  0.8597 -1.5751
15067TIP3   OH266615   0.018   3.252   4.203 -0.7009 -0.2224  0.3040
15067TIP3    H166616   0.066   3.306   4.267 -0.9514  0.3589  0.0050
15067TIP3    H266617   0.038   3.162   4.229  0.1523  0.0079  0.4945
15068TIP3   OH266618   2.200   4.471   5.524 -0.2814  0.1847 -0.1844
15068TIP3    H166619   2.116   4.427   5.512 -0.0109 -1.0640  1.8770
15068TIP3    H266620   2.178   4.560   5.548 -0.9609  0.2858 -1.1466
15069TIP3   OH266621   1.477   3.294  17.003  0.0126  0.3377 -0.1048
15069TIP3    H166622   1.514   3.372  16.960 -0.8822 -0.1352 -1.8123
15069TIP3    H266623   1.496   3.222  16.943 -3.1327 -0.0210 -0.8502
15070TIP3   OH266624   4.583   4.282   4.134 -0.1393  0.3400  0.4845
15070TIP3    H166625   4.564   4.189   4.121  0.1419  0.2371  0.7993
15070TIP3    H266626   4.589   4.318   4.046 -3.4799  0.7457  0.2787
15071TIP3   OH266627   2.182   0.820  15.148 -0.5867 -0.2665 -0.2543
15071TIP3    H166628   2.137   0.736  15.159  0.6031 -1.0185 -0.8961
15071TIP3    H266629   2.246   0.804  15.079 -0.8251  1.3876 -0.9116
15072TIP3   OH266630   4.339   2.476  16.425 -0.4293  0.3637  0.0002
15072TIP3    H166631   4.320   2.570  16.425 -2.5903 -0.0156 -0.0975
15072TIP3    H266632   4.330   2.450  16.334 -0.0282  0.0205  0.0546
15073TIP3   OH266633   3.225   3.823   3.220 -0.5360 -0.0151  0.5516
15073TIP3    H166634   3.149   3.876   3.242 -0.0642  1.3720 -0.9569
15073TIP3    H266635   3.235   3.833   3.126 -0.3656 -2.7846  0.1899
15074TIP3   OH266636   3.901   4.707  11.038  0.0519 -0.0310  0.3158
15074TIP3    H166637   3.955   4.635  11.006  0.4391  0.3880  0.0210
15074TIP3    H266638   3.929   4.783  10.988 -0.7529  0.2170  0.2171
15075TIP3   OH266639   2.888   4.143  11.130 -0.3928  0.7289 -0.3267
15075TIP3    H166640   2.850   4.229  11.113  0.5271  1.0568 -0.8101
15075TIP3    H266641   2.838   4.083  11.075 -1.8940  0.7168  0.9582
15076TIP3   OH266642   5.768   0.909   1.567  0.1908  0.1395 -0.2919
15076TIP3    H166643   5.691   0.947   1.610 -0.4517 -0.3926 -0.9450
15076TIP3    H266644   5.840   0.969   1.590 -0.9786  2.4860 -2.2588
15077TIP3   OH266645   0.414   2.764   4.333 -0.4130  0.2075 -0.2587
15077TIP3    H166646   0.358   2.801   4.265 -0.4199 -0.1918 -0.4732
15077TIP3    H266647   0.464   2.695   4.289 -0.0085  0.3209  0.0120
15078TIP3   OH266648   6.523   1.134  12.411 -0.1697 -0.5004  0.0023
15078TIP3    H166649   6.527   1.220  12.369  0.9699 -0.1067  0.8659
15078TIP3    H266650   6.478   1.150  12.494 -0.4294 -0.8348 -0.0765
15079TIP3   OH266651   2.069   6.211   6.608 -1.3709  0.3045  0.2958
15079TIP3    H166652   2.068   6.258   6.692  1.8641  0.4076  0.3889
15079TIP3    H266653   2.092   6.278   6.544 -1.7459 -0.1971 -0.3709
15080TIP3   OH266654   3.462   5.369  13.622 -0.3287 -0.1449  0.4081
15080TIP3    H166655   3.462   5.396  13.714  2.3325 -1.3226  0.8706
15080TIP3    H266656   3.542   5.408  13.586  0.6550 -2.6581 -0.3560
15081TIP3   OH266657   5.215   1.448  12.765  0.3174  0.5569  0.0074
15081TIP3    H166658   5.206   1.414  12.854  1.8263 -0.3766 -0.1605
15081TIP3    H266659   5.138   1.413  12.718 -0.8287  1.5819  1.0598
15082TIP3   OH266660   4.549   4.055  16.444  0.4557  0.4839 -0.0955
15082TIP3    H166661   4.495   4.120  16.399  0.5546  0.8856  0.3625
15082TIP3    H266662   4.580   3.998  16.373 -0.6472  0.1795 -0.3513
15083TIP3   OH266663   2.457   4.771  16.862  0.2619  0.1887  0.6234
15083TIP3    H166664   2.428   4.861  16.878 -0.8971 -0.2101  0.8691
15083TIP3    H266665   2.551   4.778  16.849  0.1720  1.4566  0.5185
15084TIP3   OH266666   2.066   5.685   0.540  0.3807  0.1446 -0.6574
15084TIP3    H166667   2.062   5.592   0.518 -0.7634 -0.0296  0.2375
15084TIP3    H266668   2.084   5.688   0.634 -1.7658  0.7616 -0.2109
15085TIP3   OH266669   1.681   4.472  17.129 -0.3475 -0.3948 -0.3443
15085TIP3    H166670   1.677   4.382  17.161 -1.1007 -0.4046 -0.4394
15085TIP3    H266671   1.719   4.465  17.041  0.5674 -0.5023  0.0570
15086TIP3   OH266672   4.037   5.041   5.360 -0.3574 -0.0973  0.0449
15086TIP3    H166673   4.026   5.011   5.450  0.3434  0.5968  0.3777
15086TIP3    H266674   4.040   4.961   5.308  2.0517 -0.7006  0.9633
15087TIP3   OH266675   6.311   0.056   5.605  0.1057 -0.9835 -0.1421
15087TIP3    H166676   6.365   0.126   5.569  1.4080 -1.8332  0.0727
15087TIP3    H266677   6.236   0.050   5.546 -1.5094  2.3845  1.3287
15088TIP3   OH266678   1.881   0.816   4.436 -0.6488 -0.6763  0.1300
15088TIP3    H166679   1.970   0.779   4.431  0.6501  2.2991 -1.8300
15088TIP3    H266680   1.865   0.826   4.530  2.8880  2.2914  0.6629
15089TIP3   OH266681   3.396   5.016   4.897  0.4110 -0.3280 -0.4102
15089TIP3    H166682   3.387   4.990   4.806 -0.2424  0.8961 -0.7139
15089TIP3    H266683   3.312   4.991   4.937  0.1003  0.5140 -0.5141
15090TIP3   OH266684   2.007   1.589  13.083  0.2949 -0.2055 -0.7365
15090TIP3    H166685   1.934   1.536  13.051  0.3762  0.4816 -2.1754
15090TIP3    H266686   1.968   1.674  13.103  0.4346 -0.3189  0.0334
15091TIP3   OH266687   1.606   4.520   5.338  0.2624  0.1505 -0.1981
15091TIP3    H166688   1.558   4.600   5.320 -0.6645 -0.7892 -2.1873
15091TIP3    H266689   1.689   4.529   5.291  1.1473  0.8180  1.3946
15092TIP3   OH266690   1.288   1.127   1.158 -0.1758 -0.0941  0.0105
15092TIP3    H166691   1.359   1.111   1.096  0.6061  0.8783  0.6313
15092TIP3    H266692   1.325   1.187   1.222 -0.8579 -1.3420  1.6243
15093TIP3   OH266693   6.010   0.021  13.405  0.0653  0.5209  0.0676
15093TIP3    H166694   5.972   0.022  13.493  0.0262 -0.6391  0.0713
15093TIP3    H266695   6.041  -0.069  13.393  0.2238  0.7137 -1.0461
15094TIP3   OH266696   1.929   0.056  13.870 -0.2692  0.5730  0.2271
15094TIP3    H166697   1.876  -0.001  13.926  1.1848 -0.3632  0.7277
15094TIP3    H266698   1.882   0.060  13.787 -1.6210  0.6196  0.9752
15095TIP3   OH266699   4.731   2.142  13.315 -0.0720  0.9948 -1.1398
15095TIP3    H166700   4.702   2.057  13.348  2.3963  0.3255 -0.5155
15095TIP3    H266701   4.688   2.150  13.229 -0.3195 -0.9024 -1.2390
15096TIP3   OH266702   1.742   6.515  13.727 -0.6535 -1.0550  0.2095
15096TIP3    H166703   1.780   6.428  13.739  1.7279 -0.0160  0.7303
15096TIP3    H266704   1.653   6.498  13.695 -0.5692 -3.6612  1.1429
15097TIP3   OH266705   3.906   4.365   3.538  0.6139 -0.1956 -0.0142
15097TIP3    H166706   3.837   4.299   3.533 -0.7639  0.8694  2.9738
15097TIP3    H266707   3.986   4.317   3.515 -0.6098 -2.3431 -0.0573
15098TIP3   OH266708   2.859   5.180   1.652 -0.1038 -0.6863  0.4962
15098TIP3    H166709   2.858   5.085   1.636 -2.0882 -0.5328 -0.6500
15098TIP3    H266710   2.902   5.217   1.576  0.3168 -0.6394  0.7566
15099TIP3   OH266711   3.552   2.185   3.466  0.0669  0.5976 -0.0313
15099TIP3    H166712   3.536   2.249   3.396  0.0141  2.7049  1.8055
15099TIP3    H266713   3.645   2.164   3.458  0.2981  1.5951 -0.1625
15100TIP3   OH266714   1.527   2.244  15.892 -0.3925 -0.0175 -0.2636
15100TIP3    H166715   1.558   2.185  15.961  0.0439 -0.4538 -0.8310
15100TIP3    H266716   1.559   2.206  15.811 -0.9560  0.4629 -0.7235
15101TIP3   OH266717   4.133   0.414   2.285  0.0829  0.4414 -0.7672
15101TIP3    H166718   4.072   0.425   2.213 -1.8822  1.4983  0.9326
15101TIP3    H266719   4.078   0.412   2.363  2.0957 -0.7279  0.7332
15102TIP3   OH266720   3.992   1.274   3.936  0.6804 -0.0363  0.0492
15102TIP3    H166721   3.958   1.188   3.963  0.3804  0.1723  0.3461
15102TIP3    H266722   4.027   1.260   3.848 -0.5284 -0.1609 -0.4229
15103TIP3   OH266723   5.906   1.537   2.567  0.1947  0.3032  0.1936
15103TIP3    H166724   5.878   1.608   2.510 -1.4318  0.5202  1.2055
15103TIP3    H266725   5.870   1.560   2.653 -0.8009 -1.9694  0.4422
15104TIP3   OH266726   2.251   4.631   3.002  0.4663 -0.5948 -0.1384
15104TIP3    H166727   2.320   4.685   3.041  0.5734  0.2806 -1.4818
15104TIP3    H266728   2.197   4.694   2.952 -0.3316 -1.5055 -0.4491
15105TIP3   OH266729   1.191   5.437   2.688 -0.0862  0.4890 -0.1914
15105TIP3    H166730   1.132   5.363   2.673  0.4272 -0.1519  0.8415
15105TIP3    H266731   1.134   5.504   2.726 -0.3028  0.1396  0.1195
15106TIP3   OH266732   3.957   6.332  16.337  0.8752 -0.2218 -0.7175
15106TIP3    H166733   3.917   6.246  16.339  2.7314 -1.1103  0.7029
15106TIP3    H266734   3.883   6.393  16.338 -0.4986 -1.7665  1.8856
15107TIP3   OH266735   1.046   2.319   1.969  0.3183  0.5121  0.4514
15107TIP3    H166736   1.118   2.316   1.907  0.4136  0.0790  0.5773
15107TIP3    H266737   1.065   2.248   2.031 -0.2172  0.3951  0.4828
15108TIP3   OH266738   5.565   6.058  11.476  0.3906  0.2111 -0.3122
15108TIP3    H166739   5.624   6.074  11.550  0.8074 -0.1017 -0.5742
15108TIP3    H266740   5.477   6.058  11.515  0.6157 -0.0909  0.2074
15109TIP3   OH266741   3.361   0.781   5.087  0.5765  0.3952 -0.0102
15109TIP3    H166742   3.449   0.749   5.107  0.0816 -0.4522  0.9056
15109TIP3    H266743   3.375   0.870   5.055  1.6538  0.9480  1.8080
15110TIP3   OH266744   0.266   3.222   0.423 -0.9302  0.4522  0.1787
15110TIP3    H166745   0.178   3.242   0.453 -1.8744  0.1710 -2.1877
15110TIP3    H266746   0.261   3.226   0.328  1.6145  0.3755 -0.0433
15111TIP3   OH266747   1.815   3.578   5.181  1.1174  0.2440 -0.1117
15111TIP3    H166748   1.756   3.505   5.160  1.9348  0.2988 -3.2041
15111TIP3    H266749   1.895   3.537   5.211 -0.2310  0.1616  3.8706
15112TIP3   OH266750   1.007   5.027   1.042  0.5589 -0.7610  0.1200
15112TIP3    H166751   1.058   5.020   0.960  0.6104 -2.2160  0.2491
15112TIP3    H266752   1.020   5.118   1.071  2.5577 -0.9082 -0.1981
15113TIP3   OH266753   1.393   3.153   0.614 -0.5955 -0.0803 -0.0049
15113TIP3    H166754   1.401   3.123   0.524 -2.2121  0.3342 -0.3015
15113TIP3    H266755   1.395   3.073   0.666 -1.1604 -0.4367 -0.5231
15114TIP3   OH266756   1.852   0.986   4.809 -0.0575  0.0199 -0.0446
15114TIP3    H166757   1.868   1.078   4.830 -0.9709  0.2736 -0.4052
15114TIP3    H266758   1.934   0.956   4.769  1.5956 -0.3582  3.2922
15115TIP3   OH266759   0.749   3.952   2.790  0.0210 -0.2046 -0.1330
15115TIP3    H166760   0.819   3.887   2.800 -0.5490 -0.5816  1.9850
15115TIP3    H266761   0.721   3.970   2.880  0.6218  3.5184 -0.5280
15116TIP3   OH266762   5.911   5.956   5.158 -0.3205 -0.1686 -0.2399
15116TIP3    H166763   5.988   5.972   5.212  0.1249 -0.7187 -0.7100
15116TIP3    H266764   5.935   5.883   5.101 -1.6715 -1.3156  0.5858
15117TIP3   OH266765   0.972   3.487  14.298 -0.0604 -0.5432  0.5343
15117TIP3    H166766   0.952   3.405  14.251 -1.7347  0.4996 -0.7019
15117TIP3    H266767   0.917   3.552  14.255  1.5679  1.3398  1.1947
15118TIP3   OH266768   1.460   5.876   0.853  0.2967 -0.5257  0.0231
15118TIP3    H166769   1.497   5.886   0.941  1.1609 -0.6448 -0.3230
15118TIP3    H266770   1.389   5.814   0.864 -0.6173  0.6270  0.9269
15119TIP3   OH266771   0.283   3.639   5.479 -0.0562 -0.4237 -0.3111
15119TIP3    H166772   0.310   3.696   5.406  1.3538 -2.5782 -1.5596
15119TIP3    H266773   0.301   3.550   5.448 -2.7773 -1.6569  1.3199
15120TIP3   OH266774   6.261   3.623   1.838 -0.0177 -0.2513  0.9081
15120TIP3    H166775   6.220   3.582   1.761  2.2100 -1.8480  0.4787
15120TIP3    H266776   6.247   3.717   1.825 -2.1466 -0.6113  0.0549
15121TIP3   OH266777   6.082   0.489  12.924 -0.0167  0.2986  0.4668
15121TIP3    H166778   6.026   0.510  12.849 -0.9381 -0.2676  0.9786
15121TIP3    H266779   6.048   0.406  12.957  0.3322  0.5737  1.5586
15122TIP3   OH266780   3.081   2.164  12.062 -0.6659  0.2631 -0.1073
15122TIP3    H166781   3.140   2.203  11.998  0.5143 -2.4400 -0.7997
15122TIP3    H266782   3.137   2.143  12.136 -1.3603  0.2803  0.4331
15123TIP3   OH266783   2.274   1.221  14.720 -0.0216  0.0580 -0.1750
15123TIP3    H166784   2.307   1.249  14.635  0.3996 -1.8333 -0.6762
15123TIP3    H266785   2.201   1.163  14.699  1.9232 -2.8762  0.5257
15124TIP3   OH266786   4.151   2.630  14.869  0.1239  0.1687  0.0584
15124TIP3    H166787   4.173   2.713  14.826  0.1636 -0.9407 -2.1992
15124TIP3    H266788   4.154   2.565  14.799 -1.3950 -1.5181  1.4562
15125TIP3   OH266789   5.985   6.181  11.612 -0.2516  0.2971 -0.2525
15125TIP3    H166790   5.974   6.206  11.521 -1.6982  2.0544  0.3444
15125TIP3    H266791   5.982   6.264  11.660  2.8442 -0.3239  1.2386
15126TIP3   OH266792   6.630   4.634   3.895 -0.2017 -0.3957  0.5370
15126TIP3    H166793   6.629   4.729   3.891 -0.2670 -0.4363 -1.1530
15126TIP3    H266794   6.592   4.612   3.980 -0.3400  1.0760  0.8673
15127TIP3   OH266795   3.016   1.677  14.834  0.5965 -0.3967 -0.3773
15127TIP3    H166796   3.046   1.704  14.747  0.3029 -0.3918 -0.4784
15127TIP3    H266797   3.080   1.612  14.863  2.6497  1.9862  0.8317
15128TIP3   OH266798   5.773   4.149   3.404 -0.5696  0.4000 -0.7082
15128TIP3    H166799   5.791   4.164   3.312 -2.6748  0.4984 -1.1395
15128TIP3    H266800   5.807   4.227   3.449  2.2357 -0.5001 -1.1039
15129TIP3   OH266801   1.314   2.468  12.236 -0.2488 -0.0277 -0.0975
15129TIP3    H166802   1.257   2.425  12.300 -0.4835 -0.0588 -0.3242
15129TIP3    H266803   1.262   2.540  12.201 -1.7460 -2.3655 -3.2101
15130TIP3   OH266804   2.876   2.213   0.514 -0.4581  0.6718 -0.4336
15130TIP3    H166805   2.816   2.198   0.441 -3.7852  0.7121  2.0696
15130TIP3    H266806   2.865   2.306   0.536  1.2367  0.9047 -0.4145
15131TIP3   OH266807   3.229   5.567  11.265 -0.1731  0.2126 -0.2516
15131TIP3    H166808   3.263   5.522  11.343 -0.8332 -1.4127 -0.8537
15131TIP3    H266809   3.227   5.499  11.198 -2.7200  0.7224 -0.7779
15132TIP3   OH266810   6.111   1.241  15.777  0.3132  0.1244  0.3534
15132TIP3    H166811   6.145   1.159  15.810 -1.0878 -0.7937 -0.3808
15132TIP3    H266812   6.047   1.270  15.843 -0.8780 -0.5886 -0.4474
15133TIP3   OH266813   4.268   2.427  14.519  0.3224  0.8951 -0.4097
15133TIP3    H166814   4.198   2.475  14.564  0.9335  1.0006  0.4482
15133TIP3    H266815   4.281   2.349  14.572 -0.8166 -0.3792 -1.9133
15134TIP3   OH266816   3.955   4.651   6.409  0.3274 -0.4737 -0.5078
15134TIP3    H166817   4.017   4.714   6.373  0.2809  1.1857  2.0371
15134TIP3    H266818   3.998   4.566   6.400  3.0381  0.6185  1.1768
15135TIP3   OH266819   2.119   3.598   1.475 -0.2858 -0.6796 -0.1351
15135TIP3    H166820   2.181   3.616   1.546  0.2331  0.7695 -0.9233
15135TIP3    H266821   2.166   3.538   1.417 -0.6783 -1.7967  0.6519
15136TIP3   OH266822   6.011   4.173   2.973  0.3693  0.1055 -0.5706
15136TIP3    H166823   6.022   4.209   2.885 -0.4149  1.5893 -0.0984
15136TIP3    H266824   5.918   4.152   2.979  0.4479 -0.1234 -0.1579
15137TIP3   OH266825   1.955   3.184   1.576  0.6941 -0.4188  0.6745
15137TIP3    H166826   1.954   3.273   1.611 -1.1589 -0.8042  1.7386
15137TIP3    H266827   2.047   3.160   1.575  1.1304  1.0868  1.4736
15138TIP3   OH266828   0.195   1.662   3.100 -0.1819  0.0541 -0.7061
15138TIP3    H166829   0.199   1.636   3.192 -0.2876 -1.5749 -1.1336
15138TIP3    H266830   0.280   1.635   3.064 -0.4575 -0.0816 -1.2628
15139TIP3   OH266831   0.921   1.596   3.307  0.0219 -0.9637  0.6727
15139TIP3    H166832   1.017   1.592   3.309  0.1465 -0.1872 -1.5368
15139TIP3    H266833   0.897   1.555   3.224 -1.4062  0.9178  0.0885
15140TIP3   OH266834   4.925   0.717  13.517 -0.2984 -0.1066 -0.2294
15140TIP3    H166835   4.966   0.650  13.463  0.4203  0.1857 -0.0509
15140TIP3    H266836   4.927   0.796  13.464 -2.5170 -0.5303 -1.0577
15141TIP3   OH266837   4.215   6.095   2.475 -0.5612 -0.0695 -0.1557
15141TIP3    H166838   4.260   6.160   2.421 -2.1255  0.0816 -1.3290
15141TIP3    H266839   4.227   6.012   2.428 -0.5951 -0.2176  0.0950
15142TIP3   OH266840   2.093   2.583  11.368 -0.0133  0.9094  0.1446
15142TIP3    H166841   2.160   2.515  11.359 -1.1174 -0.3170  0.8493
15142TIP3    H266842   2.141   2.660  11.399  1.6292  1.1516 -2.6074
15143TIP3   OH266843   5.619   0.164  11.281 -0.1224 -0.1317 -0.2364
15143TIP3    H166844   5.541   0.130  11.325 -0.1313 -0.5918 -0.6004
15143TIP3    H266845   5.693   0.124  11.328 -0.0822  0.8973  0.5909
15144TIP3   OH266846   5.822   0.930  11.175 -0.7762 -0.1918  0.0259
15144TIP3    H166847   5.775   0.913  11.093 -2.0209  0.1515  0.6378
15144TIP3    H266848   5.910   0.956  11.148 -0.2831 -2.7148 -1.1242
15145TIP3   OH266849   2.414   6.580   2.484  0.6058 -0.0079 -0.3685
15145TIP3    H166850   2.386   6.565   2.394  0.9935  0.5495 -0.5848
15145TIP3    H266851   2.510   6.584   2.479  0.6042  0.5366 -0.0145
15146TIP3   OH266852   5.405   3.373  14.068  0.5545  0.1010 -0.2288
15146TIP3    H166853   5.409   3.465  14.041 -0.4204  0.5547  1.0836
15146TIP3    H266854   5.337   3.370  14.135  0.3462 -1.6458 -0.4579
15147TIP3   OH266855   2.611   1.280   0.177 -0.1670 -0.7865  0.0687
15147TIP3    H166856   2.525   1.300   0.142 -0.6177 -1.9073  0.5004
15147TIP3    H266857   2.645   1.365   0.206 -0.7347 -0.1971 -0.9267
15148TIP3   OH266858   1.411   6.297   4.967 -0.2694  0.1442 -0.0620
15148TIP3    H166859   1.392   6.385   4.999 -3.0477 -0.1761 -0.6447
15148TIP3    H266860   1.334   6.246   4.989  0.7969 -1.8892 -0.7969
15149TIP3   OH266861   1.427   5.486   1.382 -1.0380  0.7296  0.1542
15149TIP3    H166862   1.376   5.525   1.453 -1.7494  0.3810 -0.1624
15149TIP3    H266863   1.393   5.527   1.302 -0.5009  0.8393 -0.0230
15150TIP3   OH266864   1.756   1.004  13.414 -0.4518 -0.1255  0.1439
15150TIP3    H166865   1.774   0.954  13.494  0.3578 -1.4756 -0.8421
15150TIP3    H266866   1.717   1.085  13.445  0.0995 -0.4992  1.9267
15151TIP3   OH266867   6.549   3.970  14.622  0.4129 -0.5875 -0.3977
15151TIP3    H166868   6.566   3.883  14.586  0.4973 -0.9843  0.5745
15151TIP3    H266869   6.456   3.969  14.645  0.6806 -0.8571  0.7296
15152TIP3   OH266870   5.036   3.237   4.399 -0.0570 -0.2605 -0.2744
15152TIP3    H166871   5.105   3.289   4.440  0.8888 -2.3726  0.9145
15152TIP3    H266872   4.957   3.291   4.408  1.2970  2.1203 -1.4775
15153TIP3   OH266873   0.117   4.353  16.051 -0.2464 -0.4453 -0.2950
15153TIP3    H166874   0.146   4.364  16.142 -0.3895 -2.4975  0.0509
15153TIP3    H266875   0.023   4.336  16.058 -0.3553 -0.1164 -0.8789
15154TIP3   OH266876   0.861   1.411  11.558  0.2800  0.3299 -0.4042
15154TIP3    H166877   0.789   1.351  11.576 -1.1502  2.8740  3.4682
15154TIP3    H266878   0.834   1.460  11.481 -1.0358 -0.3501 -0.3941
15155TIP3   OH266879   1.815   3.906  15.386  0.6408 -0.0895 -0.4875
15155TIP3    H166880   1.855   3.896  15.300 -0.7729  2.7511 -1.5907
15155TIP3    H266881   1.754   3.833  15.393  2.2913 -1.5833 -0.8969
15156TIP3   OH266882   1.950   5.032   3.812 -0.3810  0.1464  0.6667
15156TIP3    H166883   1.865   4.989   3.800  1.7259 -4.3257 -0.2873
15156TIP3    H266884   1.992   4.983   3.883  1.6450  1.8923  0.7665
15157TIP3   OH266885   1.338   3.846   1.778  0.5118 -0.0424 -0.4313
15157TIP3    H166886   1.377   3.932   1.758 -0.8646  0.4341 -1.2097
15157TIP3    H266887   1.269   3.836   1.713  1.1418 -2.1124 -0.8448
15158TIP3   OH266888   5.291   4.888  14.308  0.5185  0.0974  0.2367
15158TIP3    H166889   5.324   4.973  14.337 -0.3106  0.2618  0.7312
15158TIP3    H266890   5.219   4.910  14.248 -0.4014 -0.2423  1.1923
15159TIP3   OH266891   0.984   2.400  15.105  0.4820 -0.5825 -0.2478
15159TIP3    H166892   1.006   2.437  15.019 -1.3474 -1.0366 -0.9583
15159TIP3    H266893   1.010   2.308  15.098  2.1851 -0.1887  0.4328
15160TIP3   OH266894   4.617   2.249   4.033 -0.2672 -0.4670  0.0769
15160TIP3    H166895   4.587   2.323   4.087 -0.0705 -0.1457 -0.2470
15160TIP3    H266896   4.657   2.291   3.957 -0.9808 -0.9218 -0.5584
15161TIP3   OH266897   5.860   2.485   5.488  0.5191  0.3863 -0.2922
15161TIP3    H166898   5.869   2.390   5.497 -0.1771  0.3190 -0.2498
15161TIP3    H266899   5.785   2.497   5.431  1.0323  0.9103 -0.8806
15162TIP3   OH266900   3.275   2.796   3.658 -0.4359 -0.5861  0.6986
15162TIP3    H166901   3.232   2.762   3.580  1.4570  0.2842 -0.7989
15162TIP3    H266902   3.277   2.722   3.719 -2.9994 -0.9507  0.4557
15163TIP3   OH266903   6.544   3.117  14.940  0.1137 -0.2910  0.4375
15163TIP3    H166904   6.579   3.182  14.878 -1.5991 -0.0273 -0.3088
15163TIP3    H266905   6.622   3.076  14.978  1.2619 -1.0522 -2.5041
15164TIP3   OH266906   5.665   2.068   6.077 -0.2024 -0.0832 -0.0763
15164TIP3    H166907   5.721   2.056   6.154  0.0973  0.6225 -0.1726
15164TIP3    H266908   5.629   2.156   6.087 -0.1507  0.0199 -0.7478
15165TIP3   OH266909   0.653   4.162  14.916 -0.0506 -0.2260  0.0562
15165TIP3    H166910   0.721   4.229  14.912  0.0085 -0.3358 -1.3042
15165TIP3    H266911   0.668   4.117  14.999  0.7448  0.5737  0.3562
15166TIP3   OH266912   2.837   5.890   0.414  0.0493 -0.5477 -0.4088
15166TIP3    H166913   2.811   5.981   0.399 -0.1938 -0.6718 -0.7465
15166TIP3    H266914   2.781   5.861   0.486 -0.5036 -0.7042 -0.8972
15167TIP3   OH266915   4.722   4.110   1.972 -0.1706  0.3658 -0.1091
15167TIP3    H166916   4.650   4.079   1.918 -0.2079  1.3715 -0.6510
15167TIP3    H266917   4.738   4.038   2.034 -1.7600  0.1982  0.1553
15168TIP3   OH266918   1.209   0.124   3.392  0.1054  0.1373  0.2148
15168TIP3    H166919   1.172   0.187   3.453 -0.6947 -1.6239  1.6549
15168TIP3    H266920   1.301   0.117   3.417 -0.0990 -0.1870  0.8969
15169TIP3   OH266921   3.104   1.666  12.611 -0.3548  0.5316  0.3495
15169TIP3    H166922   3.121   1.576  12.638  0.4088  0.9430  1.2890
15169TIP3    H266923   3.009   1.672  12.604 -0.4600 -0.1012  1.1492
15170TIP3   OH266924   5.719   5.228   5.532 -0.0857  0.6338  0.2068
15170TIP3    H166925   5.751   5.206   5.444 -0.2626 -2.5452  0.8510
15170TIP3    H266926   5.741   5.321   5.542  2.0062  0.5299 -2.3002
15171TIP3   OH266927   2.111   2.459  16.815  0.0436 -0.5406  0.4589
15171TIP3    H166928   2.020   2.431  16.818 -0.6927  1.6318  0.5357
15171TIP3    H266929   2.154   2.413  16.887 -0.6935 -2.4447 -0.2687
15172TIP3   OH266930   5.789   3.969  16.654 -0.3614 -0.1871 -0.0568
15172TIP3    H166931   5.778   4.052  16.606  0.0784  0.4617  0.9363
15172TIP3    H266932   5.730   3.977  16.729 -1.8388 -1.6345 -0.9977
15173TIP3   OH266933   2.736   0.457   1.133  0.7169  0.0299  0.1579
15173TIP3    H166934   2.675   0.384   1.134  1.1674 -0.3621 -0.4157
15173TIP3    H266935   2.769   0.460   1.043 -0.6991  2.1005 -0.3683
15174TIP3   OH266936   5.615   4.913  12.298 -0.4431  0.1624 -0.0975
15174TIP3    H166937   5.584   4.840  12.351  0.2535 -0.0907 -0.0252
15174TIP3    H266938   5.708   4.893  12.283 -0.3785  0.7697 -0.5131
15175TIP3   OH266939   3.897   5.196  16.955 -0.1871  0.4524 -0.2374
15175TIP3    H166940   3.877   5.137  16.882 -1.4933  0.4953  0.0466
15175TIP3    H266941   3.962   5.150  17.007  0.2840  0.1452 -1.0898
15176TIP3   OH266942   4.620   3.482  11.371  0.1329 -0.0429 -0.3896
15176TIP3    H166943   4.680   3.408  11.373  0.7687  0.3858 -1.8868
15176TIP3    H266944   4.654   3.542  11.438 -0.3702 -1.0516  0.8094
15177TIP3   OH266945   0.652   4.248  16.237 -0.0888  0.0316  0.0026
15177TIP3    H166946   0.620   4.274  16.150 -0.3773  2.1108  0.6714
15177TIP3    H266947   0.711   4.176  16.219  0.7420  1.1218 -2.0778
15178TIP3   OH266948   0.414   2.976   3.071 -0.2479 -0.4931 -0.3542
15178TIP3    H166949   0.373   2.978   3.158  0.8499 -1.1737  0.2088
15178TIP3    H266950   0.416   2.883   3.048 -1.2879 -0.2505 -1.5021
15179TIP3   OH266951   2.029   6.157  16.297  0.4573  0.2691 -0.1793
15179TIP3    H166952   2.083   6.189  16.369  0.5055  0.3397 -0.2456
15179TIP3    H266953   2.051   6.064  16.290  0.8063  0.3687 -0.4156
15180TIP3   OH266954   5.980   3.896  11.632  0.3502 -0.3421  0.4739
15180TIP3    H166955   5.997   3.862  11.544 -0.6949  1.2362 -0.3861
15180TIP3    H266956   5.901   3.850  11.661 -0.9041  1.0681 -0.5755
15181TIP3   OH266957   6.497   3.522  11.190 -0.1511  0.3147  0.0995
15181TIP3    H166958   6.421   3.474  11.223 -0.0537 -0.3192 -0.5757
15181TIP3    H266959   6.549   3.456  11.145 -0.0693  1.0704 -0.9408
15182TIP3   OH266960   0.192   4.924  16.930 -0.7478  0.2376 -0.3607
15182TIP3    H166961   0.251   4.893  16.998 -0.9431  1.4990  0.4138
15182TIP3    H266962   0.107   4.932  16.973 -0.9046  0.8989 -0.7736
15183TIP3   OH266963   0.950   2.059   5.331  0.4808 -0.1897  0.7916
15183TIP3    H166964   0.862   2.032   5.305  0.8981 -0.2975 -0.5589
15183TIP3    H266965   0.937   2.113   5.410 -0.8374  0.2242  0.3067
15184TIP3   OH266966   6.694   6.516   6.222  0.5108 -0.1468 -0.4204
15184TIP3    H166967   6.747   6.592   6.247 -1.1080  0.3230  1.8889
15184TIP3    H266968   6.740   6.479   6.148  2.5094  1.8721 -0.3108
15185TIP3   OH266969   6.051   5.425   4.196  0.5151  0.1010  0.7427
15185TIP3    H166970   6.131   5.467   4.165 -0.8905  1.7657 -0.8533
15185TIP3    H266971   5.982   5.456   4.136 -1.5938 -0.0728  2.9179
15186TIP3   OH266972   1.852   4.142   0.170 -0.4247 -0.2696 -0.6212
15186TIP3    H166973   1.809   4.056   0.172 -0.5581 -0.1974 -0.3776
15186TIP3    H266974   1.784   4.204   0.196 -0.0400 -0.2130  0.2876
15187TIP3   OH266975   1.837   3.274  11.870  0.5295  0.5023 -1.0522
15187TIP3    H166976   1.789   3.334  11.927  1.1722 -1.6409  1.9352
15187TIP3    H266977   1.913   3.324  11.841 -0.2538  1.9144 -0.7581
15188TIP3   OH266978   4.626   5.483  15.785  0.4864 -0.1085  0.9041
15188TIP3    H166979   4.630   5.415  15.718 -2.0208 -0.5434  1.0801
15188TIP3    H266980   4.628   5.435  15.868 -0.1698  0.1172  1.0536
15189TIP3   OH266981   1.332   3.471  12.872  0.3159 -0.3063  0.1341
15189TIP3    H166982   1.388   3.400  12.901  2.2737  1.0868 -0.0539
15189TIP3    H266983   1.376   3.508  12.796  0.1838  2.0489  1.1047
15190TIP3   OH266984   0.810   1.328   5.579  0.2403  0.4501  0.1195
15190TIP3    H166985   0.855   1.408   5.553  1.3542  0.1917  1.1210
15190TIP3    H266986   0.796   1.280   5.498  0.0828  1.3899 -0.4211
15191TIP3   OH266987   2.982   4.666  11.695  0.4356  0.0771 -0.1699
15191TIP3    H166988   2.907   4.620  11.732  1.3559 -0.6469  0.8773
15191TIP3    H266989   2.964   4.759  11.714 -0.4977 -0.0179 -0.5348
15192TIP3   OH266990   1.579   2.339   6.434 -0.0794 -0.1590  0.6482
15192TIP3    H166991   1.664   2.366   6.398 -0.6369 -1.3201 -1.7156
15192TIP3    H266992   1.544   2.418   6.474  1.6161  0.6270  0.6993
15193TIP3   OH266993   5.966   6.263   5.174 -0.7253 -0.4213 -0.5152
15193TIP3    H166994   6.060   6.267   5.190 -0.8911  0.9642  0.3786
15193TIP3    H266995   5.949   6.174   5.144  1.0661 -0.2706 -2.1185
15194TIP3   OH266996   6.696   0.082  13.224  0.3312  0.0721 -0.3135
15194TIP3    H166997   6.750   0.018  13.178 -1.0557  0.1574 -2.1775
15194TIP3    H266998   6.607   0.069  13.190  0.0512  3.2638 -1.1548
15195TIP3   OH266999   3.435   3.666  12.327  0.0377 -0.5154  0.3006
15195TIP3    H167000   3.364   3.636  12.383  1.2769 -1.3722  1.4759
15195TIP3    H267001   3.429   3.611  12.249 -0.9901 -0.0972  0.0647
15196TIP3   OH267002   1.943   4.615   3.763 -0.9404  0.2155  0.2154
15196TIP3    H167003   1.850   4.592   3.760 -1.0313  0.5690  0.3639
15196TIP3    H267004   1.965   4.640   3.673 -1.4529  1.9632  0.5395
15197TIP3   OH267005   3.827   2.793  14.893 -0.2329  0.3254  0.5141
15197TIP3    H167006   3.905   2.810  14.946  0.8027  1.1944 -1.2028
15197TIP3    H267007   3.844   2.708  14.853  0.1026  0.7521 -0.2719
15198TIP3   OH267008   1.720   3.775  11.644  0.0118  0.3721  0.2201
15198TIP3    H167009   1.733   3.699  11.700 -1.8429 -0.1530  0.0213
15198TIP3    H267010   1.731   3.742  11.555  0.5460  0.6631  0.1710
15199TIP3   OH267011   1.677   2.223   6.070 -0.1833 -0.0855  0.4752
15199TIP3    H167012   1.603   2.258   6.118 -0.1864 -0.3920  0.6989
15199TIP3    H267013   1.641   2.149   6.020  0.3759 -1.7202  2.3466
15200TIP3   OH267014   3.935   5.736   2.567  0.2284 -0.0679  0.1841
15200TIP3    H167015   3.874   5.682   2.517  1.1595 -1.4886  0.5272
15200TIP3    H267016   4.021   5.697   2.552  0.6999  0.2084  1.8699
15201TIP3   OH267017   5.772   0.573   4.740  0.1278 -0.7116  0.1591
15201TIP3    H167018   5.718   0.619   4.676 -0.4974  0.0743  1.2283
15201TIP3    H267019   5.816   0.642   4.789  1.0811 -1.3182  0.1887
15202TIP3   OH267020   4.770   4.546  15.939 -0.5139  0.6116  0.0731
15202TIP3    H167021   4.749   4.611  16.007 -0.0798 -1.2201  2.0544
15202TIP3    H267022   4.830   4.485  15.981 -1.4021 -1.4710 -1.4813
15203TIP3   OH267023   4.672   4.220  14.098  0.2724 -0.2765 -0.7303
15203TIP3    H167024   4.616   4.214  14.175  0.9081 -0.0564 -0.2385
15203TIP3    H267025   4.612   4.218  14.024 -0.2710 -1.8308 -0.2896
15204TIP3   OH267026   5.830   3.056  14.616 -0.0909 -0.7356 -0.3539
15204TIP3    H167027   5.767   3.128  14.609  1.0704  0.2135 -1.6044
15204TIP3    H267028   5.806   2.997  14.545 -0.9163 -1.5129  0.5460
15205TIP3   OH267029   5.269   3.296   2.700 -0.0765  0.4774  0.0608
15205TIP3    H167030   5.273   3.367   2.636 -0.2453 -1.2223 -1.9446
15205TIP3    H267031   5.359   3.265   2.708 -0.4359 -1.4799 -2.0772
15206TIP3   OH267032   1.684   3.090  15.396  0.2524 -0.5865 -0.1027
15206TIP3    H167033   1.676   3.171  15.447  2.2697 -0.4087  0.0134
15206TIP3    H267034   1.653   3.114  15.309 -0.8346 -0.1923  0.3769
15207TIP3   OH267035   3.435   2.755  16.042  0.4225 -0.7662 -0.3651
15207TIP3    H167036   3.443   2.695  15.968  1.3972 -1.1469  0.0334
15207TIP3    H267037   3.415   2.840  16.003 -1.3632 -1.4004 -0.9238
15208TIP3   OH267038   1.197   1.186   5.101  0.1827  0.0021 -0.4208
15208TIP3    H167039   1.145   1.267   5.098  3.1955  2.2685  1.7962
15208TIP3    H267040   1.249   1.189   5.021 -0.2049 -0.1280 -0.6807
15209TIP3   OH267041   3.317   5.325  15.249 -0.3411 -0.2621 -0.1763
15209TIP3    H167042   3.338   5.246  15.299  0.5977  0.7483  1.0947
15209TIP3    H267043   3.370   5.393  15.290  0.0705  0.7269 -2.2435
15210TIP3   OH267044   4.412   2.543   5.642 -0.3040 -0.1909 -0.1802
15210TIP3    H167045   4.427   2.503   5.728  1.0036 -0.4691 -0.5099
15210TIP3    H267046   4.443   2.478   5.579  0.3104  0.6703 -0.7886
15211TIP3   OH267047   5.852   1.291   1.520  0.4329 -0.2674 -0.0320
15211TIP3    H167048   5.843   1.239   1.440  2.6996  1.6265 -1.6302
15211TIP3    H267049   5.852   1.382   1.490  1.2992  0.4995  2.1316
15212TIP3   OH267050   0.883   1.207  13.946 -0.0183 -0.2181  0.8645
15212TIP3    H167051   0.978   1.214  13.931 -0.1495 -0.3691 -0.0523
15212TIP3    H267052   0.843   1.232  13.863 -0.7616 -1.0601  0.9468
15213TIP3   OH267053   3.761   1.310  10.651  0.2899 -0.5158  0.2881
15213TIP3    H167054   3.716   1.318  10.567  1.1951 -0.0529 -0.1758
15213TIP3    H267055   3.692   1.294  10.715 -0.6282  1.2217 -0.2287
15214TIP3   OH267056   2.419   3.815  14.052 -0.6000  0.2967  0.1767
15214TIP3    H167057   2.333   3.780  14.031 -0.7126 -0.1265  1.2784
15214TIP3    H267058   2.401   3.891  14.108 -0.2473 -0.2566  1.0577
15215TIP3   OH267059   2.239   1.655  16.568  1.0044 -0.5107  0.4589
15215TIP3    H167060   2.273   1.571  16.599  2.4921  0.8904  2.9841
15215TIP3    H267061   2.316   1.699  16.531  0.5880  0.3194  0.5628
15216TIP3   OH267062   6.227   1.820  10.700  0.1407  0.3221  0.1432
15216TIP3    H167063   6.142   1.862  10.692  0.5707  1.5385  1.4713
15216TIP3    H267064   6.278   1.879  10.756  1.0759 -1.5304  1.3525
15217TIP3   OH267065   5.604   4.830   2.944 -0.6404  0.4937  0.2901
15217TIP3    H167066   5.559   4.833   3.028  0.1488  0.7526  0.7203
15217TIP3    H267067   5.581   4.912   2.900  0.7322  1.4337  1.2348
15218TIP3   OH267068   4.152   4.646   4.975  1.0196  0.5264  0.3999
15218TIP3    H167069   4.070   4.598   4.960  0.2231  2.1333 -0.5539
15218TIP3    H267070   4.149   4.669   5.068 -0.6991  2.4063 -0.0487
15219TIP3   OH267071   0.407   2.177  11.093  0.7024  0.6174  0.5475
15219TIP3    H167072   0.490   2.153  11.134  0.6805 -0.1449  0.1628
15219TIP3    H267073   0.426   2.174  10.999 -0.0103 -0.4941  0.4317
15220TIP3   OH267074   1.205   6.141   1.397 -0.0223  0.2691  0.0992
15220TIP3    H167075   1.241   6.055   1.420 -3.2207 -1.3782 -0.4883
15220TIP3    H267076   1.144   6.122   1.325 -3.0830  2.5151  1.9169
15221TIP3   OH267077   3.998   4.208  14.988 -0.1498 -0.0205 -0.4919
15221TIP3    H167078   3.969   4.248  15.069  0.6266 -0.6469  0.1115
15221TIP3    H267079   3.923   4.216  14.928  0.5379  3.9508 -1.0461
15222TIP3   OH267080   0.829   4.276  12.124  0.3888  0.6639  0.4630
15222TIP3    H167081   0.881   4.308  12.050 -0.5368  1.0362 -0.0472
15222TIP3    H267082   0.862   4.325  12.200  0.4853  1.2166  0.0737
15223TIP3   OH267083   4.408   3.222  13.524 -0.3250 -0.2410  0.7698
15223TIP3    H167084   4.341   3.203  13.590 -0.1803 -0.3024  0.9009
15223TIP3    H267085   4.366   3.205  13.440 -0.1604 -1.2661  0.8837
15224TIP3   OH267086   4.454   6.003  15.306 -0.0516  0.3155  0.1609
15224TIP3    H167087   4.499   6.087  15.299  0.9608 -0.3289 -2.2458
15224TIP3    H267088   4.524   5.940  15.323 -0.6092 -0.2201  0.5202
15225TIP3   OH267089   3.523   4.185  15.118  0.3400 -0.0482 -0.0599
15225TIP3    H167090   3.513   4.236  15.198  2.2161  1.0697 -0.4515
15225TIP3    H267091   3.443   4.202  15.068 -1.8406 -2.4087  2.3424
15226TIP3   OH267092   5.396   0.220   5.102  0.1995  0.4978 -0.6531
15226TIP3    H167093   5.387   0.271   5.021 -1.0257 -1.6664 -1.9752
15226TIP3    H267094   5.440   0.140   5.074 -1.1059 -0.7042  0.6105
15227TIP3   OH267095   4.200   4.789  14.070  0.0376  0.2921  0.6750
15227TIP3    H167096   4.247   4.718  14.026 -0.6195  0.9748 -1.2618
15227TIP3    H267097   4.173   4.847  13.998 -1.4225  1.2956  1.9759
15228TIP3   OH267098   2.376   5.657   4.882  0.0542 -0.3401 -0.0789
15228TIP3    H167099   2.328   5.607   4.948  0.4321 -1.0249 -0.3052
15228TIP3    H267100   2.404   5.736   4.926  0.9192 -1.1069  0.7972
15229TIP3   OH267101   5.456   4.496   1.432 -0.3303 -0.3669  0.8015
15229TIP3    H167102   5.410   4.530   1.509  0.2656  1.6647  0.3380
15229TIP3    H267103   5.433   4.557   1.361  0.2630 -1.3529 -0.2806
15230TIP3   OH267104   1.525   0.851   1.960  0.0190 -0.2121  0.0237
15230TIP3    H167105   1.556   0.762   1.942  1.6486  0.3715 -0.2413
15230TIP3    H267106   1.579   0.907   1.905 -1.1831  0.9435 -0.0301
15231TIP3   OH267107   3.462   2.247   2.689 -0.2211 -0.3165 -0.1708
15231TIP3    H167108   3.508   2.194   2.754 -2.1049  0.0035  1.5168
15231TIP3    H267109   3.400   2.186   2.649  2.1049 -0.9871 -3.0927
15232TIP3   OH267110   3.277   2.695   0.504 -0.0601 -0.7149 -0.3349
15232TIP3    H167111   3.271   2.605   0.535  0.5244 -0.6959 -0.1386
15232TIP3    H267112   3.241   2.693   0.416  1.5479 -1.5263 -1.0220
15233TIP3   OH267113   3.507   3.929   5.954 -0.1234 -0.2251  0.7852
15233TIP3    H167114   3.508   3.833   5.944 -1.0778 -0.0569 -1.6603
15233TIP3    H267115   3.597   3.955   5.934 -0.2134 -0.5197 -0.0449
15234TIP3   OH267116   6.246   1.631   1.228  0.4909  0.3245 -0.2222
15234TIP3    H167117   6.162   1.601   1.191  0.4465  0.3285 -0.1233
15234TIP3    H267118   6.307   1.560   1.208  0.1228 -0.3906  1.0655
15235TIP3   OH267119   6.398   0.640  14.800 -0.3183 -0.1790  0.9479
15235TIP3    H167120   6.364   0.707  14.859  0.9466  0.5035  0.9213
15235TIP3    H267121   6.491   0.634  14.820 -0.4058 -2.0258  1.0341
15236TIP3   OH267122   0.594   2.737   2.714  0.2147  0.7844  0.2495
15236TIP3    H167123   0.676   2.782   2.737 -0.6027  1.1633  2.7632
15236TIP3    H267124   0.618   2.644   2.711  0.5747  0.7676  2.1526
15237TIP3   OH267125   3.296   5.545   3.536 -0.1080  0.3203 -0.4873
15237TIP3    H167126   3.293   5.633   3.573  0.3484 -0.4096  1.3907
15237TIP3    H267127   3.387   5.532   3.510 -0.2731  0.5586 -1.2066
15238TIP3   OH267128   4.525   6.079  11.152  0.3585  0.1799  0.7117
15238TIP3    H167129   4.612   6.116  11.136  0.6611  0.2152  2.2053
15238TIP3    H267130   4.536   5.986  11.134  0.4166  0.3383 -0.1129
15239TIP3   OH267131   2.969   2.948  13.687  0.1663  0.1984  0.5718
15239TIP3    H167132   3.039   2.887  13.663 -1.2157 -1.0926 -0.4453
15239TIP3    H267133   2.925   2.906  13.761 -0.5850  0.1108  0.0882
15240TIP3   OH267134   1.405   1.997   4.468 -0.4466 -0.5922  0.3052
15240TIP3    H167135   1.404   1.914   4.516  0.0713 -0.6287  0.2606
15240TIP3    H267136   1.394   1.972   4.376 -0.9535 -0.5572  0.3508
15241TIP3   OH267137   0.009   4.331   0.358  0.0408  1.1354  0.1710
15241TIP3    H167138  -0.033   4.378   0.430  2.3282  4.4576 -0.4096
15241TIP3    H267139   0.103   4.338   0.378  0.5910 -0.7891 -1.4906
15242TIP3   OH267140   4.703   5.228  12.704  0.3937  0.6152  0.4305
15242TIP3    H167141   4.786   5.275  12.710  1.2822 -0.6232 -1.3678
15242TIP3    H267142   4.709   5.161  12.772  1.1037  0.2111 -0.0227
15243TIP3   OH267143   0.195   2.301  12.518  0.4426  0.4801  0.6608
15243TIP3    H167144   0.106   2.270  12.534  0.4595 -0.1881 -0.4183
15243TIP3    H267145   0.188   2.355  12.440  1.2196 -0.8794 -0.4013
15244TIP3   OH267146   1.766   2.462   2.539  0.1458 -0.7847  0.1388
15244TIP3    H167147   1.681   2.420   2.531 -1.1368  1.3966  1.2439
15244TIP3    H267148   1.788   2.490   2.450 -1.7095  1.0833  0.1906
15245TIP3   OH267149   4.523   3.479   5.979 -0.0688  0.4056  0.2102
15245TIP3    H167150   4.500   3.549   6.040  0.4940  0.8388 -0.0626
15245TIP3    H267151   4.584   3.424   6.028 -0.2131  0.3248  0.2980
15246TIP3   OH267152   2.366   4.656   1.591 -0.2868  0.1297  0.0519
15246TIP3    H167153   2.398   4.614   1.671 -0.8047 -0.2801  0.0442
15246TIP3    H267154   2.429   4.630   1.524 -1.1600 -1.5080 -0.1779
15247TIP3   OH267155   5.828   6.576   2.013  0.1177  0.5305  0.1046
15247TIP3    H167156   5.784   6.576   2.098 -0.0130  0.1634  0.0348
15247TIP3    H267157   5.792   6.653   1.967 -2.2205 -1.0464 -0.8671
15248TIP3   OH267158   4.539   6.264  15.273  0.1647  0.1229  0.0686
15248TIP3    H167159   4.479   6.317  15.220  0.2623 -1.5201 -1.7988
15248TIP3    H267160   4.626   6.299  15.253  0.2866 -1.0524 -1.6480
15249TIP3   OH267161   4.004   5.553   3.695  0.1415 -0.1586 -0.5268
15249TIP3    H167162   3.960   5.482   3.648 -0.4492  0.5610 -1.0887
15249TIP3    H267163   4.009   5.625   3.632  2.3295 -0.2697 -0.5396
15250TIP3   OH267164   6.031   5.677   0.242 -0.2697  0.1495  0.4130
15250TIP3    H167165   5.965   5.618   0.277 -1.1375  0.0264 -1.3078
15250TIP3    H267166   6.040   5.651   0.150  1.7783  0.5358  0.4410
15251TIP3   OH267167   3.362   0.135  15.276 -0.3486 -0.3264 -0.7503
15251TIP3    H167168   3.284   0.189  15.260 -0.3133  0.0399  0.2603
15251TIP3    H267169   3.397   0.167  15.359  0.1718 -1.3318 -0.5649
15252TIP3   OH267170   1.827   5.342  15.447 -0.1180  0.1351  0.9414
15252TIP3    H167171   1.857   5.343  15.356 -0.6164 -0.4010  0.7640
15252TIP3    H267172   1.810   5.250  15.466  0.7430  0.1458  1.8440
15253TIP3   OH267173   0.795   0.606  16.116 -0.9076  0.3693 -0.4517
15253TIP3    H167174   0.764   0.598  16.206 -1.2114 -2.6140 -0.7082
15253TIP3    H267175   0.887   0.633  16.125 -0.5352 -1.1559  0.8844
15254TIP3   OH267176   2.049   6.119   3.707 -0.5695 -0.3603 -0.3713
15254TIP3    H167177   2.018   6.055   3.643 -1.4109 -1.5899  1.1651
15254TIP3    H267178   2.114   6.071   3.758 -0.8773  0.1424  0.5121
15255TIP3   OH267179   6.283   6.649  13.041  0.4131 -0.0878  0.1469
15255TIP3    H167180   6.227   6.577  13.070 -0.7840  0.5513 -0.5234
15255TIP3    H267181   6.223   6.711  12.999  1.2469  1.7787  1.5371
15256TIP3   OH267182   2.915   6.156  15.052  0.1769  0.8538  0.1481
15256TIP3    H167183   2.841   6.217  15.061 -1.0826 -0.7360  0.9001
15256TIP3    H267184   2.967   6.168  15.132 -1.7368 -1.1499  1.7992
15257TIP3   OH267185   1.326   3.862  16.460  0.1738 -0.3168 -0.3329
15257TIP3    H167186   1.244   3.911  16.462  0.2401 -0.2291  0.2475
15257TIP3    H267187   1.389   3.919  16.503  0.3905 -0.6628 -0.1908
15258TIP3   OH267188   6.233   0.061   0.779 -0.7549  0.6489 -0.1265
15258TIP3    H167189   6.158   0.090   0.727 -0.4373  1.2134 -0.2758
15258TIP3    H267190   6.291   0.137   0.783  2.7739 -1.2777 -5.1196
15259TIP3   OH267191   5.834   2.255   1.719  0.7282  0.2424 -0.4234
15259TIP3    H167192   5.887   2.230   1.644  1.4800  0.4274  0.0410
15259TIP3    H267193   5.895   2.256   1.792 -0.3975 -2.0180  0.6399
15260TIP3   OH267194   1.217   3.467   3.847  0.4738  0.3436 -0.4167
15260TIP3    H167195   1.188   3.397   3.905  0.6361 -0.7196 -1.5983
15260TIP3    H267196   1.142   3.485   3.791  1.0808 -0.3086 -1.4652
15261TIP3   OH267197   1.502   0.309  10.894 -0.0772 -0.1438  0.0192
15261TIP3    H167198   1.543   0.228  10.926  1.0578  1.2796  2.4993
15261TIP3    H267199   1.448   0.281  10.820  0.4434 -3.1179  0.6193
15262TIP3   OH267200   2.501   0.773  10.915  0.1607 -0.1762 -0.5701
15262TIP3    H167201   2.427   0.713  10.903  1.0983 -1.1731 -1.7068
15262TIP3    H267202   2.578   0.716  10.920  1.0471  0.9039 -1.2704
15263TIP3   OH267203   3.073   2.880   4.260 -0.1612 -0.1929  0.0633
15263TIP3    H167204   3.080   2.915   4.349 -0.9581 -1.8590  0.8215
15263TIP3    H267205   2.993   2.919   4.224  1.3424  2.2808 -0.8291
15264TIP3   OH267206   1.019   0.564   4.900  0.1730  0.1295  0.0791
15264TIP3    H167207   1.102   0.517   4.890 -0.0640 -0.0015 -1.5171
15264TIP3    H267208   1.033   0.648   4.858 -0.8272 -0.3251 -1.2357
15265TIP3   OH267209   1.619   6.490   6.054 -0.2038  0.1623 -0.4925
15265TIP3    H167210   1.614   6.548   6.130  2.0104 -1.4844  1.0214
15265TIP3    H267211   1.679   6.535   5.994  0.1185  0.2703 -0.0953
15266TIP3   OH267212   6.378   1.319   1.292 -0.5111  0.0793 -0.1261
15266TIP3    H167213   6.454   1.320   1.351 -1.7993  1.7615  1.6092
15266TIP3    H267214   6.383   1.233   1.249  1.9940 -0.1136  0.3891
15267TIP3   OH267215   5.491   1.110   4.114  0.2158  0.4518 -0.3349
15267TIP3    H167216   5.554   1.173   4.080  2.0747 -1.7629 -1.2694
15267TIP3    H267217   5.510   1.106   4.208  1.8297 -0.4593 -0.6533
15268TIP3   OH267218   1.704   4.156   0.840  0.2513 -0.1144 -0.4996
15268TIP3    H167219   1.673   4.089   0.779 -0.1943 -1.2527  0.9180
15268TIP3    H267220   1.681   4.122   0.927 -1.8334  2.7882  0.2340
15269TIP3   OH267221   4.573   1.832   2.382 -0.2868  0.5426 -0.2007
15269TIP3    H167222   4.568   1.767   2.312 -2.7782 -0.5678  0.8851
15269TIP3    H267223   4.502   1.893   2.363 -0.7543  0.4371  1.1051
15270TIP3   OH267224   2.909   6.507   0.568  1.2906 -0.5851 -0.2301
15270TIP3    H167225   2.906   6.529   0.475 -1.2885  3.0550  0.4705
15270TIP3    H267226   2.837   6.446   0.581 -0.4176  1.2765 -0.3181
15271TIP3   OH267227   3.231   0.266  12.028 -0.2243  0.1359 -0.0288
15271TIP3    H167228   3.265   0.333  12.087 -0.9306 -0.4626  1.0964
15271TIP3    H267229   3.160   0.225  12.077  0.3276 -1.5878 -0.5786
15272TIP3   OH267230   6.711   5.971  13.701  0.2149 -0.2320  0.2406
15272TIP3    H167231   6.648   6.005  13.638  0.4459  1.3047  0.7895
15272TIP3    H267232   6.796   6.004  13.670  0.0786  2.9254  2.7225
15273TIP3   OH267233   1.240   3.072  12.741 -0.3737 -0.7906  0.0195
15273TIP3    H167234   1.291   3.070  12.822  1.4742  1.5536 -0.9347
15273TIP3    H267235   1.306   3.065  12.672 -1.7272 -1.0064 -1.2987
15274TIP3   OH267236   2.840   3.441   0.338  0.0319 -0.3086 -1.1837
15274TIP3    H167237   2.934   3.459   0.345 -0.1421  0.4038 -0.5726
15274TIP3    H267238   2.829   3.354   0.378  0.0842  0.6721  1.1103
15275TIP3   OH267239   1.221   1.879   6.895  0.3890 -0.6064  0.6087
15275TIP3    H167240   1.220   1.826   6.814  0.8784 -0.1078  0.2669
15275TIP3    H267241   1.162   1.951   6.877 -0.7722 -1.3499  1.3099
15276TIP3   OH267242   4.662   4.793  14.375 -0.9131 -0.3082  0.4393
15276TIP3    H167243   4.756   4.807  14.386 -0.9132 -0.1319  0.2378
15276TIP3    H267244   4.653   4.699  14.360 -0.6523 -0.1717 -0.6477
15277TIP3   OH267245   3.786   1.378  13.634 -0.3684 -0.5059 -0.6153
15277TIP3    H167246   3.777   1.292  13.675 -0.1674 -0.9184 -1.4141
15277TIP3    H267247   3.747   1.367  13.547 -0.8068  0.3556 -0.5336
15278TIP3   OH267248   2.804   4.375  11.382 -0.4945 -0.3729 -0.0712
15278TIP3    H167249   2.839   4.299  11.429  0.0536 -0.0764  0.0143
15278TIP3    H267250   2.802   4.348  11.290 -0.9340 -0.7223  0.0406
15279TIP3   OH267251   2.684   6.168   4.264 -0.5393  0.6007  0.3113
15279TIP3    H167252   2.675   6.078   4.297 -1.7237  0.5854 -0.0038
15279TIP3    H267253   2.731   6.214   4.334  0.6631 -0.4029  0.2008
15280TIP3   OH267254   2.763   0.724  11.176 -0.0261  0.1826 -0.4662
15280TIP3    H167255   2.731   0.698  11.090  0.8573 -0.5058 -0.5986
15280TIP3    H267256   2.754   0.645  11.230 -0.0997  0.4637 -0.0592
15281TIP3   OH267257   3.505   2.694  14.157 -0.0733 -0.1199 -0.0395
15281TIP3    H167258   3.475   2.746  14.231 -0.0342 -1.6459  1.0797
15281TIP3    H267259   3.549   2.757  14.100  0.2257  1.0303  1.4071
15282TIP3   OH267260   1.232   2.256   2.640  0.0946 -0.3778  0.2768
15282TIP3    H167261   1.282   2.335   2.618  0.3789 -0.4761  0.5543
15282TIP3    H267262   1.280   2.217   2.714  0.2773 -1.1078 -0.2122
15283TIP3   OH267263   3.303   1.653  12.419  0.1186 -0.1691 -0.0689
15283TIP3    H167264   3.375   1.615  12.470 -0.4564 -2.9196 -1.1559
15283TIP3    H267265   3.235   1.671  12.484  1.5263  2.0447  0.9046
15284TIP3   OH267266   3.938   2.005  17.036  0.0605  0.0858 -0.2633
15284TIP3    H167267   3.864   1.962  16.992  0.7237  0.3124 -1.6274
15284TIP3    H267268   3.978   1.935  17.087  0.6761 -0.7821 -1.8698
15285TIP3   OH267269   5.913   0.310   0.297  0.0124 -0.5232 -0.1694
15285TIP3    H167270   5.843   0.258   0.258 -0.0227  0.6447 -1.7640
15285TIP3    H267271   5.993   0.274   0.260  0.1383 -0.7677  0.3354
15286TIP3   OH267272   1.329   5.492  16.516  0.5916 -0.1402 -0.2795
15286TIP3    H167273   1.358   5.500  16.425 -1.6174 -0.2539 -1.0551
15286TIP3    H267274   1.351   5.577  16.555  1.2884  0.0283 -1.0020
15287TIP3   OH267275   6.594   5.062  14.972  0.2269 -0.1558  0.5424
15287TIP3    H167276   6.550   4.978  14.961  0.2772  0.0792 -1.9274
15287TIP3    H267277   6.536   5.111  15.031 -1.5727 -0.7504 -0.6306
15288TIP3   OH267278   3.392   4.468   5.681 -0.3590  0.2781  0.2643
15288TIP3    H167279   3.340   4.523   5.741 -0.9301  1.3625 -1.1557
15288TIP3    H267280   3.334   4.394   5.662 -0.1352 -0.1245  1.1157
15289TIP3   OH267281   2.131   5.826  12.118 -0.1462  0.6439  0.2670
15289TIP3    H167282   2.195   5.806  12.186  0.4351 -0.6457 -0.6312
15289TIP3    H267283   2.049   5.840  12.166  0.2355 -0.3050  1.2252
15290TIP3   OH267284   6.122   5.034   2.777  0.6143 -0.1132  0.1973
15290TIP3    H167285   6.120   5.061   2.685  1.4142 -1.4903 -0.2622
15290TIP3    H267286   6.047   4.977   2.787  0.5991 -0.0641  0.3699
15291TIP3   OH267287   4.474   2.677   0.076 -0.1847  0.9683 -0.0949
15291TIP3    H167288   4.407   2.743   0.093  0.6747  1.2957  2.4920
15291TIP3    H267289   4.442   2.598   0.119  0.2418  0.6244 -0.4016
15292TIP3   OH267290   3.156   2.081  16.288 -0.1365  0.4046  0.1885
15292TIP3    H167291   3.157   2.063  16.194  2.1779  1.1970  0.0126
15292TIP3    H267292   3.171   2.175  16.295  1.3772  0.1132  1.3690
15293TIP3   OH267293   4.106   1.498   5.970 -0.1843  0.1881  0.4092
15293TIP3    H167294   4.075   1.582   6.002 -0.8641 -0.2006  0.8110
15293TIP3    H267295   4.027   1.443   5.968  0.4181 -0.7348  1.1208
15294TIP3   OH267296   2.305   3.902   1.383 -0.3824  0.4049 -0.6042
15294TIP3    H167297   2.232   3.925   1.325 -1.5030  1.0154  0.9949
15294TIP3    H267298   2.376   3.878   1.323 -1.3696  1.3570 -2.2252
15295TIP3   OH267299   3.479   1.833   5.035  0.1024  0.5719 -0.4737
15295TIP3    H167300   3.517   1.847   5.122  1.6846 -0.3285 -0.9686
15295TIP3    H267301   3.457   1.920   5.004 -0.4002  0.9143  0.7926
15296TIP3   OH267302   0.032   6.242  13.525  0.3345 -0.6105  0.2732
15296TIP3    H167303  -0.047   6.188  13.522 -0.6628  0.6812  1.6660
15296TIP3    H267304   0.024   6.300  13.450  0.7835 -1.5411 -0.5089
15297TIP3   OH267305   5.717   5.123   2.519 -0.2657 -0.0181  0.2520
15297TIP3    H167306   5.725   5.214   2.490 -0.4132  0.5293  1.8182
15297TIP3    H267307   5.805   5.087   2.512  0.2201  0.8685  1.4859
15298TIP3   OH267308   6.207   3.876  11.925  0.4140 -0.1239  0.4246
15298TIP3    H167309   6.153   3.876  12.004  1.6166  1.1191  1.2864
15298TIP3    H267310   6.167   3.943  11.869  1.1843  0.9993  1.1793
15299TIP3   OH267311   3.872   5.740  14.085  0.1292  0.6264  0.2405
15299TIP3    H167312   3.786   5.718  14.120  0.6433 -1.9538  0.0933
15299TIP3    H267313   3.932   5.727  14.159  0.5518  1.1853  0.0044
15300TIP3   OH267314   0.037   6.479   5.293 -0.2107  0.8483  0.4042
15300TIP3    H167315  -0.002   6.403   5.249  0.3783 -0.1474  1.5644
15300TIP3    H267316   0.053   6.542   5.222  0.3594 -0.5636 -0.7608
15301TIP3   OH267317   0.554   3.845  12.213  0.4338 -0.2888  0.6307
15301TIP3    H167318   0.460   3.841  12.198  0.1871  0.9290  1.6719
15301TIP3    H267319   0.571   3.936  12.236  1.3127 -1.0777  3.6549
15302TIP3   OH267320   4.378   5.948  16.136 -0.5398  0.6184  0.2059
15302TIP3    H167321   4.425   6.017  16.182 -0.7448 -0.3143  1.9070
15302TIP3    H267322   4.287   5.956  16.166 -0.8313  0.4115 -0.5833
15303TIP3   OH267323   2.803   5.221   1.225 -0.4132  0.0572  0.1109
15303TIP3    H167324   2.829   5.306   1.190  0.2189 -0.1277  0.1162
15303TIP3    H267325   2.864   5.205   1.297  1.7065 -1.8987 -1.9510
15304TIP3   OH267326   3.277   2.032   3.015 -0.0770 -0.4638 -0.0494
15304TIP3    H167327   3.371   2.047   3.004  0.3733 -0.4865  2.9502
15304TIP3    H267328   3.271   1.948   3.059 -1.4049  0.1416  0.9998
15305TIP3   OH267329   0.123   6.108   4.799 -0.3205  0.2487 -0.0276
15305TIP3    H167330   0.122   6.139   4.889 -1.5239  0.9481 -0.2575
15305TIP3    H267331   0.118   6.188   4.746 -0.5958 -0.1985 -0.6878
15306TIP3   OH267332   0.393   1.381  11.937 -0.1363  0.0828 -0.0773
15306TIP3    H167333   0.397   1.304  11.881  1.4591 -0.0458  0.1863
15306TIP3    H267334   0.322   1.434  11.899  1.0856  0.1610 -2.4769
15307TIP3   OH267335   0.946   2.033  11.404 -0.0588  0.0633  0.4587
15307TIP3    H167336   0.973   2.075  11.323  2.3937 -1.4108  0.3997
15307TIP3    H267337   0.989   2.084  11.473  0.5430 -0.5893  0.5794
15308TIP3   OH267338   3.940   5.656   3.124  0.9829 -0.1069 -0.0055
15308TIP3    H167339   3.996   5.700   3.060  0.8597  0.3567  0.1973
15308TIP3    H267340   3.952   5.563   3.107  0.5042  0.0186 -1.0768
15309TIP3   OH267341   3.193   6.348  15.036  0.4949 -0.3470  0.0637
15309TIP3    H167342   3.112   6.375  15.081  1.0246  0.8187  0.3597
15309TIP3    H267343   3.163   6.295  14.963 -0.6109  0.8816 -0.4156
15310TIP3   OH267344   1.920   0.499  11.795  0.1940  0.4802 -0.4648
15310TIP3    H167345   1.958   0.411  11.805  0.1567  0.6383  1.5747
15310TIP3    H267346   1.833   0.491  11.833  1.4627  2.1659  3.3308
15311TIP3   OH267347   3.830   0.644  16.669 -0.1254 -0.1558 -0.2320
15311TIP3    H167348   3.902   0.626  16.731 -0.8572  0.7652  0.9219
15311TIP3    H267349   3.842   0.579  16.600  1.7940 -0.0557 -0.0496
15312TIP3   OH267350   0.641   1.830  16.881 -0.2990  0.0521  0.0580
15312TIP3    H167351   0.651   1.923  16.865 -0.6702 -0.0821 -1.0504
15312TIP3    H267352   0.560   1.806  16.837 -0.5359 -0.6801  0.8519
15313TIP3   OH267353   4.705   0.985  11.332  0.1566  0.1153 -0.3517
15313TIP3    H167354   4.672   1.070  11.303  6.3876  2.7616 -1.1736
15313TIP3    H267355   4.682   0.925  11.261 -1.5858  1.8351 -1.3470
15314TIP3   OH267356   3.998   4.726  13.264  0.1174 -0.6552  0.2267
15314TIP3    H167357   4.068   4.785  13.291 -0.4757  0.3562 -0.4306
15314TIP3    H267358   4.040   4.639  13.263  0.5018 -0.5930  3.1015
15315TIP3   OH267359   0.702   1.155   0.737  0.2268 -0.3313  0.0985
15315TIP3    H167360   0.765   1.212   0.693  1.6411 -0.5207  1.7849
15315TIP3    H267361   0.696   1.190   0.826 -4.1849  1.4020 -0.5813
15316TIP3   OH267362   1.952   5.365  17.320  0.5504  0.3027 -0.0155
15316TIP3    H167363   1.989   5.332  17.402 -1.5773 -0.9076  0.5187
15316TIP3    H267364   1.960   5.291  17.259 -0.9888 -0.0299  0.1451
15317TIP3   OH267365   5.414   0.627  14.598  0.0475  0.6906  0.0909
15317TIP3    H167366   5.387   0.714  14.567  1.4893  0.3809 -2.2541
15317TIP3    H267367   5.369   0.566  14.540  1.1068 -0.0234 -0.0010
15318TIP3   OH267368   1.379   2.689  17.024 -0.7081 -0.4020  0.2154
15318TIP3    H167369   1.404   2.671  16.933 -0.5269  0.9471 -0.0173
15318TIP3    H267370   1.456   2.664  17.075 -0.5564 -0.5153 -0.0627
15319TIP3   OH267371   3.370   1.470   4.137 -0.2253 -0.6129 -0.2131
15319TIP3    H167372   3.313   1.514   4.200  0.1628 -0.2039 -0.1397
15319TIP3    H267373   3.398   1.540   4.078  2.3528 -0.2001  1.3212
15320TIP3   OH267374   6.462   5.315   0.866 -0.5968 -0.7399 -0.7560
15320TIP3    H167375   6.383   5.261   0.874 -1.2909  0.3215 -0.1986
15320TIP3    H267376   6.455   5.378   0.937 -1.0077  1.5812 -2.7222
15321TIP3   OH267377   3.434   0.779   1.282 -0.0937  0.0594 -0.0833
15321TIP3    H167378   3.455   0.851   1.341 -1.6411  0.7351 -0.2908
15321TIP3    H267379   3.480   0.703   1.318  1.4552  1.1170  0.2141
15322TIP3   OH267380   1.062   1.596  13.295  0.3297  0.2155  0.0155
15322TIP3    H167381   1.133   1.553  13.344  1.2920  0.3415 -1.2270
15322TIP3    H267382   1.028   1.662  13.356  3.0853  2.0240 -0.2121
15323TIP3   OH267383   2.701   5.866   1.127 -0.4690  0.3181  0.1607
15323TIP3    H167384   2.783   5.861   1.176  1.0186 -0.7160 -2.2486
15323TIP3    H267385   2.635   5.890   1.192  1.6380  0.6538  2.2873
15324TIP3   OH267386   6.724   2.303   5.432 -0.1449  0.0638  0.4484
15324TIP3    H167387   6.783   2.248   5.380  1.3406  1.4976  0.5342
15324TIP3    H267388   6.637   2.285   5.396  0.8523  1.5105 -3.0995
15325TIP3   OH267389   4.505   3.623  14.662  0.3482  0.7511  0.4024
15325TIP3    H167390   4.585   3.634  14.712 -0.2454  0.7732  1.3605
15325TIP3    H267391   4.519   3.675  14.583  2.6469 -1.8566 -1.1154
15326TIP3   OH267392   2.002   5.121  17.214 -0.7010  0.5467 -0.9084
15326TIP3    H167393   2.053   5.097  17.291 -1.4142  0.5401 -0.4277
15326TIP3    H267394   1.946   5.044  17.198 -1.2303  0.9147 -0.8530
15327TIP3   OH267395   6.018   5.426  13.695  0.0333  0.1519 -0.1881
15327TIP3    H167396   6.014   5.402  13.602 -0.6689 -1.7032  0.2668
15327TIP3    H267397   5.945   5.486  13.708  0.0829  0.3527 -0.8202
15328TIP3   OH267398   6.011   1.386  12.874  0.2544 -0.1245  0.2591
15328TIP3    H167399   6.059   1.309  12.906 -1.9033 -1.9271 -0.5580
15328TIP3    H267400   5.919   1.365  12.890 -0.5579  1.3153 -2.0267
15329TIP3   OH267401   4.558   2.880  12.565 -0.0154 -0.0977  0.3411
15329TIP3    H167402   4.587   2.853  12.652 -0.4849  1.7148  1.0962
15329TIP3    H267403   4.522   2.968  12.577 -1.3065 -0.3149 -1.4438
15330TIP3   OH267404   2.370   4.664  15.667  0.6045  0.1019  0.2972
15330TIP3    H167405   2.331   4.692  15.751  0.5338 -0.3928  0.4310
15330TIP3    H267406   2.461   4.647  15.688  0.6572  0.2684  0.2061
15331TIP3   OH267407   4.307   5.396   6.035  0.0472  0.7385  0.0404
15331TIP3    H167408   4.222   5.374   5.997  1.0206 -0.7259 -1.4053
15331TIP3    H267409   4.290   5.474   6.087 -2.3145  0.1077  0.3340
15332TIP3   OH267410   6.276   0.208   1.563  0.1747 -0.0006  0.3346
15332TIP3    H167411   6.280   0.240   1.653 -2.4294  0.7204  0.2624
15332TIP3    H267412   6.356   0.242   1.523  1.3738 -0.3010  2.3151
15333TIP3   OH267413   1.246   6.194  15.715 -0.0040 -0.5054  0.1650
15333TIP3    H167414   1.299   6.243  15.652 -0.4984  1.6951  1.3715
15333TIP3    H267415   1.182   6.148  15.661  0.4716  0.1798 -1.0228
15334TIP3   OH267416   5.248   2.872   5.437 -0.0578 -0.5084 -0.0983
15334TIP3    H167417   5.311   2.828   5.494  0.5065  0.1667 -0.1933
15334TIP3    H267418   5.202   2.933   5.494  0.3750  0.0298 -0.3138
15335TIP3   OH267419   0.980   3.666  11.918  0.1049 -0.2371 -0.5543
15335TIP3    H167420   0.970   3.599  11.851 -1.5351 -0.0960 -0.4816
15335TIP3    H267421   0.894   3.672  11.960  0.6716  0.7537  0.5447
15336TIP3   OH267422   4.145   3.949   0.727 -0.0538 -0.5824 -0.4482
15336TIP3    H167423   4.114   3.895   0.654  0.4318 -1.4300 -0.0508
15336TIP3    H267424   4.082   3.932   0.797 -0.1134 -0.3282 -0.4390
15337TIP3   OH267425   6.202   1.401   6.441  0.1884  0.2171 -0.0848
15337TIP3    H167426   6.239   1.315   6.423 -2.0229 -0.5548 -1.3995
15337TIP3    H267427   6.176   1.398   6.533  0.8319 -0.2134  0.0909
15338TIP3   OH267428   5.879   2.607  15.569 -0.5725  0.4181 -0.0338
15338TIP3    H167429   5.971   2.609  15.594 -0.7966 -1.3998  1.1321
15338TIP3    H267430   5.871   2.672  15.499  1.7984 -0.1043 -0.8535
15339TIP3   OH267431   0.844   3.277  11.489 -0.1430  0.3163  0.3666
15339TIP3    H167432   0.756   3.307  11.464 -0.9653 -1.3318  1.1437
15339TIP3    H267433   0.889   3.263  11.406 -1.0710 -0.0914 -0.0807
15340TIP3   OH267434   4.371   3.127  12.032 -0.0473  0.0234  0.5526
15340TIP3    H167435   4.314   3.069  12.082 -0.9878  0.4637  0.0331
15340TIP3    H267436   4.418   3.178  12.098  1.0891 -1.5660  1.0245
15341TIP3   OH267437   2.233   2.453  11.787 -0.3265 -0.1332 -0.3938
15341TIP3    H167438   2.313   2.442  11.837 -0.0955 -0.8930 -0.9012
15341TIP3    H267439   2.259   2.436  11.696 -0.4220  2.6264 -1.0309
15342TIP3   OH267440   4.938   6.513   3.079 -0.2431 -0.0117 -0.4809
15342TIP3    H167441   4.954   6.474   2.993 -2.0555 -2.1134  0.0509
15342TIP3    H267442   5.023   6.506   3.124  0.0197 -1.5411 -1.1385
15343TIP3   OH267443   1.043   1.673  13.596 -0.1157  0.2850 -0.3603
15343TIP3    H167444   0.962   1.691  13.643  0.7099  0.1566  1.1889
15343TIP3    H267445   1.065   1.755  13.552 -0.5420  0.6245  0.0665
15344TIP3   OH267446   1.012   2.544   0.277 -0.9474  0.5672 -0.2626
15344TIP3    H167447   0.996   2.637   0.260 -0.0792  0.7089 -0.3612
15344TIP3    H267448   0.999   2.502   0.192 -1.2638  0.6091 -0.2352
15345TIP3   OH267449   4.661   5.511  16.256  0.4163  0.1476 -0.3087
15345TIP3    H167450   4.669   5.491  16.163 -1.3364 -0.4054 -0.3731
15345TIP3    H267451   4.623   5.599  16.258 -1.7483 -0.7254 -0.2036
15346TIP3   OH267452   3.746   3.521   3.330 -0.2382 -0.4519 -0.7697
15346TIP3    H167453   3.783   3.589   3.386  0.2612 -0.5499 -0.9725
15346TIP3    H267454   3.670   3.489   3.378  0.3143 -0.6910 -0.0433
15347TIP3   OH267455   3.091   3.887  11.643 -0.8181 -0.0478 -0.0658
15347TIP3    H167456   3.153   3.948  11.603  1.2493 -1.3730  0.9429
15347TIP3    H267457   3.116   3.802  11.608 -1.3482 -0.7614  1.2318
15348TIP3   OH267458   5.400   3.293   2.112  0.4646  0.2467 -0.2421
15348TIP3    H167459   5.485   3.286   2.070  0.8726  1.7343  0.2827
15348TIP3    H267460   5.366   3.378   2.084 -0.6867 -0.1645 -0.1475
15349TIP3   OH267461   4.396   3.053   2.519  0.4282 -0.8510  0.2933
15349TIP3    H167462   4.375   3.017   2.433  1.8002  1.0620 -0.9270
15349TIP3    H267463   4.488   3.031   2.532  0.4046 -0.5569  0.9760
15350TIP3   OH267464   6.342   1.847  17.223  0.3525  0.3766 -0.0839
15350TIP3    H167465   6.348   1.886  17.136 -0.3584  0.1982 -0.2242
15350TIP3    H267466   6.256   1.873  17.255 -0.1316 -1.0131 -0.1632
15351TIP3   OH267467   4.384   0.254   0.777  0.1716  0.7670 -0.1801
15351TIP3    H167468   4.343   0.168   0.767 -0.3220  0.8817  0.7581
15351TIP3    H267469   4.310   0.314   0.785  0.5046  1.0639  0.8641
15352TIP3   OH267470   4.619   1.981   1.726 -0.0426  0.1018  0.1346
15352TIP3    H167471   4.642   2.073   1.709 -0.6319  0.0988 -0.7659
15352TIP3    H267472   4.661   1.933   1.654 -0.0918 -0.2895  0.3638
15353TIP3   OH267473   3.316   4.995  14.598 -0.1559  0.0418 -0.1536
15353TIP3    H167474   3.393   4.953  14.636 -0.3415 -0.1851 -0.0237
15353TIP3    H267475   3.245   4.973  14.658 -0.5940 -0.9063 -0.9828
15354TIP3   OH267476   5.915   4.684  12.875  0.1792  0.3687  0.0735
15354TIP3    H167477   5.989   4.632  12.908  0.3088  1.0567  0.8925
15354TIP3    H267478   5.944   4.714  12.788 -0.3957 -1.9428 -1.0155
15355TIP3   OH267479   4.639   1.413   0.972 -0.4020 -0.4817  0.3944
15355TIP3    H167480   4.630   1.495   0.923 -0.2804 -0.6196  0.1366
15355TIP3    H267481   4.571   1.357   0.935 -0.4204 -0.5297  0.5022
15356TIP3   OH267482   0.321   0.905   5.380  0.0764 -0.4797  0.4785
15356TIP3    H167483   0.268   0.830   5.405 -1.7168  0.7253  0.4906
15356TIP3    H267484   0.342   0.948   5.463  0.1298 -0.3436  0.3951
15357TIP3   OH267485   0.044   4.834  16.257 -0.1997 -0.0257 -0.2386
15357TIP3    H167486   0.024   4.772  16.187 -0.3547 -0.0014 -0.2170
15357TIP3    H267487   0.139   4.842  16.256 -0.1255 -0.8214  0.2393
15358TIP3   OH267488   3.564   2.053   4.675 -0.5931  0.1059 -0.2431
15358TIP3    H167489   3.633   2.043   4.609 -0.4051 -0.6867  0.0554
15358TIP3    H267490   3.490   2.004   4.640 -0.4715 -0.3704  0.1564
15359TIP3   OH267491   3.175   6.177   2.480 -0.0834 -0.1663  0.1427
15359TIP3    H167492   3.260   6.153   2.518 -0.6596 -0.0627  1.5450
15359TIP3    H267493   3.134   6.232   2.547 -1.7737 -1.2547  0.0375
15360TIP3   OH267494   4.581   4.693  12.518 -0.1990  0.6369 -0.4861
15360TIP3    H167495   4.633   4.769  12.544  0.8545  0.6845 -2.5420
15360TIP3    H267496   4.646   4.625  12.500 -1.0709 -0.4107  0.1797
15361TIP3   OH267497   4.272   2.226  13.182  0.2580  0.5093 -0.1406
15361TIP3    H167498   4.233   2.248  13.098  0.1971  0.7626 -0.0465
15361TIP3    H267499   4.344   2.168  13.160  0.5547  0.9710 -0.4088
15362TIP3   OH267500   4.174   2.049   2.711  0.5595 -0.1456  0.4799
15362TIP3    H167501   4.148   2.060   2.620  0.2819 -2.4338  0.2382
15362TIP3    H267502   4.246   1.985   2.708  1.0288  0.2905  1.8113
15363TIP3   OH267503   1.070   0.995   2.132  0.5055 -0.4680 -0.1139
15363TIP3    H167504   1.126   0.927   2.095  0.3467  0.2335 -1.7533
15363TIP3    H267505   1.005   1.011   2.063  0.5105  1.2928  0.2516
15364TIP3   OH267506   3.868   2.474   0.735 -0.3351 -0.3882 -0.5378
15364TIP3    H167507   3.886   2.464   0.642 -0.6966  2.8711 -1.0947
15364TIP3    H267508   3.892   2.565   0.754 -1.1481 -0.6751  2.3436
15365TIP3   OH267509   1.017   4.607   2.639 -0.0233  0.4660  0.3517
15365TIP3    H167510   1.100   4.653   2.650 -0.1026  1.2810 -2.0203
15365TIP3    H267511   1.001   4.606   2.545 -1.9275 -1.1086  0.6060
15366TIP3   OH267512   5.449   6.089  12.190 -0.5438 -0.3179 -0.7339
15366TIP3    H167513   5.505   6.160  12.222 -0.2120 -0.9418  0.1076
15366TIP3    H267514   5.409   6.052  12.269 -2.4173  0.3096 -1.3339
15367TIP3   OH267515   4.185   5.164  11.875  0.2155  0.0921 -0.4208
15367TIP3    H167516   4.263   5.111  11.857  1.0193  1.0439  0.0978
15367TIP3    H267517   4.157   5.196  11.789  0.3941 -0.2705 -0.6130
15368TIP3   OH267518   4.908   2.877  12.780  0.6174 -0.0275  0.8418
15368TIP3    H167519   4.837   2.838  12.730  0.0014 -0.5167  2.0649
15368TIP3    H267520   4.881   2.968  12.794  0.1893 -0.2324  1.3660
15369TIP3   OH267521   1.431   5.088  14.635 -0.3531  0.0621  0.2777
15369TIP3    H167522   1.494   5.016  14.637  0.7289  0.8387 -2.0807
15369TIP3    H267523   1.372   5.067  14.562 -1.2796  0.5946  0.8465
15370TIP3   OH267524   2.868   2.664  12.076  0.4442  0.3484  0.1831
15370TIP3    H167525   2.956   2.629  12.061  0.7933  0.7170  1.2607
15370TIP3    H267526   2.881   2.733  12.142 -0.2586  2.2886 -1.5899
15371TIP3   OH267527   2.669   0.818  14.676  0.0173 -0.3125 -0.8564
15371TIP3    H167528   2.752   0.855  14.646  0.4294  1.3789  2.0024
15371TIP3    H267529   2.683   0.724  14.677  1.8844 -0.0627 -0.5689
15372TIP3   OH267530   6.347   5.672   0.794 -0.0819 -0.0839  0.0556
15372TIP3    H167531   6.287   5.641   0.861  0.3005  1.2726  1.0714
15372TIP3    H267532   6.340   5.607   0.724  1.4371 -3.0338  2.4151
15373TIP3   OH267533   0.257   5.898  16.486 -0.5669 -0.2683 -0.0639
15373TIP3    H167534   0.179   5.845  16.464 -1.4962  1.0928 -0.1747
15373TIP3    H267535   0.324   5.834  16.508 -1.0445 -1.5852 -2.1016
15374TIP3   OH267536   1.737   4.901  11.132  0.0344  0.1341 -0.0773
15374TIP3    H167537   1.660   4.852  11.103  0.3801 -1.1067  1.0156
15374TIP3    H267538   1.748   4.970  11.066 -0.6290 -1.0703 -1.5000
15375TIP3   OH267539   2.771   6.471  13.720 -0.5871 -0.1882 -0.3252
15375TIP3    H167540   2.851   6.434  13.682 -0.2850  0.3858 -0.2652
15375TIP3    H267541   2.730   6.519  13.649 -1.1959 -0.9690 -0.5149
15376TIP3   OH267542   4.587   3.759  14.439  0.1627 -0.4963 -0.4494
15376TIP3    H167543   4.537   3.766  14.358  1.4300 -0.7674 -1.2826
15376TIP3    H267544   4.594   3.849  14.470 -1.4926 -0.5283  0.1193
15377TIP3   OH267545   2.555   0.898   0.440 -0.0188 -0.6101  0.6142
15377TIP3    H167546   2.519   0.982   0.467 -2.6658 -1.5397  0.3052
15377TIP3    H267547   2.562   0.905   0.344 -0.0002 -0.6692  0.6113
15378TIP3   OH267548   1.750   4.261  11.446 -0.1189 -0.5347  0.2658
15378TIP3    H167549   1.760   4.211  11.365 -0.7051 -1.5326  0.7971
15378TIP3    H267550   1.679   4.324  11.427 -1.1275 -1.6033  0.3798
15379TIP3   OH267551   1.959   3.357  14.418  0.7024 -0.0836 -0.0081
15379TIP3    H167552   1.870   3.377  14.389  1.2073  0.8584 -0.9667
15379TIP3    H267553   1.953   3.354  14.514 -0.3047  0.2030 -0.0556
15380TIP3   OH267554   5.478   6.623   4.707  0.1925 -0.1635 -0.2896
15380TIP3    H167555   5.573   6.615   4.714  0.1240  0.1885  1.2578
15380TIP3    H267556   5.465   6.701   4.653  0.7658 -0.0935 -0.3341
15381TIP3   OH267557   0.355   0.489  12.163 -0.1014 -0.3820 -0.2516
15381TIP3    H167558   0.416   0.427  12.122  1.4680 -0.5656  2.1450
15381TIP3    H267559   0.410   0.542  12.220 -1.7886  1.6133 -0.3654
15382TIP3   OH267560   1.403   2.520   2.785  0.2065 -0.2383 -0.2942
15382TIP3    H167561   1.328   2.498   2.839 -0.0123 -0.1633 -0.5669
15382TIP3    H267562   1.449   2.588   2.835 -0.3581  0.3113 -0.5056
15383TIP3   OH267563   5.805   5.394   1.291 -0.0886  0.6633  0.5543
15383TIP3    H167564   5.815   5.464   1.355  0.3758 -0.0444  1.2788
15383TIP3    H267565   5.710   5.379   1.287 -0.5739  3.4669 -2.0122
15384TIP3   OH267566   6.386   6.281   2.787  0.1965  0.4148 -0.1358
15384TIP3    H167567   6.438   6.360   2.772 -0.8617  0.7803 -2.3038
15384TIP3    H267568   6.341   6.297   2.870 -1.7328  3.2061 -1.5251
15385TIP3   OH267569   2.405   4.664   1.014  0.2406  0.1930  0.0104
15385TIP3    H167570   2.367   4.727   1.076  1.1161  0.9346 -0.1725
15385TIP3    H267571   2.330   4.620   0.975 -0.5437  2.3718 -1.1460
15386TIP3   OH267572   5.984   4.190   4.493  0.2362 -0.0185  0.5846
15386TIP3    H167573   5.950   4.158   4.576 -1.2445  1.7777  0.7431
15386TIP3    H267574   5.940   4.136   4.427 -1.9642  1.3321  0.8515
15387TIP3   OH267575   6.157   6.039   4.039  0.2438  0.4845  0.2326
15387TIP3    H167576   6.116   6.100   4.101 -0.0978  1.0311 -0.5109
15387TIP3    H267577   6.093   6.031   3.969  1.2462  1.0693 -0.7807
15388TIP3   OH267578   5.438   2.218   5.337  0.0156 -0.2131  0.2817
15388TIP3    H167579   5.343   2.218   5.348 -0.3089  2.7330 -1.5281
15388TIP3    H267580   5.452   2.173   5.254  0.1925 -0.2983  0.3567
15389TIP3   OH267581   1.168   1.188  14.466  0.2445 -0.4339  0.5685
15389TIP3    H167582   1.114   1.211  14.542  0.2603  1.5806  0.0367
15389TIP3    H267583   1.108   1.193  14.392  0.8647  0.7203  0.1105
15390TIP3   OH267584   0.418   1.297  13.159  0.0756 -0.2394  0.3717
15390TIP3    H167585   0.328   1.266  13.165  0.3161 -0.9128  0.6537
15390TIP3    H267586   0.462   1.258  13.234 -0.0162  2.2952  1.8581
15391TIP3   OH267587   1.137   2.234   1.530  0.0538  0.1779 -0.0663
15391TIP3    H167588   1.131   2.169   1.600  0.0985  0.3454  0.0940
15391TIP3    H267589   1.162   2.183   1.453  1.3677  0.1677  0.3361
15392TIP3   OH267590   0.688   0.466   5.372 -0.1091 -0.3511 -0.4596
15392TIP3    H167591   0.641   0.476   5.455  2.8544 -0.8883  1.4537
15392TIP3    H267592   0.653   0.385   5.334 -0.6785 -0.7656  0.8914
15393TIP3   OH267593   5.894   5.000  13.416  0.0909 -0.2721  0.1466
15393TIP3    H167594   5.929   5.033  13.499 -2.6527 -2.3734  2.3163
15393TIP3    H267595   5.818   5.054  13.398 -0.6410 -1.2419  0.2529
15394TIP3   OH267596   5.409   2.226   0.149 -0.2872 -0.5020  0.2129
15394TIP3    H167597   5.497   2.199   0.127 -0.4813  0.3809 -1.8455
15394TIP3    H267598   5.387   2.294   0.085 -2.3467 -0.4874  0.8367
15395TIP3   OH267599   4.200   2.531  12.174  0.4546  0.0046  0.0209
15395TIP3    H167600   4.273   2.585  12.206  1.2572 -0.0155 -1.6803
15395TIP3    H267601   4.178   2.474  12.247 -0.0441  2.2073  1.7096
15396TIP3   OH267602   0.462   5.302   4.159 -0.0149 -0.2631  0.4095
15396TIP3    H167603   0.373   5.334   4.175 -0.0050 -0.3370  0.6162
15396TIP3    H267604   0.508   5.316   4.242  0.5188  0.9155 -0.0693
15397TIP3   OH267605   4.509   2.585  12.664  0.5554 -0.4103  0.2119
15397TIP3    H167606   4.602   2.568  12.673  0.8580  0.4023 -1.0463
15397TIP3    H267607   4.496   2.600  12.570 -0.8784 -0.7059  0.3265
15398TIP3   OH267608   6.056   0.562  14.384 -0.6251 -0.1963 -0.0794
15398TIP3    H167609   6.112   0.520  14.319  2.8167  2.8291  0.6118
15398TIP3    H267610   6.104   0.554  14.467 -0.6815  3.1490  0.4353
15399TIP3   OH267611   3.682   3.629  14.846 -0.4591 -0.8546  0.4703
15399TIP3    H167612   3.746   3.677  14.898  1.5080 -1.7947 -0.9473
15399TIP3    H267613   3.637   3.573  14.910  0.1681 -0.2374  1.4935
15400TIP3   OH267614   1.860   0.372  15.104  0.0607  0.2301 -0.0720
15400TIP3    H167615   1.846   0.361  15.198  0.9953  2.2872  0.3685
15400TIP3    H267616   1.851   0.284  15.068 -0.7461 -0.5495  1.8663
15401TIP3   OH267617   5.924   1.464  13.585 -0.0768 -0.2940 -0.2339
15401TIP3    H167618   5.913   1.460  13.490  0.1596 -0.2923 -0.2628
15401TIP3    H267619   5.989   1.397  13.604 -2.3204 -2.4721  0.2842
15402TIP3   OH267620   5.096   1.304  12.278 -0.2574  0.1514  0.5515
15402TIP3    H167621   5.121   1.379  12.225  0.0156  1.0171  1.8522
15402TIP3    H267622   5.170   1.244  12.271  1.7431  2.0479  3.1725
15403TIP3   OH267623   1.866   6.027   4.775 -0.3649 -0.1299 -0.5877
15403TIP3    H167624   1.874   6.120   4.753 -1.0317 -0.0630 -0.5633
15403TIP3    H267625   1.918   5.982   4.709  1.3391  0.3557  0.3635
15404TIP3   OH267626   1.747   5.261  16.919  0.1670 -0.0844  0.2181
15404TIP3    H167627   1.754   5.299  16.831  2.1605 -0.0138  0.3679
15404TIP3    H267628   1.726   5.335  16.976  0.0343  0.0829 -0.0479
15405TIP3   OH267629   1.793   3.434  12.275 -0.6358 -0.1787 -0.1856
15405TIP3    H167630   1.877   3.400  12.246 -0.7906 -0.6859 -0.0560
15405TIP3    H267631   1.810   3.525  12.298 -0.4112  0.0916 -1.3842
15406TIP3   OH267632   3.918   3.709   4.047  0.0836  0.2610  0.0375
15406TIP3    H167633   3.908   3.801   4.025  0.1731  0.3086  0.1980
15406TIP3    H267634   3.842   3.666   4.007 -1.6443  0.8351  2.5233
15407TIP3   OH267635   4.308   0.380  12.434 -0.0603 -0.3940 -0.4930
15407TIP3    H167636   4.320   0.426  12.351 -1.5807  3.2383  1.0947
15407TIP3    H267637   4.214   0.367  12.441 -0.1612  1.0959  1.4459
15408TIP3   OH267638   2.519   4.162   0.480  0.7558 -0.1711  0.2383
15408TIP3    H167639   2.434   4.161   0.524  0.3431  1.6854 -0.4282
15408TIP3    H267640   2.499   4.142   0.389  1.1680 -0.6886  0.2601
15409TIP3   OH267641   3.089   5.274   4.970 -0.2466  0.2102  0.0433
15409TIP3    H167642   3.086   5.273   4.874 -1.7462 -2.8293  0.0029
15409TIP3    H267643   3.182   5.280   4.991  0.5797 -3.5761 -1.7993
15410TIP3   OH267644   1.351   3.325  11.492 -0.5197  0.1168 -0.0437
15410TIP3    H167645   1.398   3.246  11.517 -0.8535  0.2227  0.9530
15410TIP3    H267646   1.419   3.391  11.478 -0.2679 -0.2261 -0.4645
15411TIP3   OH267647   3.217   2.791  16.267  0.1115 -0.4384  0.2596
15411TIP3    H167648   3.251   2.753  16.348 -0.6825 -1.8818 -0.0440
15411TIP3    H267649   3.280   2.764  16.200 -0.1956 -0.8163  0.1191
15412TIP3   OH267650   4.127   2.172  15.287 -0.3015  0.5548 -0.5297
15412TIP3    H167651   4.095   2.238  15.349 -0.1465  1.2699 -1.1918
15412TIP3    H267652   4.058   2.106  15.285  0.8046 -0.8707  2.3856
15413TIP3   OH267653   0.804   2.715   5.544 -0.1675 -0.0134 -0.4164
15413TIP3    H167654   0.894   2.732   5.515  0.0723  0.4858  0.5891
15413TIP3    H267655   0.754   2.792   5.516 -0.4627 -0.6256 -1.6508
15414TIP3   OH267656   5.292   2.484  17.065 -0.5208  0.3101 -0.1859
15414TIP3    H167657   5.342   2.487  17.147 -2.3626  1.6785  0.9717
15414TIP3    H267658   5.331   2.553  17.010  1.2762 -1.1763 -0.8765
15415TIP3   OH267659   1.799   0.943  10.775  0.1170 -0.1034 -0.6523
15415TIP3    H167660   1.762   0.858  10.752  0.8113 -0.3304 -0.9514
15415TIP3    H267661   1.765   1.003  10.709 -0.3838 -0.1369 -0.4336
15416TIP3   OH267662   6.526   1.765  15.405 -0.5783  0.1260 -0.1147
15416TIP3    H167663   6.434   1.756  15.429 -0.5491  0.7985  0.2529
15416TIP3    H267664   6.562   1.828  15.467  0.1590 -0.2057 -0.1916
15417TIP3   OH267665   5.715   2.482  14.697 -0.5103 -0.4788  0.5107
15417TIP3    H167666   5.719   2.482  14.601 -0.4721  0.3448  0.5094
15417TIP3    H267667   5.764   2.559  14.724 -0.4160 -0.7704  1.2056
15418TIP3   OH267668   5.455   1.155   0.847  0.7525  0.3249  0.0774
15418TIP3    H167669   5.546   1.171   0.870  1.0550 -0.8490 -0.2402
15418TIP3    H267670   5.445   1.060   0.852  0.1112  0.2277 -1.9137
15419TIP3   OH267671   0.370   2.348   3.280  0.1662  0.2439  0.4056
15419TIP3    H167672   0.365   2.363   3.375  1.5032 -2.0345  0.9295
15419TIP3    H267673   0.422   2.421   3.247  0.5833  0.5277  1.6169
15420TIP3   OH267674   0.044   5.947   0.705 -0.2596  0.3246  0.0084
15420TIP3    H167675   0.001   6.018   0.753  1.1564  1.4689 -0.3670
15420TIP3    H267676  -0.027   5.886   0.684 -1.4962  1.5960  0.3663
15421TIP3   OH267677   1.664   6.153  12.868  1.0386 -0.3221  0.7300
15421TIP3    H167678   1.712   6.177  12.948  1.0148 -0.3476  0.7519
15421TIP3    H267679   1.644   6.237  12.826 -1.0855 -0.0994  1.9826
15422TIP3   OH267680   3.697   3.084  13.339 -0.6666 -0.1437  0.0199
15422TIP3    H167681   3.644   3.004  13.346 -0.5090 -0.3394 -0.8511
15422TIP3    H267682   3.705   3.115  13.429  0.5056 -1.9001  0.5698
15423TIP3   OH267683   1.543   3.338   0.779  0.2125 -0.0999  0.0650
15423TIP3    H167684   1.519   3.411   0.723 -0.6593 -0.0269  0.5219
15423TIP3    H267685   1.509   3.261   0.734 -2.0122  0.0998  1.2663
15424TIP3   OH267686   4.519   4.406  11.963 -0.4526 -0.0172 -0.1006
15424TIP3    H167687   4.566   4.463  12.024  1.9169 -1.4360 -0.4772
15424TIP3    H267688   4.563   4.322  11.970 -2.5782 -1.2758 -1.0233
15425TIP3   OH267689   1.021   5.904   5.497 -0.2160 -0.7250  0.1430
15425TIP3    H167690   0.978   5.928   5.415 -0.2812  3.2496  1.1475
15425TIP3    H267691   1.103   5.862   5.470 -0.5699 -0.1902 -1.9239
15426TIP3   OH267692   4.065   0.924  13.012  0.1376  0.3479  0.0033
15426TIP3    H167693   4.115   0.997  12.976 -0.6166  0.0010 -1.8547
15426TIP3    H267694   3.986   0.963  13.049  0.0311  0.5455 -0.4291
15427TIP3   OH267695   3.862   2.011   1.202 -0.4357 -0.0586 -0.2869
15427TIP3    H167696   3.863   2.012   1.298 -1.5848  1.6209 -0.2435
15427TIP3    H267697   3.894   1.924   1.179  0.0208 -0.4569  1.6100
15428TIP3   OH267698   0.860   5.304  13.999 -0.0229  0.6315  0.2008
15428TIP3    H167699   0.864   5.230  14.060 -2.5068  0.5860  0.4277
15428TIP3    H267700   0.826   5.266  13.918 -0.0317  1.2958 -0.1125
15429TIP3   OH267701   5.007   1.131  17.085 -0.7764 -0.2719  0.1198
15429TIP3    H167702   5.086   1.122  17.033 -0.0164  0.1779  1.1619
15429TIP3    H267703   5.011   1.220  17.120 -0.8234 -0.8340  1.6400
15430TIP3   OH267704   2.415   5.762  12.679 -0.0675  0.0510 -0.5900
15430TIP3    H167705   2.391   5.682  12.726  2.2494 -0.4400 -0.1466
15430TIP3    H267706   2.391   5.743  12.588 -1.6311 -0.2259 -0.1572
15431TIP3   OH267707   3.825   5.738  13.473  0.1304 -0.2570  0.2788
15431TIP3    H167708   3.801   5.806  13.410 -3.2833 -0.7412  0.8767
15431TIP3    H267709   3.888   5.780  13.531  0.7028  1.2723 -1.3577
15432TIP3   OH267710   0.169   4.840  11.945  0.3130 -0.6388  0.3833
15432TIP3    H167711   0.240   4.895  11.977  0.1204 -0.2352  0.1189
15432TIP3    H267712   0.149   4.874  11.858 -0.5558 -0.4140  0.6618
15433TIP3   OH267713   6.370   5.017  14.068  0.3561 -0.5975  0.3413
15433TIP3    H167714   6.342   5.049  13.982  2.0429  3.9442  1.1939
15433TIP3    H267715   6.456   4.979  14.053  0.0573 -1.1002 -0.1471
15434TIP3   OH267716   3.078   3.825  13.157  0.6180  0.0529  0.6166
15434TIP3    H167717   3.061   3.855  13.067  0.8480 -0.7082  0.3059
15434TIP3    H267718   3.082   3.905  13.209 -2.0615  0.4354  0.4141
15435TIP3   OH267719   0.036   6.503  13.736  0.2234  0.1831  0.0188
15435TIP3    H167720  -0.059   6.503  13.729  0.2740 -0.1187 -0.7559
15435TIP3    H267721   0.060   6.410  13.744  0.5153  0.1767 -0.8296
15436TIP3   OH267722   5.441   3.456  11.333 -0.5075  0.1079 -0.5334
15436TIP3    H167723   5.410   3.517  11.266 -0.4753 -0.9613 -1.5678
15436TIP3    H267724   5.365   3.399  11.349  0.0639 -0.8347 -1.0885
15437TIP3   OH267725   0.481   3.082  12.803  0.0350  0.1928 -0.3064
15437TIP3    H167726   0.515   3.166  12.834  0.2310 -0.0239  0.0750
15437TIP3    H267727   0.544   3.053  12.738  0.9580 -0.5244  0.8746
15438TIP3   OH267728   6.772   0.953   5.237 -0.2470 -0.1088  0.1515
15438TIP3    H167729   6.811   0.922   5.155 -1.1211  1.3136 -0.8577
15438TIP3    H267730   6.786   1.048   5.235 -0.7481  0.0065  1.4010
15439TIP3   OH267731   2.988   3.202   2.972  0.2563 -0.2005 -0.1228
15439TIP3    H167732   3.080   3.228   2.980  0.3897 -0.7739  0.2264
15439TIP3    H267733   2.983   3.155   2.888  0.6329 -1.5866  0.6033
15440TIP3   OH267734   6.728   0.956   0.850 -0.0645  0.1066 -0.4827
15440TIP3    H167735   6.640   0.923   0.864 -0.6463  1.5711 -0.5003
15440TIP3    H267736   6.760   0.908   0.774 -0.2736 -1.4731  0.3867
15441TIP3   OH267737   2.558   3.347   1.689  0.0079 -0.2553 -0.3208
15441TIP3    H167738   2.483   3.403   1.708  0.2309 -0.0590 -0.0004
15441TIP3    H267739   2.632   3.391   1.730  0.3078 -0.4252 -0.6704
15442TIP3   OH267740   5.377   2.969   2.370 -0.2062 -0.7506 -0.0930
15442TIP3    H167741   5.448   2.965   2.434  0.7581  2.1902 -0.8257
15442TIP3    H267742   5.303   2.928   2.414  1.1334 -1.2480  1.8370
15443TIP3   OH267743   2.062   4.691  14.290 -0.1519  0.0920 -0.7904
15443TIP3    H167744   2.002   4.746  14.341 -1.3333 -0.9201 -1.0207
15443TIP3    H267745   2.098   4.749  14.223 -0.1379  0.9552 -0.0483
15444TIP3   OH267746   3.963   3.621   3.635 -0.2679 -0.3728 -0.4154
15444TIP3    H167747   3.903   3.660   3.571 -0.5867 -2.4646 -1.4863
15444TIP3    H267748   3.913   3.548   3.672  0.0411  0.5602  2.0289
15445TIP3   OH267749   4.655   2.681   5.569  0.0920 -0.2418  0.3520
15445TIP3    H167750   4.637   2.697   5.476  0.6163  0.1281  0.3082
15445TIP3    H267751   4.582   2.627   5.599 -1.1478  1.2747  0.2007
15446TIP3   OH267752   2.160   3.874   6.673  0.1690  0.3036 -0.3981
15446TIP3    H167753   2.178   3.967   6.660 -0.7941  0.4068 -1.0572
15446TIP3    H267754   2.219   3.848   6.744 -1.6278  2.0890  1.8975
15447TIP3   OH267755   4.900   4.816   3.388  0.3191  0.1145 -0.0844
15447TIP3    H167756   4.812   4.817   3.349  0.5933 -0.8523 -0.7687
15447TIP3    H267757   4.898   4.741   3.448  0.6200  0.1918  0.0195
15448TIP3   OH267758   2.371   3.659   2.648  0.3976  0.1138  0.2546
15448TIP3    H167759   2.355   3.708   2.728 -0.7304 -0.5900  0.4809
15448TIP3    H267760   2.340   3.717   2.577 -0.1284  0.0771  0.4524
15449TIP3   OH267761   1.296   5.110  11.435 -0.2294 -0.0278 -0.2272
15449TIP3    H167762   1.291   5.051  11.360  0.2147  0.7136 -0.8573
15449TIP3    H267763   1.314   5.196  11.397  1.3928  0.1322  0.7977
15450TIP3   OH267764   0.022   6.189  17.197 -0.1780 -0.5981 -0.1456
15450TIP3    H167765   0.010   6.108  17.247 -3.9003 -0.9738 -1.3519
15450TIP3    H267766   0.049   6.160  17.110 -2.4249 -0.7147 -0.8548
15451TIP3   OH267767   2.904   6.429   2.486 -0.2725  0.2059 -0.0882
15451TIP3    H167768   2.912   6.515   2.446 -0.7742  0.2279 -0.1455
15451TIP3    H267769   2.945   6.438   2.572 -2.8898  1.3600  1.1634
15452TIP3   OH267770   2.135   1.649  14.756  0.2751 -0.0691 -0.2517
15452TIP3    H167771   2.056   1.654  14.702 -0.6287  1.6488  1.1225
15452TIP3    H267772   2.102   1.639  14.845  1.5796  1.1602  0.4021
15453TIP3   OH267773   0.484   2.220  14.346 -0.1273 -0.0666 -0.2239
15453TIP3    H167774   0.524   2.288  14.291  2.1857 -0.0679  1.3151
15453TIP3    H267775   0.410   2.264  14.387 -0.9128  0.4003 -2.0426
15454TIP3   OH267776   6.284   2.705  11.964 -0.1631 -0.1350 -0.3278
15454TIP3    H167777   6.210   2.692  12.024  0.1372  1.8039  0.5354
15454TIP3    H267778   6.244   2.709  11.878 -0.8090 -1.1820 -0.0995
15455TIP3   OH267779   3.746   4.098  15.700  0.1150 -0.1590  0.7577
15455TIP3    H167780   3.792   4.059  15.625 -0.3376 -0.4056  0.6061
15455TIP3    H267781   3.813   4.150  15.744  1.1191 -2.1578  1.7252
15456TIP3   OH267782   2.203   1.833   2.945 -0.3997  0.3944 -0.9048
15456TIP3    H167783   2.279   1.889   2.965  0.6890 -1.6055  0.9689
15456TIP3    H267784   2.226   1.788   2.864 -0.6578  1.5246 -1.6295
15457TIP3   OH267785   5.983   0.302  12.540 -0.3520 -0.4025 -0.3631
15457TIP3    H167786   6.058   0.248  12.564  0.6887  0.1167 -2.2485
15457TIP3    H267787   5.921   0.291  12.612  1.1561 -1.5543  0.8123
15458TIP3   OH267788   2.035   4.892   0.489  0.3203 -0.0521  0.1765
15458TIP3    H167789   2.056   4.809   0.446  0.6474  0.2469 -0.2529
15458TIP3    H267790   2.116   4.943   0.484 -0.1561  0.6798 -0.4723
15459TIP3   OH267791   2.672   5.510   3.643 -0.1071 -0.0890 -0.4445
15459TIP3    H167792   2.726   5.528   3.720 -1.4442  1.1623  0.2630
15459TIP3    H267793   2.656   5.416   3.646 -0.0728 -0.0704  0.7729
15460TIP3   OH267794   5.931   2.904   6.750  0.3143  0.1240 -0.1670
15460TIP3    H167795   6.012   2.854   6.741 -0.0183 -0.3398 -0.6793
15460TIP3    H267796   5.873   2.847   6.800  0.5887  0.8205  0.9960
15461TIP3   OH267797   3.910   0.538   0.811 -0.5142 -0.4198 -0.5996
15461TIP3    H167798   3.842   0.505   0.869  0.0335 -2.4021 -1.0090
15461TIP3    H267799   3.962   0.461   0.788  0.5686  0.6648 -2.0217
15462TIP3   OH267800   1.337   2.393  10.775  0.0954 -0.1349 -1.4220
15462TIP3    H167801   1.259   2.448  10.771  0.4664  0.8339  1.8275
15462TIP3    H267802   1.409   2.452  10.751  0.1096 -0.2573 -1.6801
15463TIP3   OH267803   4.653   3.140   5.770  0.0377  0.5355 -0.7959
15463TIP3    H167804   4.564   3.105   5.762  0.3646 -0.7805  0.7583
15463TIP3    H267805   4.651   3.224   5.724 -2.4118  1.2544  0.4793
15464TIP3   OH267806   0.359   4.937  13.751  0.1652 -0.6425  0.2603
15464TIP3    H167807   0.430   4.882  13.786  2.5934  0.9584 -1.8445
15464TIP3    H267808   0.336   4.897  13.668  0.1947  0.0939 -0.1124
15465TIP3   OH267809   4.821   1.256   0.661  0.1142 -0.1102  0.3829
15465TIP3    H167810   4.760   1.188   0.690  1.5818 -1.3498  0.6404
15465TIP3    H267811   4.901   1.209   0.638  0.3847  1.2711 -1.7717
15466TIP3   OH267812   4.667   3.847   3.156  0.0114  0.0767  0.1499
15466TIP3    H167813   4.678   3.878   3.246  0.6109 -0.3670  0.2363
15466TIP3    H267814   4.583   3.801   3.157 -1.0199  1.8710 -0.0391
15467TIP3   OH267815   3.705   2.013   5.619 -0.3622  0.1974  0.8159
15467TIP3    H167816   3.652   2.064   5.558 -0.7786 -1.2582 -0.1008
15467TIP3    H267817   3.643   1.952   5.660  0.3389 -0.5817  0.7641
15468TIP3   OH267818   2.547   0.613   2.185 -0.0523  0.0164  0.2221
15468TIP3    H167819   2.621   0.558   2.160 -1.2008 -1.1314 -0.8149
15468TIP3    H267820   2.471   0.572   2.144 -1.0386  2.1910 -0.2997
15469TIP3   OH267821   1.953   3.086  12.839 -0.5357 -0.2367  0.0769
15469TIP3    H167822   1.902   3.077  12.919  0.7169 -2.9058  0.7142
15469TIP3    H267823   2.005   3.165  12.851 -2.6203  1.1302  0.4741
15470TIP3   OH267824   3.178   0.884   5.776 -0.1641 -0.4846  0.0345
15470TIP3    H167825   3.181   0.966   5.727  0.2393 -1.0963 -1.0112
15470TIP3    H267826   3.267   0.848   5.767 -0.2787 -0.9390  0.6474
15471TIP3   OH267827   3.061   0.891   4.415  0.4491  0.1709  0.6317
15471TIP3    H167828   3.085   0.818   4.358  2.3137  1.6191 -0.5435
15471TIP3    H267829   3.036   0.850   4.498  0.0320 -1.8513 -0.4490
15472TIP3   OH267830   5.809   6.482  12.207  0.0849  0.0217  0.3416
15472TIP3    H167831   5.874   6.515  12.270  0.7011 -1.0807  0.3093
15472TIP3    H267832   5.860   6.461  12.129 -0.6364  1.1218 -0.4659
15473TIP3   OH267833   0.008   3.827   5.227 -0.0574  0.4089  0.2226
15473TIP3    H167834  -0.020   3.857   5.141  0.4809  1.1244  0.2876
15473TIP3    H267835   0.104   3.823   5.221  0.0794  1.6750  1.1625
15474TIP3   OH267836   5.707   5.972  12.774  0.0461 -0.5430 -0.0042
15474TIP3    H167837   5.802   5.985  12.769 -0.0389 -0.0178 -0.2596
15474TIP3    H267838   5.678   5.973  12.683 -0.1498 -1.1521  0.0429
15475TIP3   OH267839   1.638   0.368  16.102 -0.2326 -0.1744 -0.1481
15475TIP3    H167840   1.584   0.447  16.109  0.2533  0.1216  0.4836
15475TIP3    H267841   1.584   0.305  16.056 -0.6460  0.5242 -0.6370
15476TIP3   OH267842   1.013   6.603   5.081 -0.0010 -0.0536  0.1423
15476TIP3    H167843   1.045   6.527   5.032  2.5632  1.0069  0.0057
15476TIP3    H267844   1.036   6.678   5.026  0.7079  1.0169  1.8153
15477TIP3   OH267845   5.837   1.145  15.396  0.1903  0.0618  0.0917
15477TIP3    H167846   5.830   1.239  15.414  1.0291  0.4149 -1.3192
15477TIP3    H267847   5.930   1.126  15.400  0.0658 -0.6178 -0.0688
15478TIP3   OH267848   1.791   3.381  15.216 -0.6178 -0.2222  0.3121
15478TIP3    H167849   1.805   3.469  15.181 -2.9998  0.2581  0.4060
15478TIP3    H267850   1.770   3.328  15.139 -1.1733 -0.2465  0.4795
15479TIP3   OH267851   0.306   5.749  11.732  0.2481  0.0989 -0.4152
15479TIP3    H167852   0.234   5.695  11.701  1.6139 -1.2323 -1.4656
15479TIP3    H267853   0.353   5.774  11.653 -1.0538  4.0949 -0.1281
15480TIP3   OH267854   4.726   0.587  13.327 -0.1906 -0.0272 -0.0941
15480TIP3    H167855   4.769   0.667  13.296  0.7957 -0.4601  0.1093
15480TIP3    H267856   4.797   0.524  13.334 -0.8268 -0.6816  0.5571
15481TIP3   OH267857   6.704   3.723   4.113 -0.2376 -0.6683  0.3447
15481TIP3    H167858   6.770   3.668   4.156 -0.5030 -0.6222  0.8174
15481TIP3    H267859   6.621   3.693   4.150 -0.3920 -0.0241  0.5300
15482TIP3   OH267860   4.146   3.481  16.354  0.0784 -0.2910 -0.3627
15482TIP3    H167861   4.086   3.462  16.426 -1.5523 -0.4008 -1.6992
15482TIP3    H267862   4.208   3.407  16.355 -0.8179 -1.0650  0.0205
15483TIP3   OH267863   1.562   6.438   3.102 -0.3539  0.5153  0.0284
15483TIP3    H167864   1.599   6.476   3.023  0.9273  0.8114  0.7435
15483TIP3    H267865   1.561   6.344   3.086 -0.2110  0.5821 -0.3786
15484TIP3   OH267866   3.781   2.740  12.100  0.3660 -0.0630 -0.2908
15484TIP3    H167867   3.691   2.761  12.121  0.0117 -0.2536 -1.5342
15484TIP3    H267868   3.777   2.655  12.057  0.9706  0.4640 -1.4591
15485TIP3   OH267869   5.793   2.429   3.020  0.4039  0.4535 -0.0537
15485TIP3    H167870   5.875   2.466   3.054 -0.5879  1.8192  0.9374
15485TIP3    H267871   5.787   2.343   3.061  2.7704 -0.9940 -2.4140
15486TIP3   OH267872   5.945   6.047   3.563 -0.2277  0.1362 -0.2597
15486TIP3    H167873   5.920   6.119   3.505 -2.5055 -0.1638  0.2557
15486TIP3    H267874   5.861   6.008   3.590  0.8473 -1.0139  1.6038
15487TIP3   OH267875   6.573   3.791   5.694 -0.2769 -0.0131  0.6495
15487TIP3    H167876   6.613   3.799   5.781 -0.5262  2.1382  0.6243
15487TIP3    H267877   6.642   3.815   5.633 -0.6877  0.5934  0.4098
15488TIP3   OH267878   2.899   3.063  14.214  0.4930 -0.1645  0.0560
15488TIP3    H167879   2.866   3.132  14.272 -1.4268  0.2098 -1.3736
15488TIP3    H267880   2.993   3.062  14.229  0.3751  1.7214  1.2379
15489TIP3   OH267881   6.480   0.435   3.043 -0.3257 -0.6923 -0.1998
15489TIP3    H167882   6.499   0.352   3.085  0.3435 -0.7961 -0.6874
15489TIP3    H267883   6.557   0.453   2.989  0.9927  1.7614  2.2393
15490TIP3   OH267884   2.841   4.099   1.993 -0.1323 -0.0841  0.2274
15490TIP3    H167885   2.909   4.159   1.962 -1.4148  0.9137 -0.7364
15490TIP3    H267886   2.829   4.037   1.921  1.5188 -1.8846  1.3917
15491TIP3   OH267887   1.358   6.183  11.905 -0.0821 -0.0307  0.0949
15491TIP3    H167888   1.289   6.190  11.839 -0.0425 -2.6866 -0.3388
15491TIP3    H267889   1.332   6.244  11.974 -1.7883  0.4790 -0.9472
15492TIP3   OH267890   1.081   0.910   4.866 -0.8221 -0.0626  0.0376
15492TIP3    H167891   1.144   0.874   4.928  2.0542  3.8818 -0.1954
15492TIP3    H267892   1.021   0.961   4.920 -1.9004 -1.1969 -0.0416
15493TIP3   OH267893   2.564   1.641  12.026  0.1826 -0.5797 -0.5691
15493TIP3    H167894   2.471   1.660  12.014  0.5041  3.2905  1.5552
15493TIP3    H267895   2.567   1.583  12.102 -0.5350  2.2423  1.7935
15494TIP3   OH267896   3.654   4.056   4.853  0.5404  0.5193 -0.4821
15494TIP3    H167897   3.603   3.978   4.830  0.2033  0.4336  0.5151
15494TIP3    H267898   3.652   4.110   4.775 -2.9076  1.5271  0.1571
15495TIP3   OH267899   4.535   1.608  14.407 -0.4478 -0.6433 -0.1341
15495TIP3    H167900   4.558   1.700  14.419 -1.1110 -0.4036 -0.6272
15495TIP3    H267901   4.479   1.587  14.482  0.4415 -0.9130  0.4696
15496TIP3   OH267902   2.982   1.871  14.153  0.1046  0.1232  0.6367
15496TIP3    H167903   2.992   1.776  14.146 -0.0250 -0.0179  2.0484
15496TIP3    H267904   2.904   1.882  14.207 -0.8179  1.0658 -0.8267
15497TIP3   OH267905   2.602   1.130  13.362 -0.0632 -0.1427 -0.3334
15497TIP3    H167906   2.586   1.188  13.288 -1.5512  0.1004  0.1326
15497TIP3    H267907   2.697   1.120  13.365  0.1099  0.9209 -1.4432
15498TIP3   OH267908   3.439   6.732  11.107  0.4988  0.2446  0.0057
15498TIP3    H167909   3.385   6.656  11.084 -0.9385  0.7298  1.5995
15498TIP3    H267910   3.522   6.717  11.060  0.2991 -2.3250  0.3148
15499TIP3   OH267911   0.070   1.585  12.379  0.4531  0.0504  0.2130
15499TIP3    H167912   0.025   1.531  12.314  1.1505 -0.4417  0.1280
15499TIP3    H267913   0.010   1.588  12.453 -0.2978  0.5150 -0.3956
15500TIP3   OH267914   2.589   0.236   5.374 -0.1472 -0.3700 -0.1170
15500TIP3    H167915   2.684   0.225   5.370 -0.0967  0.2932 -2.0738
15500TIP3    H267916   2.556   0.189   5.297 -1.1617  1.3163 -0.7733
15501TIP3   OH267917   3.522   2.124   2.941  0.2096  0.1426 -0.0661
15501TIP3    H167918   3.544   2.217   2.952  0.3972 -0.0528  1.5199
15501TIP3    H267919   3.599   2.077   2.972  0.9627 -0.6155 -2.8086
15502TIP3   OH267920   1.303   0.020  11.917  0.0640  0.2876 -1.0185
15502TIP3    H167921   1.362  -0.051  11.891 -1.3058 -1.5133  0.5195
15502TIP3    H267922   1.262   0.047  11.834 -1.1858 -2.4739 -1.4302
15503TIP3   OH267923   2.960   4.166  11.800 -0.4576  0.3292 -0.0671
15503TIP3    H167924   2.969   4.159  11.895  1.5219 -0.5612 -0.2817
15503TIP3    H267925   2.877   4.212  11.788 -0.9391  0.1376  2.0727
15504TIP3   OH267926   1.606   1.853  10.513  0.0831 -0.0048  0.2315
15504TIP3    H167927   1.539   1.789  10.536 -0.9283  0.6631 -0.7513
15504TIP3    H267928   1.588   1.929  10.569 -1.3627  0.9901 -1.4588
15505TIP3   OH267929   2.824   2.518   2.506 -0.0013  0.3810 -0.4655
15505TIP3    H167930   2.871   2.554   2.432  1.2373 -2.0454 -0.9630
15505TIP3    H267931   2.822   2.423   2.490 -1.6568  0.0017  1.4898
15506TIP3   OH267932   2.147   5.607   5.315  0.0384 -0.6502  0.1258
15506TIP3    H167933   2.082   5.633   5.250  0.6248 -1.0586 -0.6493
15506TIP3    H267934   2.096   5.587   5.393 -0.8487 -1.6198 -0.6659
15507TIP3   OH267935   4.363   5.852  13.893  0.4962 -0.4991 -0.0072
15507TIP3    H167936   4.300   5.916  13.926 -1.6585 -2.6102  0.2632
15507TIP3    H267937   4.435   5.853  13.956  0.3968  1.3987  0.1301
15508TIP3   OH267938   0.843   4.291   0.507 -0.6967 -0.0592  0.0223
15508TIP3    H167939   0.885   4.286   0.422 -0.7024 -2.5506  0.1167
15508TIP3    H267940   0.893   4.232   0.563 -1.9755 -0.0938  1.1889
15509TIP3   OH267941   0.321   0.065   0.277  0.0845 -0.4538 -0.3031
15509TIP3    H167942   0.319   0.107   0.192  2.2498 -0.5136 -0.4369
15509TIP3    H267943   0.397   0.103   0.321 -0.5090 -1.0183  1.2923
15510TIP3   OH267944   3.444   2.241  12.110 -0.3101 -0.6469  0.2002
15510TIP3    H167945   3.431   2.306  12.042 -0.4053 -0.8452  0.0284
15510TIP3    H267946   3.454   2.292  12.191  0.4869 -0.3841 -0.0644
15511TIP3   OH267947   4.712   3.849  11.726  0.2988 -0.2977  0.7564
15511TIP3    H167948   4.769   3.840  11.803  0.4140  0.3825  0.7553
15511TIP3    H267949   4.630   3.884  11.762  0.2771 -0.1885  0.5983
15512TIP3   OH267950   2.107   3.803  15.836  0.2883  0.1493  0.0548
15512TIP3    H167951   2.078   3.766  15.753 -1.0961 -0.7735  0.9305
15512TIP3    H267952   2.131   3.728  15.890 -1.9861  0.4485  1.6383
15513TIP3   OH267953   3.911   5.084   0.694 -0.3159 -0.4013 -0.1076
15513TIP3    H167954   3.991   5.058   0.739 -0.0645  1.1327  0.4150
15513TIP3    H267955   3.919   5.179   0.685 -2.0072 -0.2394 -0.2020
15514TIP3   OH267956   1.130   0.268  13.933  0.6504 -0.0310  0.0160
15514TIP3    H167957   1.098   0.184  13.903 -0.0666  0.8279 -1.7514
15514TIP3    H267958   1.073   0.291  14.007 -1.1196  0.2192 -1.3539
15515TIP3   OH267959   4.617   1.432   3.180 -0.1602  0.5308 -0.0071
15515TIP3    H167960   4.627   1.527   3.175 -0.5417  0.5163 -1.3070
15515TIP3    H267961   4.624   1.402   3.089  2.6432 -0.9950  0.5967
15516TIP3   OH267962   0.959   4.428  13.439  0.0433  0.0631  0.4673
15516TIP3    H167963   0.944   4.502  13.380  0.3552  0.3700  0.7686
15516TIP3    H267964   1.032   4.380  13.400 -1.2893 -1.1247 -0.7072
15517TIP3   OH267965   6.112   1.176  13.024 -0.1883  0.3785 -0.0478
15517TIP3    H167966   6.208   1.173  13.030 -0.2631  0.0653  1.9039
15517TIP3    H267967   6.086   1.084  13.022 -0.4548  0.4652 -0.6324
15518TIP3   OH267968   2.989   3.878   0.923  0.2902 -0.2392 -0.6313
15518TIP3    H167969   2.977   3.888   1.017  2.2121  0.9046 -0.4488
15518TIP3    H267970   2.998   3.783   0.910 -0.2291 -0.4242  0.2806
15519TIP3   OH267971   0.111   6.682   6.330 -0.3440  0.2667  0.7078
15519TIP3    H167972   0.192   6.632   6.324  0.0530  0.8773  0.8202
15519TIP3    H267973   0.140   6.774   6.328 -1.1628  0.5354 -1.5405
15520TIP3   OH267974   6.575   1.241   5.119 -0.4824 -0.0505  0.0422
15520TIP3    H167975   6.531   1.246   5.204 -0.2179  0.7199  0.1401
15520TIP3    H267976   6.667   1.223   5.140 -0.3767  0.3473 -0.0673
15521TIP3   OH267977   3.996   2.101   1.417  0.1146 -0.0078  0.0105
15521TIP3    H167978   4.031   2.162   1.352  0.9844 -0.1787  0.3016
15521TIP3    H267979   4.009   2.145   1.501 -0.1414 -0.1850  0.1463
15522TIP3   OH267980   3.441   4.032  15.484  0.0519 -0.5922 -0.0534
15522TIP3    H167981   3.366   4.081  15.453  0.1316 -0.0488  0.5927
15522TIP3    H267982   3.477   3.990  15.406 -0.0934  0.2652 -0.5851
15523TIP3   OH267983   0.031   4.762   5.675  0.3477  0.0694 -0.0138
15523TIP3    H167984   0.119   4.740   5.645 -0.0409 -3.8722  1.0932
15523TIP3    H267985   0.035   4.754   5.770 -0.8919  1.3405  0.1725
15524TIP3   OH267986   2.090   3.415  13.491 -0.3480  0.0012  0.0589
15524TIP3    H167987   2.167   3.395  13.437 -0.7354  0.1314 -0.5474
15524TIP3    H267988   2.108   3.372  13.574  0.1306 -0.4466 -0.2691
15525TIP3   OH267989   4.523   3.573   5.028 -0.9433  0.3950  0.5896
15525TIP3    H167990   4.499   3.624   5.105  1.3520  0.7171  1.1719
15525TIP3    H267991   4.479   3.617   4.955  0.7308  3.1233  1.0973
15526TIP3   OH267992   0.939   0.028   3.011  0.3934  0.1504 -0.6158
15526TIP3    H167993   0.865   0.088   3.005  1.0883  1.1840  0.6628
15526TIP3    H267994   1.015   0.084   3.020  1.3014 -0.9087 -1.4898
15527TIP3   OH267995   4.077   3.286   1.109  0.2411 -0.0393  0.5785
15527TIP3    H167996   4.106   3.197   1.133  1.8228  0.1850 -0.3671
15527TIP3    H267997   4.013   3.273   1.040  2.7438 -0.4366 -1.8265
15528TIP3   OH267998   6.585   5.677   3.487  0.1913 -0.1184 -0.5556
15528TIP3    H167999   6.522   5.720   3.546  0.2093 -1.7947  0.7502
15528TIP3    H268000   6.570   5.719   3.403 -0.8417  1.3635  0.3083
15529TIP3   OH268001   1.126   0.155   4.404  0.6069 -0.2129 -0.0255
15529TIP3    H168002   1.196   0.148   4.468  0.5658  2.1656  0.3702
15529TIP3    H268003   1.142   0.238   4.359 -0.5463 -0.8167 -1.6795
15530TIP3   OH268004   0.152   2.528  12.750  0.3728  0.0901  0.2437
15530TIP3    H168005   0.229   2.585  12.751  1.1265 -0.8678 -0.7845
15530TIP3    H268006   0.182   2.449  12.706 -0.7035 -1.0352  1.4604
15531TIP3   OH268007   2.470   0.455  12.327 -0.5485 -0.0956  0.1973
15531TIP3    H168008   2.529   0.520  12.366  2.7997 -2.0724 -1.2107
15531TIP3    H268009   2.465   0.385  12.392 -1.1532 -0.0897  0.1663
15532TIP3   OH268010   6.095   4.678  12.022  0.2104  0.6285 -0.4396
15532TIP3    H168011   6.007   4.666  12.059  0.4468 -1.3293 -0.4032
15532TIP3    H268012   6.081   4.729  11.943 -0.9241  0.6614 -0.2329
15533TIP3   OH268013   2.765   5.998   1.996  0.4701  0.2683  0.1113
15533TIP3    H168014   2.823   5.927   2.025  0.3964  0.2769  0.2775
15533TIP3    H268015   2.678   5.959   1.995  0.3584  0.4997  0.6877
15534TIP3   OH268016   0.983   5.439   0.776 -0.2463 -0.5030 -0.0545
15534TIP3    H168017   0.965   5.527   0.743  0.2973 -0.1843  0.4808
15534TIP3    H268018   0.991   5.385   0.698  0.5380  0.1476 -0.4348
15535TIP3   OH268019   1.725   4.237   3.301  0.0803 -0.1442  0.0328
15535TIP3    H168020   1.758   4.295   3.370  3.6014  0.3232 -1.8329
15535TIP3    H268021   1.772   4.155   3.315  2.1959  0.4821 -2.6618
15536TIP3   OH268022   2.195   2.031  12.841 -0.3984  0.0896 -0.5627
15536TIP3    H168023   2.285   2.009  12.815 -0.4559 -1.4343  0.4058
15536TIP3    H268024   2.206   2.098  12.909 -0.0205  0.2934 -0.8199
15537TIP3   OH268025   4.315   1.802   1.784  0.6912  0.7058  0.2484
15537TIP3    H168026   4.325   1.843   1.870  1.3017  0.0426  0.5060
15537TIP3    H268027   4.350   1.713   1.796 -0.0462  0.3066 -0.4524
15538TIP3   OH268028   1.172   0.871   2.888  0.4087  0.4201 -0.1815
15538TIP3    H168029   1.090   0.870   2.838 -0.8598  2.3394  1.6696
15538TIP3    H268030   1.165   0.795   2.946 -1.6674  2.1882  2.1311
15539TIP3   OH268031   0.857   2.510   0.506  0.3045  0.2754 -0.6269
15539TIP3    H168032   0.921   2.536   0.439  1.6775  1.1297  0.9417
15539TIP3    H268033   0.903   2.444   0.559  0.2499  1.5237  1.0460
15540TIP3   OH268034   1.548   2.943  11.035 -0.6739 -0.2499 -0.2391
15540TIP3    H168035   1.601   2.920  11.111 -0.8142 -1.4353 -0.4687
15540TIP3    H268036   1.610   2.940  10.961 -0.8721 -0.7970 -0.3913
15541TIP3   OH268037   4.689   1.329   1.617 -0.0129  0.6719  0.1181
15541TIP3    H168038   4.662   1.276   1.542 -1.5542  0.2012  0.9747
15541TIP3    H268039   4.779   1.300   1.634 -1.0546 -2.4195  1.0888
15542TIP3   OH268040   0.626   3.188  15.748  0.2724  0.2286  0.9555
15542TIP3    H168041   0.618   3.281  15.729  1.0632  0.5686  2.1731
15542TIP3    H268042   0.599   3.144  15.667  1.1173  1.5299 -0.0684
15543TIP3   OH268043   4.265   5.640   1.679 -0.1300  0.3609  0.0604
15543TIP3    H168044   4.346   5.618   1.725  0.7172  0.9987 -1.0674
15543TIP3    H268045   4.250   5.732   1.700 -2.1378 -0.4241  2.5198
15544TIP3   OH268046   1.525   4.018   5.473  0.6636 -0.3735 -0.8404
15544TIP3    H168047   1.491   3.979   5.392 -1.3400 -2.9026  1.0614
15544TIP3    H268048   1.536   3.944   5.533  2.9186  1.2869  0.9845
15545TIP3   OH268049   4.689   1.569   5.672 -0.4564 -0.2207 -0.6285
15545TIP3    H168050   4.757   1.600   5.733  1.7002 -0.4971 -2.7412
15545TIP3    H268051   4.738   1.518   5.607 -2.6022  0.3392 -2.7821
15546TIP3   OH268052   4.656   0.870  15.171  0.3854 -0.2857 -0.7699
15546TIP3    H168053   4.573   0.846  15.211  0.1837  0.0988 -0.9586
15546TIP3    H268054   4.694   0.934  15.232  1.4109 -1.8316  0.2848
15547TIP3   OH268055   5.454   0.615  11.449 -0.1434 -0.4564  0.0804
15547TIP3    H168056   5.518   0.665  11.398 -0.9987  2.4437  1.6146
15547TIP3    H268057   5.371   0.660  11.432 -1.2818 -2.3654  0.3759
15548TIP3   OH268058   4.757   4.708   1.747  0.2947 -0.6076  0.3302
15548TIP3    H168059   4.771   4.620   1.713 -0.4396 -0.3681 -0.6591
15548TIP3    H268060   4.662   4.720   1.744  0.4414  0.5374 -0.4468
15549TIP3   OH268061   6.144   4.775  15.797  0.3872  0.6318 -0.3719
15549TIP3    H168062   6.229   4.758  15.757 -0.7196 -1.4720 -2.0355
15549TIP3    H268063   6.103   4.839  15.738  0.9283  1.9758  0.6645
15550TIP3   OH268064   5.140   5.473  16.106 -0.0350  0.5207  0.2431
15550TIP3    H168065   5.175   5.471  16.016 -0.1755  0.4196  0.1894
15550TIP3    H268066   5.052   5.509  16.096 -0.6324 -0.9120  0.1362
15551TIP3   OH268067   4.478   3.724  15.818 -0.0892  0.5687  0.0355
15551TIP3    H168068   4.479   3.632  15.791 -0.0175  0.7106 -0.4466
15551TIP3    H268069   4.568   3.755  15.805 -0.0272  0.6110  0.5394
15552TIP3   OH268070   1.377   5.988  15.442 -0.5170 -0.2754  0.6824
15552TIP3    H168071   1.387   5.959  15.533  1.1533  0.8078  0.9036
15552TIP3    H268072   1.461   6.029  15.422 -0.2088 -1.9509 -1.9141
15553TIP3   OH268073   5.988   3.327  16.375  0.5571 -0.1558 -0.3785
15553TIP3    H168074   5.940   3.244  16.378  0.2775  0.0071 -0.3135
15553TIP3    H268075   6.064   3.308  16.320  1.7632 -1.1126  1.4999
15554TIP3   OH268076   6.270   4.287   4.928 -0.2073  0.0103 -0.4291
15554TIP3    H168077   6.259   4.212   4.986 -1.0383  0.2790 -0.2321
15554TIP3    H268078   6.325   4.348   4.978 -1.0633  0.3172  0.1591
15555TIP3   OH268079   2.468   5.897   4.956  0.0171  0.2247 -0.2133
15555TIP3    H168080   2.460   5.893   5.051  0.0050 -0.3471 -0.2351
15555TIP3    H268081   2.438   5.985   4.933  2.6106  1.4005  0.5675
15556TIP3   OH268082   0.294   5.962  16.063  0.5726 -0.5356 -0.3180
15556TIP3    H168083   0.226   5.897  16.048 -0.5383  0.4974  0.0897
15556TIP3    H268084   0.299   5.971  16.159  2.5594 -1.8691 -0.2223
15557TIP3   OH268085   2.917   2.393  16.265  0.3775 -0.2472 -0.4515
15557TIP3    H168086   2.874   2.366  16.346 -1.2910 -1.3815 -1.6303
15557TIP3    H268087   3.011   2.394  16.287 -0.0899  0.8414  1.8148
15558TIP3   OH268088   3.468   4.540  16.949 -0.0724 -0.0903 -0.1278
15558TIP3    H168089   3.534   4.559  17.016 -1.6032  1.0251  1.1478
15558TIP3    H268090   3.507   4.470  16.896  1.5027 -0.5015  1.4677
15559TIP3   OH268091   1.030   1.778   2.572  0.0543  0.0681 -0.2734
15559TIP3    H168092   1.124   1.775   2.555  0.0562  0.7987 -0.4330
15559TIP3    H268093   1.023   1.772   2.668  0.3743  1.5922 -0.1189
15560TIP3   OH268094   4.071   6.344   3.730  0.2611 -0.5067 -0.4005
15560TIP3    H168095   4.017   6.367   3.806  1.3892  1.5955 -0.1722
15560TIP3    H268096   4.008   6.321   3.661 -0.9061  1.0802  0.0947
15561TIP3   OH268097   5.801   5.602  13.643  0.4997 -0.2930 -0.3705
15561TIP3    H168098   5.833   5.601  13.553 -0.8015  0.6579 -0.8668
15561TIP3    H268099   5.707   5.614  13.635  0.3897  0.0051  1.1285
15562TIP3   OH268100   1.333   1.912  15.187 -0.3677 -0.1899  0.4158
15562TIP3    H168101   1.254   1.922  15.241 -0.5729 -2.7597  0.7170
15562TIP3    H268102   1.395   1.975  15.223 -1.4253  0.0650  1.8807
15563TIP3   OH268103   6.607   4.358  16.198  0.4926  0.0867  0.3135
15563TIP3    H168104   6.558   4.433  16.164 -0.6943 -0.6575  0.3210
15563TIP3    H268105   6.662   4.394  16.268 -0.7298  0.8154  0.9265
15564TIP3   OH268106   2.765   1.505   4.397 -0.0059 -0.1292  0.0433
15564TIP3    H168107   2.835   1.449   4.431  0.3681 -0.1657 -0.7664
15564TIP3    H268108   2.758   1.576   4.461  0.7765 -0.1224  0.1308
15565TIP3   OH268109   3.229   2.071   2.741  0.0860 -0.4358  0.4243
15565TIP3    H168110   3.254   2.053   2.832  0.7074 -1.6569  0.0303
15565TIP3    H268111   3.193   2.160   2.744 -0.7453 -0.7828  2.0131
15566TIP3   OH268112   6.660   0.710  13.257 -0.1302 -0.2693 -0.2458
15566TIP3    H168113   6.729   0.687  13.194  0.6198  0.3607  0.3155
15566TIP3    H268114   6.594   0.754  13.204 -0.7556 -2.0416 -1.0263
15567TIP3   OH268115   6.168   1.089  16.988 -0.2354 -0.3551  0.1399
15567TIP3    H168116   6.116   1.112  17.065 -0.4089 -0.8222  0.1696
15567TIP3    H268117   6.181   0.994  16.997  0.3795 -0.2845 -0.0164
15568TIP3   OH268118   4.052   2.626   1.438  0.3594 -0.0029  0.1313
15568TIP3    H168119   4.072   2.717   1.461 -0.3897  0.5862 -1.4763
15568TIP3    H268120   4.130   2.577   1.466 -0.0273  0.7594  2.8906
15569TIP3   OH268121   3.809   0.035  13.345  0.5913  0.2111 -0.6178
15569TIP3    H168122   3.859   0.031  13.426  0.1650  1.8815 -0.2456
15569TIP3    H268123   3.726   0.075  13.370 -0.2751 -0.9162 -1.5543
15570TIP3   OH268124   0.852   6.013   5.700  0.3852 -0.6406 -0.6327
15570TIP3    H168125   0.891   5.939   5.655 -1.5272 -2.7049  0.8710
15570TIP3    H268126   0.781   6.042   5.642  1.2520  0.1804 -1.3075
15571TIP3   OH268127   6.130   5.321  10.874 -0.5374  0.1214  0.1698
15571TIP3    H168128   6.113   5.411  10.847  1.8783  0.2070 -1.3602
15571TIP3    H268129   6.073   5.268  10.817 -0.5107  0.5987 -0.3127
15572TIP3   OH268130   6.395   4.582   1.024  0.2939 -0.6851 -0.2379
15572TIP3    H168131   6.453   4.570   1.099  1.0989 -2.8149 -1.1327
15572TIP3    H268132   6.312   4.544   1.051  0.4151 -0.9435 -0.2262
15573TIP3   OH268133   0.166   3.212   1.660 -0.3701 -0.1032 -0.0613
15573TIP3    H168134   0.171   3.208   1.756 -2.9695  1.4719  0.2421
15573TIP3    H268135   0.220   3.287   1.636 -0.6943  0.2564  0.3148
15574TIP3   OH268136   0.696   2.977   2.439 -0.2758 -0.4196  0.1278
15574TIP3    H168137   0.763   2.910   2.449  0.6744  0.3943 -0.6567
15574TIP3    H268138   0.619   2.929   2.409  0.7148 -1.0381 -1.5697
15575TIP3   OH268139   4.826   6.672   2.840  0.9997 -0.5256  0.0887
15575TIP3    H168140   4.906   6.723   2.824  0.9077 -0.6899 -1.0022
15575TIP3    H268141   4.855   6.581   2.842  0.9009 -0.5564  0.1340
15576TIP3   OH268142   4.572   0.914   0.466  0.2510 -0.1457 -0.4035
15576TIP3    H168143   4.532   0.895   0.381 -2.9411 -1.9039  1.3234
15576TIP3    H268144   4.635   0.844   0.480  2.5296  1.3890 -2.1529
15577TIP3   OH268145   3.569   3.842  11.623 -0.1860 -0.0732  0.5595
15577TIP3    H168146   3.509   3.916  11.614 -0.9823 -0.8395 -1.0032
15577TIP3    H268147   3.656   3.880  11.611 -0.5723  0.6383 -0.0716
15578TIP3   OH268148   4.574   6.765   1.261 -0.1610 -0.3327 -0.3384
15578TIP3    H168149   4.597   6.773   1.354  0.6805 -2.4288 -0.3079
15578TIP3    H268150   4.480   6.745   1.261 -0.3891  0.6432 -0.0344
15579TIP3   OH268151   5.558   6.118  13.160 -0.4027 -0.3748  0.0111
15579TIP3    H168152   5.601   6.035  13.140  2.1580  0.8538  0.1196
15579TIP3    H268153   5.593   6.143  13.246 -2.2883  0.1454  0.6855
15580TIP3   OH268154   6.428   5.186  12.576  0.5130  0.2110  0.0627
15580TIP3    H168155   6.339   5.152  12.582  0.7926 -0.5086  0.2451
15580TIP3    H268156   6.444   5.194  12.481 -0.3060  1.9036  0.0267
15581TIP3   OH268157   6.426   6.151  12.117 -0.1687  0.1419 -0.2388
15581TIP3    H168158   6.491   6.105  12.171  0.6168  1.7508  0.2552
15581TIP3    H268159   6.474   6.176  12.038 -0.9799 -1.1034 -1.1583
15582TIP3   OH268160   2.822   4.501  15.014  0.0071  0.2844 -0.0871
15582TIP3    H168161   2.812   4.471  15.104  0.0734 -0.5113 -0.3443
15582TIP3    H268162   2.777   4.586  15.012 -0.6749 -0.0591  0.4922
15583TIP3   OH268163   1.116   6.233   2.195 -0.2636  0.5873  0.4575
15583TIP3    H168164   1.023   6.228   2.177 -0.5420  3.4132  0.6431
15583TIP3    H268165   1.125   6.199   2.284 -0.7155 -1.7315 -0.3109
15584TIP3   OH268166   1.431   3.928  14.284 -0.2026  0.0761 -0.4086
15584TIP3    H168167   1.359   3.880  14.325  1.3554 -1.0508  1.1271
15584TIP3    H268168   1.388   3.983  14.219 -2.4949 -0.2902  0.6766
15585TIP3   OH268169   3.300   4.151  12.025  0.4858 -0.3839  0.3401
15585TIP3    H168170   3.343   4.078  12.069 -0.1417 -1.6271 -1.0258
15585TIP3    H268171   3.209   4.148  12.056  0.1849 -0.9010 -0.5461
15586TIP3   OH268172   2.181   1.317  10.974  0.2416  0.3024 -0.7773
15586TIP3    H168173   2.273   1.310  10.950  0.4318 -0.5597  0.1336
15586TIP3    H268174   2.139   1.243  10.931  0.1271  0.2353 -0.5547
15587TIP3   OH268175   0.283   2.888   2.819 -0.5787 -0.3475  0.4106
15587TIP3    H168176   0.315   2.861   2.733 -0.0888 -1.2969  0.8798
15587TIP3    H268177   0.223   2.818   2.846  1.1693 -1.3650  1.9062
15588TIP3   OH268178   1.816   2.109  14.385  0.0094  0.2877 -0.1195
15588TIP3    H168179   1.828   2.039  14.449  0.9610  2.1969  1.8786
15588TIP3    H268180   1.795   2.063  14.304 -0.1235 -2.2713  1.2657
15589TIP3   OH268181   4.841   1.631  16.278  0.0326 -0.2101  0.2061
15589TIP3    H168182   4.763   1.597  16.234 -0.1170  0.9817 -0.4942
15589TIP3    H268183   4.914   1.608  16.220 -0.1639  1.3574 -0.7199
15590TIP3   OH268184   0.146   2.606   1.667 -0.1833  0.3207 -0.3751
15590TIP3    H168185   0.214   2.637   1.726 -1.2354 -1.2332  1.7967
15590TIP3    H268186   0.069   2.659   1.689 -0.1321  0.9995 -1.7144
15591TIP3   OH268187   0.681   2.486   2.784 -0.2032  0.1476 -0.1005
15591TIP3    H168188   0.641   2.427   2.847 -0.2852 -0.4167 -0.6670
15591TIP3    H268189   0.645   2.458   2.699  1.4892 -0.4660 -0.6484
15592TIP3   OH268190   1.204   2.551  14.661  0.2698 -0.2447  0.0987
15592TIP3    H168191   1.295   2.523  14.649  0.4014 -0.0772  0.6471
15592TIP3    H268192   1.208   2.647  14.654  0.2938 -0.1646  1.0018
15593TIP3   OH268193   4.108   1.165  16.502 -0.1717  0.1916  0.6091
15593TIP3    H168194   4.026   1.195  16.463 -0.0581  0.4252  0.5450
15593TIP3    H268195   4.126   1.228  16.572  1.5656  2.1065 -1.3734
15594TIP3   OH268196   5.939   6.771  13.114  0.3481  0.4528  0.2567
15594TIP3    H168197   5.854   6.742  13.081  1.3289 -1.4555 -0.8065
15594TIP3    H268198   5.926   6.785  13.208 -0.8381 -1.0579  0.3463
15595TIP3   OH268199   0.465   6.322  14.881 -0.3647  0.0578  0.0533
15595TIP3    H168200   0.466   6.231  14.852 -0.4968 -0.4299  1.5364
15595TIP3    H268201   0.541   6.361  14.838 -0.1324 -0.8224 -0.3633
15596TIP3   OH268202   4.792   0.965  17.291  0.7120 -0.0695 -0.7097
15596TIP3    H168203   4.704   1.001  17.276  0.4087  0.0007  0.9895
15596TIP3    H268204   4.845   1.001  17.221 -0.2515  1.2835 -0.7816
15597TIP3   OH268205   2.565   0.625  17.083 -0.7755 -0.1135 -0.3874
15597TIP3    H168206   2.574   0.549  17.025  0.0940 -0.3426  0.0380
15597TIP3    H268207   2.636   0.684  17.058 -0.6652 -0.0134  0.1417
15598TIP3   OH268208   6.366   1.625  13.418  0.6122 -0.8174  0.0950
15598TIP3    H168209   6.428   1.552  13.416  0.9957 -0.5656  1.4117
15598TIP3    H268210   6.327   1.620  13.505  1.5400  1.2465  0.6977
15599TIP3   OH268211   0.133   3.133  11.733  0.0126  0.0257  0.3251
15599TIP3    H168212   0.199   3.201  11.726  1.2237 -0.9508  1.7156
15599TIP3    H268213   0.075   3.162  11.804 -0.5759  0.4608 -0.3140
15600TIP3   OH268214   5.835   6.489   2.786 -0.4839 -0.3326  0.4283
15600TIP3    H168215   5.884   6.412   2.757  0.7921  0.3001  0.8138
15600TIP3    H268216   5.891   6.528   2.853 -1.1289  0.9020  0.2682
15601TIP3   OH268217   3.402   2.302   6.759 -0.0618  0.0148 -0.0525
15601TIP3    H168218   3.358   2.222   6.728 -3.4443  1.7617 -0.2384
15601TIP3    H268219   3.432   2.345   6.679 -1.2066  0.4607 -0.2628
15602TIP3   OH268220   6.346   2.441  15.817  0.4449  0.2084 -0.3199
15602TIP3    H168221   6.413   2.508  15.825  1.0202 -0.2593 -1.1312
15602TIP3    H268222   6.387   2.370  15.768 -0.3175 -0.5234  0.0549
15603TIP3   OH268223   3.952   6.418   5.739 -0.0024 -0.1354  0.8303
15603TIP3    H168224   3.944   6.336   5.788  1.4842  0.6366  2.4767
15603TIP3    H268225   4.007   6.396   5.664 -1.5838 -1.1350 -0.1009
15604TIP3   OH268226   4.961   5.527  15.909 -0.1064  0.6274 -0.2186
15604TIP3    H168227   4.917   5.463  15.853  0.6835  0.1472 -0.3103
15604TIP3    H268228   4.915   5.609  15.892 -0.2693  0.3669 -1.1272
15605TIP3   OH268229   4.504   0.299  11.705 -0.4847 -0.1810 -0.1311
15605TIP3    H168230   4.599   0.300  11.692 -0.4340  1.2836  0.2301
15605TIP3    H268231   4.469   0.350  11.633 -0.8879  0.4460  0.4978
15606TIP3   OH268232   4.261   4.358  14.299  0.2456 -0.3053  0.3316
15606TIP3    H168233   4.341   4.304  14.296 -0.1599 -0.9889  1.3416
15606TIP3    H268234   4.219   4.333  14.381  0.0427  1.5777  0.8423
15607TIP3   OH268235   5.923   6.042  15.136  0.5191 -0.0151 -0.6080
15607TIP3    H168236   5.981   6.043  15.061 -1.1832 -0.7430 -2.0144
15607TIP3    H268237   5.836   6.023  15.100 -0.6241  0.9923  1.3761
15608TIP3   OH268238   1.154   6.156   2.451 -0.1054 -0.3320  0.1185
15608TIP3    H168239   1.199   6.073   2.472 -0.7127 -0.7390 -0.1582
15608TIP3    H268240   1.069   6.147   2.493  0.2389  0.6490  1.0731
15609TIP3   OH268241   6.332   5.491   3.688  0.5506  0.3724  0.4352
15609TIP3    H168242   6.243   5.457   3.695  0.6928 -0.5862 -1.6362
15609TIP3    H268243   6.388   5.415   3.703  0.9790  0.5956 -0.0099
15610TIP3   OH268244   2.846   4.899  14.568  0.1864 -0.5714  0.2074
15610TIP3    H168245   2.876   4.818  14.610  1.7181  0.6155  1.5057
15610TIP3    H268246   2.908   4.913  14.496 -0.4169 -0.8496 -0.3665
15611TIP3   OH268247   5.728   6.708   0.337  0.6618  0.0609 -0.2855
15611TIP3    H168248   5.645   6.753   0.322 -0.1895 -1.2753  0.2391
15611TIP3    H268249   5.791   6.755   0.282 -0.7611  0.1388 -1.9415
15612TIP3   OH268250   4.328   0.491   2.110 -0.2160  0.0918  0.3396
15612TIP3    H168251   4.248   0.474   2.159 -1.8475  1.5036 -1.6691
15612TIP3    H268252   4.338   0.586   2.112  1.7473 -0.0812  0.9831
15613TIP3   OH268253   4.929   5.157  12.334  0.3261  0.6047 -0.2588
15613TIP3    H168254   4.869   5.223  12.370 -0.0302  0.5731 -0.7928
15613TIP3    H268255   4.967   5.199  12.257  0.8667  0.5575 -0.0259
15614TIP3   OH268256   1.960   1.965   0.427  0.3035  0.2948 -0.2865
15614TIP3    H168257   2.020   1.978   0.354  0.4576  0.7136 -0.0879
15614TIP3    H268258   1.920   1.880   0.411 -0.9386  1.0979 -1.7955
15615TIP3   OH268259   5.041   1.488  12.505 -0.1569 -0.5801 -0.2632
15615TIP3    H168260   5.060   1.428  12.433 -0.7445 -0.6822 -0.3379
15615TIP3    H268261   4.947   1.504  12.498 -0.2016 -0.5279  0.4311
15616TIP3   OH268262   6.621   4.683  12.004  0.5413  0.1758 -0.0707
15616TIP3    H168263   6.680   4.629  12.056 -1.2387 -2.4521 -0.5772
15616TIP3    H268264   6.559   4.621  11.966 -0.6382  2.4338 -2.1153
15617TIP3   OH268265   2.958   3.199  15.280 -0.8114  0.1339  0.2898
15617TIP3    H168266   2.883   3.140  15.287 -1.2857  0.6077 -0.6349
15617TIP3    H268267   2.955   3.231  15.190  2.2144 -2.0997 -0.7956
15618TIP3   OH268268   4.911   3.805  11.106  0.5404  0.1526  0.2389
15618TIP3    H168269   4.869   3.811  11.020 -0.1855 -0.1429  0.5626
15618TIP3    H268270   4.999   3.773  11.087  0.0823 -0.8433 -0.3336
15619TIP3   OH268271   2.810   5.029   3.059 -0.4135  0.0986  0.1016
15619TIP3    H168272   2.899   5.060   3.041  0.2930 -0.4187  2.4034
15619TIP3    H268273   2.778   5.001   2.974  0.9947  1.8299 -1.0899
15620TIP3   OH268274   1.650   2.966  11.337  0.1866  0.2373  0.2214
15620TIP3    H168275   1.631   3.042  11.282 -1.4105 -0.0493  0.3111
15620TIP3    H268276   1.637   2.998  11.427  0.0060 -0.0003  0.2815
15621TIP3   OH268277   3.427   1.262   5.064 -0.4162  0.6560 -0.1158
15621TIP3    H168278   3.453   1.291   5.151  0.4284  1.0190 -0.4683
15621TIP3    H268279   3.509   1.263   5.014 -1.2785  3.4004 -1.7163
15622TIP3   OH268280   4.622   1.892  14.372 -0.0796  0.0328 -0.2515
15622TIP3    H168281   4.615   1.984  14.394 -1.5086  0.0064 -0.5156
15622TIP3    H268282   4.716   1.878  14.357 -0.0481  1.9468 -2.3980
15623TIP3   OH268283   0.126   0.713  15.542 -0.2781  0.2344  0.5940
15623TIP3    H168284   0.118   0.664  15.460  0.4663  2.9293 -1.1851
15623TIP3    H268285   0.053   0.681  15.595  0.7734 -3.5828  0.1021
15624TIP3   OH268286   5.153   6.730  15.807 -0.0258 -0.0732 -0.5145
15624TIP3    H168287   5.105   6.675  15.870  2.2116 -1.0498  0.4824
15624TIP3    H268288   5.203   6.790  15.862  0.4563  0.4097 -1.4696
15625TIP3   OH268289   1.891   4.366  13.854  0.3530  0.3247  0.0265
15625TIP3    H168290   1.831   4.436  13.876 -0.3153  0.0906 -0.9937
15625TIP3    H268291   1.861   4.334  13.769 -0.5185 -2.4065  1.2437
15626TIP3   OH268292   4.285   0.635   5.307  0.1015 -0.0405 -0.0933
15626TIP3    H168293   4.324   0.609   5.223  1.6341 -0.8658  0.8308
15626TIP3    H268294   4.347   0.697   5.344 -0.8097  0.6922  0.2357
15627TIP3   OH268295   1.766   2.333   0.408 -0.3803  0.6739 -0.2186
15627TIP3    H168296   1.769   2.262   0.344 -0.3011  1.2162 -0.8311
15627TIP3    H268297   1.848   2.381   0.395 -0.4814  0.9423  0.1103
15628TIP3   OH268298   5.810   3.422   5.521  0.5902  0.3243  0.3627
15628TIP3    H168299   5.876   3.491   5.518  0.4742  0.5743  2.5568
15628TIP3    H268300   5.726   3.469   5.526  0.3496  0.0014 -0.4356
15629TIP3   OH268301   3.954   2.983  16.837  0.7101  0.9949 -0.6488
15629TIP3    H168302   4.011   3.053  16.803  1.0914  0.9894 -0.0419
15629TIP3    H268303   3.899   3.027  16.902  0.0665  0.9818 -1.1727
15630TIP3   OH268304   6.005   6.637   2.959 -0.2759  0.2411  0.3851
15630TIP3    H168305   5.961   6.704   3.012  1.0345  1.3986  0.1005
15630TIP3    H268306   6.095   6.635   2.993  0.0672 -0.3987 -0.5138
15631TIP3   OH268307   2.626   3.375  16.277 -0.0756  0.0187 -0.3080
15631TIP3    H168308   2.694   3.442  16.264 -0.6783  0.2500 -2.7589
15631TIP3    H268309   2.622   3.329  16.193 -2.1209 -0.7669  0.1781
15632TIP3   OH268310   3.849   3.549   0.355 -0.2119  0.0704  0.2529
15632TIP3    H168311   3.930   3.566   0.403  0.1652 -1.2032  0.1123
15632TIP3    H268312   3.838   3.454   0.359 -1.0201  0.0982 -0.8170
15633TIP3   OH268313   6.064   3.059  13.540  0.5523 -0.5484 -0.4934
15633TIP3    H168314   6.007   3.114  13.594  0.6447  0.0336 -0.9803
15633TIP3    H268315   6.004   3.004  13.491  0.3121  1.0016 -2.0244
15634TIP3   OH268316   0.444   5.753   0.913  0.0584  0.0733 -0.2510
15634TIP3    H168317   0.356   5.746   0.948  0.3176  2.6363  1.2230
15634TIP3    H268318   0.482   5.666   0.922 -2.3539 -1.1265 -1.1317
15635TIP3   OH268319   3.239   2.414  15.529 -0.0825  0.4429  0.2561
15635TIP3    H168320   3.200   2.432  15.444 -0.5781 -0.0352  0.3757
15635TIP3    H268321   3.186   2.465  15.591 -1.4165 -1.2489  0.5813
15636TIP3   OH268322   2.151   0.005  15.312 -0.6482  0.3820 -0.7473
15636TIP3    H168323   2.207   0.035  15.384 -0.4768 -0.6709 -0.4351
15636TIP3    H268324   2.182   0.055  15.236  1.9137 -1.3255 -0.9671
15637TIP3   OH268325   0.935   0.568   5.626  0.1480 -0.1086  0.0031
15637TIP3    H168326   0.963   0.477   5.637  1.8260  0.2293 -1.1464
15637TIP3    H268327   0.847   0.560   5.588 -0.5063 -1.2053  1.6188
15638TIP3   OH268328   5.478   0.440  15.940 -0.0290 -0.0413 -0.6255
15638TIP3    H168329   5.418   0.474  15.873 -2.2423 -0.7054  0.9249
15638TIP3    H268330   5.513   0.360  15.902 -1.4434 -0.5406 -0.9437
15639TIP3   OH268331   4.204   2.601   3.532  0.7547  0.2704 -0.0764
15639TIP3    H168332   4.214   2.658   3.608  2.0128  1.0246 -0.7685
15639TIP3    H268333   4.162   2.656   3.466  1.5547  0.2649 -0.5990
15640TIP3   OH268334   4.817   4.279  13.244  0.1353 -0.1575  0.6283
15640TIP3    H168335   4.730   4.252  13.215  0.5194 -0.7670 -0.0021
15640TIP3    H268336   4.847   4.207  13.300  0.6802 -0.5054 -0.0845
15641TIP3   OH268337   1.294   3.260   4.821  0.4147  0.2095  0.0314
15641TIP3    H168338   1.383   3.295   4.824  0.8888 -1.0010  1.4478
15641TIP3    H268339   1.240   3.328   4.860  0.8443  0.6366 -0.1163
15642TIP3   OH268340   3.461   4.838   4.661 -0.7144 -0.2017 -0.0954
15642TIP3    H168341   3.417   4.917   4.629 -0.6774  1.8081  4.2002
15642TIP3    H268342   3.546   4.838   4.617 -0.9568  1.8323 -0.6361
15643TIP3   OH268343   3.425   2.501  16.215 -0.1890 -0.6183  0.3672
15643TIP3    H168344   3.491   2.511  16.284 -0.1783  0.5144  0.2106
15643TIP3    H268345   3.472   2.457  16.143 -0.2992 -2.1441  1.1854
15644TIP3   OH268346   0.159   6.289   5.787 -0.2763  0.4518  0.3374
15644TIP3    H168347   0.178   6.352   5.718  1.9179 -1.7963 -1.2914
15644TIP3    H268348   0.120   6.214   5.741  0.6475 -0.8521  1.5901
15645TIP3   OH268349   5.721   3.727   2.924  0.2383  0.1132  0.5344
15645TIP3    H168350   5.629   3.705   2.911 -0.0439  0.8866  1.1119
15645TIP3    H268351   5.748   3.771   2.844 -0.3085  1.1540  0.9036
15646TIP3   OH268352   1.900   4.219   4.762  0.2100  0.0571  0.1421
15646TIP3    H168353   1.964   4.159   4.723  0.8197  1.4562 -1.1370
15646TIP3    H268354   1.953   4.277   4.817  0.0043  0.8912 -0.5092
15647TIP3   OH268355   0.397   6.066   4.252 -0.4038 -0.0621 -0.4334
15647TIP3    H168356   0.352   6.117   4.184  2.5691  0.8946 -1.8235
15647TIP3    H268357   0.456   6.008   4.204  0.6044 -0.5313  1.2963
15648TIP3   OH268358   0.639   5.504   1.180 -0.0020 -0.2445  0.2606
15648TIP3    H168359   0.616   5.514   1.272 -1.3582  0.3409 -0.1193
15648TIP3    H268360   0.728   5.539   1.174 -0.3103  0.7602  1.1519
15649TIP3   OH268361   1.907   3.918   2.358  0.0369 -0.2295 -0.1090
15649TIP3    H168362   1.992   3.957   2.382  0.3234  0.6467 -2.3190
15649TIP3    H268363   1.860   3.989   2.315 -0.4778 -1.6142 -1.9286
15650TIP3   OH268364   1.722   1.679   0.602  0.6082  0.1648 -0.1837
15650TIP3    H168365   1.727   1.654   0.510  1.9625  0.0595 -0.1039
15650TIP3    H268366   1.640   1.641   0.633  1.7348 -2.7785 -0.5132
15651TIP3   OH268367   1.620   1.671   1.071 -0.3030  0.1939 -0.2222
15651TIP3    H168368   1.650   1.584   1.097  2.6477  1.3161  0.4824
15651TIP3    H268369   1.666   1.688   0.989 -1.9277  0.6028 -1.0896
15652TIP3   OH268370   3.343   2.300   1.617  0.0053 -1.3588  0.2925
15652TIP3    H168371   3.361   2.227   1.558  0.7209 -0.0497 -1.1987
15652TIP3    H268372   3.430   2.332   1.643 -0.3041 -1.9275  2.1082
15653TIP3   OH268373   3.168   2.016  13.109 -0.0015  0.2089  0.0813
15653TIP3    H168374   3.161   2.011  13.014 -0.5236  0.8528  0.0855
15653TIP3    H268375   3.078   2.023  13.140  0.2561  3.1794  0.4382
15654TIP3   OH268376   2.224   3.164   1.734 -0.1054 -0.5147 -0.0262
15654TIP3    H168377   2.246   3.102   1.804 -2.0069 -1.0270  0.1855
15654TIP3    H268378   2.305   3.174   1.684  0.7026 -1.8471  0.9490
15655TIP3   OH268379   3.749   2.143  17.334  0.1385 -0.2997  0.1698
15655TIP3    H168380   3.833   2.164  17.293 -0.4787 -1.2246 -1.6530
15655TIP3    H268381   3.684   2.187  17.281 -0.6279 -0.6350  0.8100
15656TIP3   OH268382   2.363   1.726   1.794 -0.0907 -0.4669 -0.4175
15656TIP3    H168383   2.455   1.740   1.771 -0.3538 -0.2514 -1.3808
15656TIP3    H268384   2.365   1.661   1.864  1.0985  2.8744  2.9971
15657TIP3   OH268385   1.935   0.774  16.609  0.0466 -0.5310 -1.0487
15657TIP3    H168386   1.878   0.843  16.574 -1.5674 -0.6717  1.0950
15657TIP3    H268387   1.901   0.693  16.570 -0.1955 -0.4437 -1.0237
15658TIP3   OH268388   2.703   3.473   6.064 -0.2826  0.0840 -0.2949
15658TIP3    H168389   2.763   3.412   6.108 -0.1433 -0.6855 -1.4977
15658TIP3    H268390   2.737   3.480   5.975 -1.9455 -0.3791 -1.0188
15659TIP3   OH268391   3.977   4.499   5.550 -0.0134 -0.3050  0.1215
15659TIP3    H168392   3.919   4.504   5.474 -0.7748  3.3984  0.7627
15659TIP3    H268393   4.065   4.501   5.513 -0.3364 -1.1032 -0.7252
15660TIP3   OH268394   3.258   5.391  16.643  0.1288  0.1157 -0.1360
15660TIP3    H168395   3.261   5.416  16.551  1.4447 -0.1171 -0.1721
15660TIP3    H268396   3.296   5.303  16.645 -0.1170  0.0220  0.6037
15661TIP3   OH268397   3.054   1.540   4.100 -1.2296  0.1304  0.7522
15661TIP3    H168398   3.038   1.617   4.155 -0.2618  0.8158  0.0879
15661TIP3    H268399   3.112   1.571   4.031 -1.7721 -0.9208 -0.2022
15662TIP3   OH268400   2.045   6.130  12.806 -0.0743  0.0439  0.3141
15662TIP3    H168401   2.087   6.058  12.759  1.1712  0.9375  0.0057
15662TIP3    H268402   2.092   6.136  12.889 -2.6302 -1.9095  2.0942
15663TIP3   OH268403   1.346   1.504   5.810  0.2823  0.0563 -0.0783
15663TIP3    H168404   1.385   1.421   5.780 -0.4191 -0.8610  1.4450
15663TIP3    H268405   1.361   1.564   5.737  2.6919 -0.8005 -0.3944
15664TIP3   OH268406   5.010   1.891   2.097 -0.3242 -0.3914 -0.6674
15664TIP3    H168407   4.992   1.931   2.011 -0.8332 -0.4604 -0.5982
15664TIP3    H268408   4.940   1.924   2.153 -0.3382 -0.8200 -0.4304
15665TIP3   OH268409   4.905   1.614  13.212  0.1339 -0.3068  0.4301
15665TIP3    H168410   4.827   1.560  13.226  1.6043 -2.4127  1.0863
15665TIP3    H268411   4.937   1.588  13.126 -1.4262  2.7528 -1.2495
15666TIP3   OH268412   0.606   6.224   1.669 -0.3029  0.5113  0.2243
15666TIP3    H168413   0.554   6.165   1.614 -1.0116  0.9739  0.3777
15666TIP3    H268414   0.608   6.306   1.620 -0.8631  0.8996  0.8345
15667TIP3   OH268415   1.434   5.636  14.730  0.2986  0.3684  0.1301
15667TIP3    H168416   1.465   5.545  14.736  0.0881  0.2394 -0.6403
15667TIP3    H268417   1.513   5.689  14.744  0.3876  0.0695  0.7772
15668TIP3   OH268418   4.780   3.497   4.995  0.2123  0.0805  0.6054
15668TIP3    H168419   4.686   3.513   5.005  0.2054 -0.5936  1.8163
15668TIP3    H268420   4.821   3.579   5.023  0.0340 -0.3804  2.3410
15669TIP3   OH268421   2.087   3.543   5.201 -0.2253  0.2991  0.1271
15669TIP3    H168422   2.132   3.508   5.278  1.0087 -0.3963 -0.8714
15669TIP3    H268423   2.135   3.623   5.179  0.3036 -0.2349 -0.7131
15670TIP3   OH268424   6.432   3.341  15.550  0.4773  0.5358  0.3003
15670TIP3    H168425   6.523   3.351  15.581  0.5688  0.9353 -0.0831
15670TIP3    H268426   6.416   3.247  15.552  1.1771  0.3944 -0.4081
15671TIP3   OH268427   6.275   3.674   3.710 -0.1050 -0.4580  0.0731
15671TIP3    H168428   6.271   3.592   3.760 -0.9394 -0.2946  0.2915
15671TIP3    H268429   6.239   3.740   3.769 -0.0347 -0.0552 -0.3315
15672TIP3   OH268430   4.176   6.232  16.505 -0.9669  0.4199  0.7030
15672TIP3    H168431   4.191   6.138  16.504  1.1016  0.7002 -0.0501
15672TIP3    H268432   4.097   6.245  16.454 -1.6163 -0.9407  1.3243
15673TIP3   OH268433   2.503   1.041  14.561 -0.3336  0.1572 -0.8907
15673TIP3    H168434   2.563   0.978  14.520  0.6984  0.1941  0.4840
15673TIP3    H268435   2.457   0.990  14.628  0.0005  0.6900 -0.2475
15674TIP3   OH268436   3.113   2.626  12.554 -0.3287 -0.1956 -0.9551
15674TIP3    H168437   3.148   2.636  12.643  0.5632 -1.4074 -1.1494
15674TIP3    H268438   3.022   2.655  12.561 -0.6388 -1.4261  0.6559
15675TIP3   OH268439   1.045   2.133  12.288  0.5798 -0.1089  0.6200
15675TIP3    H168440   1.079   2.064  12.345  1.0671 -0.8969 -0.5752
15675TIP3    H268441   1.099   2.128  12.209 -0.9351  0.0468 -0.4768
15676TIP3   OH268442   6.205   6.647   3.695  0.7809  0.2057 -0.7559
15676TIP3    H168443   6.276   6.706   3.668 -0.5423  2.8164  0.9841
15676TIP3    H268444   6.128   6.703   3.697 -1.1210 -2.2244 -1.2577
15677TIP3   OH268445   6.667   5.918   4.168  0.1331 -0.2052 -0.3927
15677TIP3    H168446   6.580   5.883   4.149  0.5235 -0.3884 -2.0603
15677TIP3    H268447   6.717   5.844   4.202 -0.6479  0.1701  1.7161
15678TIP3   OH268448   4.829   6.020  12.277 -0.3624 -0.1369 -0.1228
15678TIP3    H168449   4.901   5.980  12.326  0.8573 -0.7979 -2.3314
15678TIP3    H268450   4.763   5.951  12.270  0.4519 -0.8158 -1.3479
15679TIP3   OH268451   2.801   3.688  13.211 -0.2128  0.3092 -0.2277
15679TIP3    H168452   2.862   3.616  13.229 -0.7083 -0.1024 -0.1868
15679TIP3    H268453   2.857   3.766  13.210  0.0180  0.2382  2.1096
15680TIP3   OH268454   5.207   2.050  14.442  0.4790  0.6380  0.1746
15680TIP3    H168455   5.127   2.068  14.493  0.3851  0.8589 -0.0466
15680TIP3    H268456   5.269   2.017  14.506 -0.0010 -0.1706  0.2434
15681TIP3   OH268457   2.141   0.815  11.107 -0.2938  0.0106  0.0168
15681TIP3    H168458   2.192   0.776  11.036 -0.3923  0.6324 -0.4045
15681TIP3    H268459   2.052   0.784  11.093 -0.3335  0.2182 -0.1993
15682TIP3   OH268460   0.619   5.823   3.788  0.3680 -0.2055  0.6970
15682TIP3    H168461   0.554   5.820   3.717  1.0439 -0.2154  0.0651
15682TIP3    H268462   0.567   5.822   3.868 -0.4023 -0.7317  0.2093
15683TIP3   OH268463   0.009   0.560   1.366  0.1450 -0.0505 -0.1436
15683TIP3    H168464   0.066   0.627   1.329  1.3192 -0.0165  1.5898
15683TIP3    H268465   0.065   0.484   1.378 -0.6002 -0.5836  0.0389
15684TIP3   OH268466   0.502   4.832  15.170 -0.0579  0.5871  0.3459
15684TIP3    H168467   0.467   4.834  15.081  0.1438 -1.2302  0.1895
15684TIP3    H268468   0.425   4.833  15.226 -0.4899 -2.6452  0.0167
15685TIP3   OH268469   3.363   3.267  14.383 -0.1885  0.9029 -0.2225
15685TIP3    H168470   3.323   3.274  14.469  1.0425 -0.8364  0.5430
15685TIP3    H268471   3.311   3.200  14.338 -0.0541  0.8833 -0.3502
15686TIP3   OH268472   3.202   0.003  14.911  0.0248 -0.0434  0.2770
15686TIP3    H168473   3.152   0.072  14.867  0.6585  0.0733 -0.2784
15686TIP3    H268474   3.144  -0.029  14.980 -0.6854  0.3165 -0.1430
15687TIP3   OH268475   3.693   0.238  12.274 -0.4331 -0.3618 -0.2899
15687TIP3    H168476   3.734   0.195  12.349 -0.3896 -1.3380 -0.8492
15687TIP3    H268477   3.767   0.263  12.217 -0.4698  0.3017 -0.0537
15688TIP3   OH268478   1.067   3.299  12.687 -0.6322 -0.1576 -0.6351
15688TIP3    H168479   1.028   3.339  12.764 -1.6242 -0.3254 -1.0309
15688TIP3    H268480   1.133   3.239  12.721 -1.2640 -0.4490  0.1092
15689TIP3   OH268481   3.899   2.315   3.052 -0.3568  0.2223  0.4675
15689TIP3    H168482   3.951   2.387   3.087 -1.2024  0.5555  1.0810
15689TIP3    H268483   3.904   2.247   3.120  1.9635 -1.0988 -0.8918
15690TIP3   OH268484   4.174   3.254  12.750  0.4587  0.3985 -0.1842
15690TIP3    H168485   4.232   3.320  12.712  2.6752 -0.2736  1.7224
15690TIP3    H268486   4.150   3.290  12.835  0.8828 -0.7678  0.4538
15691TIP3   OH268487   6.505   1.279   0.683  0.6242 -0.0587 -0.1263
15691TIP3    H168488   6.601   1.281   0.681  0.6238 -0.0606 -0.1361
15691TIP3    H268489   6.482   1.339   0.754  0.6580 -0.6209  0.3685
15692TIP3   OH268490   4.734   3.954   3.396  1.1970  0.2507  0.4425
15692TIP3    H168491   4.791   4.031   3.393  1.0152  0.4023  0.8082
15692TIP3    H268492   4.729   3.932   3.489  1.0717 -0.0744  0.3594
15693TIP3   OH268493   5.147   4.334  16.799 -0.3433 -0.2015 -0.0529
15693TIP3    H168494   5.108   4.266  16.855 -1.8814  1.1539  0.6045
15693TIP3    H268495   5.082   4.349  16.730 -0.2016  0.8580  0.0263
15694TIP3   OH268496   5.361   2.783  14.355 -0.8981  0.1909  0.4374
15694TIP3    H168497   5.272   2.766  14.388 -1.2570  3.4024  1.5043
15694TIP3    H268498   5.403   2.832  14.425  0.7624  1.1370 -1.1415
15695TIP3   OH268499   0.892   1.418  13.665 -0.3781 -0.8479  0.2870
15695TIP3    H168500   0.972   1.457  13.630  0.4052 -1.5211  1.2786
15695TIP3    H268501   0.835   1.407  13.589 -0.1556  1.0778 -0.2021
15696TIP3   OH268502   1.980   4.320  14.736 -0.1660 -0.0099 -0.1997
15696TIP3    H168503   1.885   4.307  14.730 -0.8663  3.1149  1.7427
15696TIP3    H268504   1.998   4.390  14.673  0.8281 -0.3709 -0.3290
15697TIP3   OH268505   1.902   4.366  16.733  0.1949  0.2495  0.2160
15697TIP3    H168506   1.957   4.385  16.809 -0.6362 -1.3304  1.2501
15697TIP3    H268507   1.813   4.374  16.765 -0.1766 -0.0281 -0.7203
15698TIP3   OH268508   6.720   1.753  14.177  0.4786  0.5955 -0.3057
15698TIP3    H168509   6.686   1.676  14.132  0.0193  1.5310 -1.6343
15698TIP3    H268510   6.811   1.731  14.198  0.0828 -0.6415  0.1809
15699TIP3   OH268511   4.985   6.256   6.333  0.6039  0.2041  0.6015
15699TIP3    H168512   4.960   6.224   6.421  0.8651  1.7189  1.2494
15699TIP3    H268513   5.080   6.262   6.336  0.5241  1.7374  0.7734
15700TIP3   OH268514   1.952   3.160  15.324  0.1274 -0.5563  1.1570
15700TIP3    H168515   1.909   3.246  15.318 -1.5868 -1.0910  4.0840
15700TIP3    H268516   1.880   3.097  15.320  1.4287 -2.0763 -2.2194
15701TIP3   OH268517   4.437   2.794  11.635  0.2458  0.1713  0.1522
15701TIP3    H168518   4.515   2.780  11.581  0.3077  0.8931  0.0466
15701TIP3    H268519   4.417   2.707  11.671  1.8597  0.1827  1.2015
15702TIP3   OH268520   3.798   4.756  13.491 -0.2409  0.6179 -0.4379
15702TIP3    H168521   3.875   4.705  13.466 -0.4354 -0.1784  0.5179
15702TIP3    H268522   3.829   4.846  13.492  0.0923  0.5668 -2.2491
15703TIP3   OH268523   3.038   3.350  13.916 -0.4510  0.4085 -0.0025
15703TIP3    H168524   2.950   3.353  13.878 -0.5498  3.4009  0.2140
15703TIP3    H268525   3.097   3.348  13.840 -0.6901 -0.5732 -0.1655
15704TIP3   OH268526   0.696   6.341  12.194  0.0221  0.5457 -0.4405
15704TIP3    H168527   0.603   6.324  12.212  0.0407  1.2879  0.4451
15704TIP3    H268528   0.731   6.257  12.164 -0.4519 -0.2993  1.2836
15705TIP3   OH268529   0.573   4.466  14.768  0.6897  0.2919  0.0472
15705TIP3    H168530   0.545   4.403  14.702 -0.1309  0.3930  0.2849
15705TIP3    H268531   0.666   4.450  14.779  0.5833 -0.5475 -0.2489
15706TIP3   OH268532   0.580   0.746  15.488  0.0399  0.3771  0.2499
15706TIP3    H168533   0.668   0.715  15.468  0.9073  1.1898  2.5342
15706TIP3    H268534   0.569   0.730  15.582 -2.0527  0.8006  0.1341
15707TIP3   OH268535   6.075   6.243   4.847  0.0984 -0.1563 -0.0282
15707TIP3    H168536   6.104   6.310   4.908 -1.6579 -0.5966  1.3688
15707TIP3    H268537   5.997   6.281   4.805  0.2793 -0.5435 -0.7371
15708TIP3   OH268538   1.102   6.213   5.526  0.1267 -0.5496 -0.1507
15708TIP3    H168539   1.103   6.117   5.519  1.9334 -0.4777 -1.8106
15708TIP3    H268540   1.094   6.230   5.620 -0.0292 -2.3195  0.1962
15709TIP3   OH268541   5.094   3.712   2.182 -0.3751 -0.2388 -0.0737
15709TIP3    H168542   5.034   3.640   2.204  0.9127 -0.6000  2.6504
15709TIP3    H268543   5.083   3.724   2.088 -1.1750 -3.5570 -0.5487
15710TIP3   OH268544   1.464   3.568  16.021  0.4092 -0.0891  0.0635
15710TIP3    H168545   1.421   3.623  15.956 -0.2432 -0.2334  0.3661
15710TIP3    H268546   1.395   3.544  16.082  1.3337  1.5774  1.9000
15711TIP3   OH268547   6.593   6.689   5.801 -0.4590  0.6199 -0.7205
15711TIP3    H168548   6.518   6.677   5.860  0.2290  1.4382  0.3509
15711TIP3    H268549   6.669   6.690   5.860  0.1590  2.6157 -1.4829
15712TIP3   OH268550   5.693   2.811  13.997 -0.1074  0.5262 -0.1947
15712TIP3    H168551   5.754   2.876  14.031  0.3544 -0.0714  0.1530
15712TIP3    H268552   5.740   2.728  14.005 -0.3320  0.2633 -1.4932
15713TIP3   OH268553   0.394   1.786  16.795  0.2337  0.6159  0.2414
15713TIP3    H168554   0.381   1.853  16.728  2.1818  0.5261 -0.2815
15713TIP3    H268555   0.339   1.713  16.767 -0.7855  1.4239  0.0427
15714TIP3   OH268556   2.134   4.103   0.865 -0.0268  0.3814  0.5246
15714TIP3    H168557   2.207   4.064   0.914 -1.7454 -1.8045  1.5032
15714TIP3    H268558   2.117   4.186   0.908  0.9397  0.2313  1.2194
15715TIP3   OH268559   5.857   1.860   5.919 -0.2842 -0.4892 -0.0346
15715TIP3    H168560   5.776   1.865   5.868  0.1315  3.2877 -0.5704
15715TIP3    H268561   5.839   1.793   5.985 -4.0650  0.5249  0.2161
15716TIP3   OH268562   0.329   0.563  11.193  0.1634 -0.4393  0.0743
15716TIP3    H168563   0.236   0.545  11.177  0.2209 -1.3022  0.6108
15716TIP3    H268564   0.375   0.499  11.139  0.4199 -0.7144  0.6060
15717TIP3   OH268565   1.760   2.312   2.785  0.0245  0.1872  0.1902
15717TIP3    H168566   1.812   2.392   2.776  0.5607  0.0397  1.7100
15717TIP3    H268567   1.687   2.337   2.842 -0.3007 -0.1941 -0.0540
15718TIP3   OH268568   6.348   3.657  11.832  0.5298  0.6286 -0.3652
15718TIP3    H168569   6.292   3.714  11.885 -0.4965 -0.0676 -0.6651
15718TIP3    H268570   6.399   3.717  11.778  0.8878  1.3135  0.7208
15719TIP3   OH268571   6.021   1.127   0.588  0.2136 -0.5693  0.1683
15719TIP3    H168572   6.072   1.198   0.550 -2.0502  0.3813 -1.3136
15719TIP3    H268573   5.983   1.081   0.512 -1.2139 -1.1385  1.1802
15720TIP3   OH268574   1.074   2.073  16.403  0.5346  0.3658 -0.2880
15720TIP3    H168575   0.989   2.106  16.375 -0.8133 -1.8578  0.9536
15720TIP3    H268576   1.128   2.076  16.324 -1.6747 -1.2249 -1.9926
15721TIP3   OH268577   3.704   3.510   3.858 -0.1635  0.3528  0.6380
15721TIP3    H168578   3.712   3.446   3.787 -2.1487 -1.2617  1.7508
15721TIP3    H268579   3.752   3.470   3.931 -0.8593  0.4135  1.1409
15722TIP3   OH268580   0.583   3.689   0.022  0.1363  0.7147  0.1900
15722TIP3    H168581   0.636   3.711  -0.055 -1.7288 -1.2048 -1.7714
15722TIP3    H268582   0.518   3.759   0.028  0.4568  1.0136  0.2157
15723TIP3   OH268583   0.344   5.789  13.141  0.2453 -0.5540  0.5798
15723TIP3    H168584   0.348   5.735  13.062 -0.9416  0.4822 -0.2198
15723TIP3    H268585   0.285   5.861  13.118  1.0201  0.5564  1.9345
15724TIP3   OH268586   2.786   4.470  12.960 -0.1359  0.7202 -0.2609
15724TIP3    H168587   2.792   4.378  12.935  1.3476  0.0968  2.0332
15724TIP3    H268588   2.870   4.507  12.936 -0.6219  1.4390 -0.9050
15725TIP3   OH268589   2.867   3.031  15.892  0.5087  0.4201 -0.0809
15725TIP3    H168590   2.943   3.067  15.939  0.8045  0.3553 -0.5057
15725TIP3    H268591   2.903   2.999  15.809  0.1907 -0.5039  0.1231
15726TIP3   OH268592   1.195   5.714   2.152 -0.5184 -0.1951  0.0606
15726TIP3    H168593   1.161   5.686   2.067  0.8230  0.4655 -0.7176
15726TIP3    H268594   1.168   5.806   2.159  1.0136  0.3320 -0.5563
15727TIP3   OH268595   4.027   1.987   3.596 -0.3004 -0.5577  0.1255
15727TIP3    H168596   4.107   1.951   3.559  0.2281  0.0699  0.6340
15727TIP3    H268597   4.056   2.045   3.666 -1.1809 -0.0827  0.1210
15728TIP3   OH268598   6.276   4.844   0.840 -0.0864  0.1256  0.5118
15728TIP3    H168599   6.287   4.771   0.780 -0.9674  0.0842  0.3773
15728TIP3    H268600   6.221   4.906   0.792 -0.4593  0.2749  1.1136
15729TIP3   OH268601   5.997   3.175   5.944  0.2391  1.1375 -0.2242
15729TIP3    H168602   5.911   3.210   5.967  0.4981 -0.1714  3.2498
15729TIP3    H268603   5.985   3.139   5.857 -2.8836  0.5738  0.3048
15730TIP3   OH268604   0.758   1.085   1.097 -0.5650  0.0938 -0.0934
15730TIP3    H168605   0.770   1.065   1.190 -1.4843 -0.1639 -0.0251
15730TIP3    H268606   0.843   1.120   1.070 -0.1525 -0.2262  0.7371
15731TIP3   OH268607   6.678   0.095  16.725 -0.0053  0.0038 -0.1803
15731TIP3    H168608   6.763   0.140  16.730  0.2431 -0.4775 -0.0520
15731TIP3    H268609   6.673   0.062  16.635 -1.1394  2.1188 -0.9694
15732TIP3   OH268610   3.365   2.707   5.025 -0.0084 -0.2338 -0.2217
15732TIP3    H168611   3.380   2.685   5.116 -0.7972 -1.8229 -0.4441
15732TIP3    H268612   3.429   2.775   5.006  0.5603 -0.2979  1.3406
15733TIP3   OH268613   6.445   1.601  12.521  0.1847  0.7678 -0.6588
15733TIP3    H168614   6.397   1.659  12.462 -1.4837 -1.5353 -1.7702
15733TIP3    H268615   6.382   1.579  12.590 -0.2040 -1.6355 -1.6619
15734TIP3   OH268616   3.691   4.576   1.941  0.0272 -0.0817 -0.4692
15734TIP3    H168617   3.670   4.520   2.016  0.8408  0.1444 -0.0568
15734TIP3    H268618   3.712   4.661   1.980 -1.4816  0.6300 -1.1069
15735TIP3   OH268619   4.700   6.329  11.481 -0.1107  0.3465  0.0602
15735TIP3    H168620   4.774   6.292  11.529  0.0098  0.3054 -0.1524
15735TIP3    H268621   4.623   6.285  11.516 -0.1579  1.2537  1.1347
15736TIP3   OH268622   6.510   0.887  12.685  0.0404  0.1473  0.2380
15736TIP3    H168623   6.435   0.935  12.650  0.7090  0.2011 -1.2236
15736TIP3    H268624   6.484   0.795  12.681 -0.7085  0.2655  1.7170
15737TIP3   OH268625   3.013   0.775  16.868 -0.0120 -0.3793 -0.1037
15737TIP3    H168626   2.987   0.866  16.882  0.8989 -0.0791 -0.3001
15737TIP3    H268627   2.961   0.745  16.794 -1.4364 -0.5088  0.9070
15738TIP3   OH268628   1.582   1.247  14.621 -0.0546 -0.3135  0.3205
15738TIP3    H168629   1.634   1.172  14.652  1.0050  0.9448  1.7499
15738TIP3    H268630   1.499   1.240  14.668 -0.2143 -0.9233 -0.0382
15739TIP3   OH268631   0.201   2.169  13.742  0.4503  0.2841  0.4295
15739TIP3    H168632   0.167   2.230  13.808  2.5184  0.6153  1.2749
15739TIP3    H268633   0.213   2.223  13.664  0.0172  0.4038  0.4474
15740TIP3   OH268634   2.261   2.666  14.849  0.4226 -0.5895  0.1880
15740TIP3    H168635   2.213   2.750  14.851 -1.1117 -1.3280 -1.7735
15740TIP3    H268636   2.293   2.660  14.759  0.7447 -2.0103  0.3857
15741TIP3   OH268637   1.716   4.036  15.602  0.1873  0.3019 -0.6762
15741TIP3    H168638   1.698   3.972  15.671  0.1544  1.1626  0.1281
15741TIP3    H268639   1.741   3.983  15.526  0.3842 -0.6492  0.0402
15742TIP3   OH268640   3.324   5.950   0.942 -0.4318  0.2266  0.1683
15742TIP3    H168641   3.392   5.909   0.995  0.5157  1.5317  0.0222
15742TIP3    H268642   3.273   6.003   1.004 -0.4659  0.3166  0.0649
15743TIP3   OH268643   1.547   3.629   1.211 -0.7490  0.1889 -0.2534
15743TIP3    H168644   1.496   3.564   1.163  1.1337 -0.8117 -0.9997
15743TIP3    H268645   1.592   3.679   1.143 -1.2394  1.5221  0.3589
15744TIP3   OH268646   3.378   4.034  17.247  0.8776  0.3952  0.3825
15744TIP3    H168647   3.355   3.971  17.179  0.9443  2.0660 -1.2466
15744TIP3    H268648   3.294   4.073  17.273  0.9639  0.5050  0.4980
15745TIP3   OH268649   0.637   6.417  17.328  0.4410 -0.1459  0.0300
15745TIP3    H168650   0.594   6.436  17.411 -1.3702  0.6069 -1.0053
15745TIP3    H268651   0.704   6.353  17.349 -0.5844 -0.6720  1.9119
15746TIP3   OH268652   2.544   2.641   3.999  0.2170 -0.3897  0.5091
15746TIP3    H168653   2.598   2.720   4.010 -0.1243 -0.0157 -0.3806
15746TIP3    H268654   2.558   2.591   4.079 -0.3760  1.0661  1.5542
15747TIP3   OH268655   6.608   4.306  11.359  0.1158 -0.0026  0.1636
15747TIP3    H168656   6.662   4.258  11.297  0.5625  0.4589  0.1866
15747TIP3    H268657   6.585   4.387  11.314 -2.3513 -1.0731 -0.6733
15748TIP3   OH268658   3.081   4.603  13.249 -0.3421 -0.3166  0.0382
15748TIP3    H168659   3.038   4.619  13.333  0.1564 -0.2822  0.2913
15748TIP3    H268660   3.061   4.680  13.196 -0.2764 -0.1261  0.2876
15749TIP3   OH268661   0.682   4.109  12.306 -0.1948  0.2783  0.4262
15749TIP3    H168662   0.628   4.187  12.316 -0.0131  0.4343  0.1917
15749TIP3    H268663   0.728   4.121  12.223 -0.5001 -0.2855  0.1699
15750TIP3   OH268664   3.584   2.373  15.991 -0.6965  0.3475  0.5823
15750TIP3    H168665   3.519   2.303  15.990 -0.2694 -0.0578 -0.6830
15750TIP3    H268666   3.644   2.351  15.920  1.2554  0.2982  2.1626
15751TIP3   OH268667   3.776   4.634  12.775  0.3890 -0.2223  0.5075
15751TIP3    H168668   3.697   4.616  12.825  1.4369 -0.5754  2.1302
15751TIP3    H268669   3.829   4.554  12.784  0.3705 -0.5497 -1.7296
15752TIP3   OH268670   1.231   0.527   4.449  0.0055 -0.3977  0.0482
15752TIP3    H168671   1.146   0.531   4.405  0.1389 -0.6089 -0.2350
15752TIP3    H268672   1.253   0.618   4.468  0.2249 -0.2440 -0.8670
15753TIP3   OH268673   5.750   6.092   1.109 -0.0377 -0.2775 -0.0598
15753TIP3    H168674   5.792   6.177   1.115 -0.1088 -0.1878 -0.7304
15753TIP3    H268675   5.707   6.092   1.024  0.9038 -1.3991 -0.5669
15754TIP3   OH268676   1.546   3.676  13.952  0.2468 -0.6214  0.5251
15754TIP3    H168677   1.639   3.696  13.951  0.3782 -1.2233  0.5531
15754TIP3    H268678   1.511   3.723  13.876 -0.0035  2.2033  2.2425
15755TIP3   OH268679   5.062   2.638   1.972  0.1429  0.4004  0.3807
15755TIP3    H168680   5.016   2.571   1.922  2.2994 -0.2030 -0.9062
15755TIP3    H268681   5.061   2.606   2.062 -0.6195 -0.3194  0.1227
15756TIP3   OH268682   6.563   3.995   5.280 -0.6126  0.4520 -0.4543
15756TIP3    H168683   6.485   3.941   5.291  0.3562 -0.4558  3.2652
15756TIP3    H268684   6.635   3.933   5.268  0.0817  1.0684  0.4083
15757TIP3   OH268685   5.610   3.801   3.178  0.1071  0.0065  0.0108
15757TIP3    H168686   5.539   3.740   3.160  1.1279 -1.2613  0.1062
15757TIP3    H268687   5.681   3.775   3.119  0.5250  1.2089 -0.0552
15758TIP3   OH268688   0.517   5.212   2.995 -0.0154  0.0087  0.2544
15758TIP3    H168689   0.553   5.172   2.916  1.3683 -0.0482  0.8935
15758TIP3    H268690   0.580   5.191   3.064 -0.1733  1.7672  0.9716
15759TIP3   OH268691   4.449   5.351   3.021 -0.5564  0.5260  0.1274
15759TIP3    H168692   4.402   5.306   3.092 -3.5397  0.5455 -1.6551
15759TIP3    H268693   4.455   5.442   3.050 -1.1933  0.4153  0.6273
15760TIP3   OH268694   3.967   3.943   6.478 -0.1617 -0.2738 -0.2312
15760TIP3    H168695   3.883   3.989   6.485 -0.7542 -1.3909  0.1809
15760TIP3    H268696   3.950   3.856   6.512  1.4231 -0.2171  0.8492
15761TIP3   OH268697   2.952   0.166  13.400  0.2554  0.8688  0.3170
15761TIP3    H168698   2.950   0.099  13.469  1.5281  1.7479  1.2514
15761TIP3    H268699   2.866   0.159  13.357 -0.2321 -0.2854  1.4194
15762TIP3   OH268700   1.811   4.868   1.568 -0.6299 -0.7643  0.7329
15762TIP3    H168701   1.903   4.860   1.542 -0.3128  1.7798  0.7670
15762TIP3    H268702   1.763   4.812   1.507  0.8927 -1.7514  0.4021
15763TIP3   OH268703   3.674   0.001   5.396 -0.4027  0.2189 -0.6296
15763TIP3    H168704   3.722  -0.023   5.475 -0.5730  0.1582 -0.5436
15763TIP3    H268705   3.729   0.066   5.352 -0.6151  0.7383 -0.1342
15764TIP3   OH268706   0.244   4.525  15.218  0.1547  0.1795 -0.1168
15764TIP3    H168707   0.282   4.568  15.142 -0.3028  0.2120 -0.3313
15764TIP3    H268708   0.153   4.555  15.219 -0.1431 -0.6902 -0.2106
15765TIP3   OH268709   0.622   1.874   4.007  0.2691 -0.0991  0.5042
15765TIP3    H168710   0.591   1.890   3.918  0.8574  1.0661  0.4865
15765TIP3    H268711   0.548   1.830   4.050  0.0668 -0.8914 -0.6050
15766TIP3   OH268712   5.236   0.233  12.327  0.1413 -0.1641  0.3040
15766TIP3    H168713   5.317   0.206  12.371 -0.7073  0.3870  2.2527
15766TIP3    H268714   5.194   0.294  12.387 -1.3964  0.1307 -0.9969
15767TIP3   OH268715   1.001   4.636  16.723  0.3982 -0.1996  0.4673
15767TIP3    H168716   1.036   4.668  16.806 -1.0943  2.0297  0.3302
15767TIP3    H268717   0.929   4.696  16.703 -1.7333 -2.8965 -0.6116
15768TIP3   OH268718   0.380   6.394  14.549 -0.1048 -0.7373  0.2040
15768TIP3    H168719   0.397   6.419  14.458  0.1881 -0.7285  0.2604
15768TIP3    H268720   0.437   6.452  14.601 -1.0731  0.0240  0.4573
15769TIP3   OH268721   5.653   3.117  12.352  0.2628 -0.2699 -0.1411
15769TIP3    H168722   5.592   3.165  12.407 -0.7165  0.7785 -2.0845
15769TIP3    H268723   5.705   3.184  12.308  1.0950 -1.0938 -0.4653
15770TIP3   OH268724   4.419   6.086   0.891  0.4092 -0.2926  0.0940
15770TIP3    H168725   4.348   6.073   0.953 -0.1355 -0.9781 -0.6460
15770TIP3    H268726   4.474   6.009   0.901 -0.3182 -0.9924 -1.0700
15771TIP3   OH268727   0.372   0.493  14.694 -0.2948 -0.0881  0.0498
15771TIP3    H168728   0.288   0.447  14.698 -0.0790 -0.4818  0.1408
15771TIP3    H268729   0.425   0.441  14.633 -0.9798  1.5928 -2.0799
15772TIP3   OH268730   3.180   2.157   0.852  0.4285 -0.3853  0.5770
15772TIP3    H168731   3.273   2.181   0.854  0.0823  1.1352 -0.5835
15772TIP3    H268732   3.155   2.165   0.760 -0.5452 -2.1223  0.6517
15773TIP3   OH268733   3.157   1.584   2.554  0.9308  0.0037 -0.2413
15773TIP3    H168734   3.174   1.677   2.568  1.2267  0.0023 -0.5753
15773TIP3    H268735   3.165   1.572   2.459  2.7843 -0.7316 -0.0371
15774TIP3   OH268736   0.033   2.859   1.374  0.4427  0.5896 -0.1975
15774TIP3    H168737  -0.051   2.842   1.331 -0.5254  1.1486  1.3798
15774TIP3    H268738   0.052   2.778   1.422  0.9029  0.4060 -0.6799
15775TIP3   OH268739   6.354   2.815   6.405  0.6299 -0.3248  0.5059
15775TIP3    H168740   6.446   2.832   6.383  0.8833 -0.5715  1.3335
15775TIP3    H268741   6.357   2.747   6.472 -0.3179 -2.7218 -1.7438
15776TIP3   OH268742   2.770   0.501  13.528 -0.0077 -0.1860 -0.1202
15776TIP3    H168743   2.683   0.519  13.492  0.0307  2.3173  0.8859
15776TIP3    H268744   2.753   0.445  13.603 -0.5621 -1.0732 -0.8716
15777TIP3   OH268745   6.541   3.025   0.431 -0.2196  0.1907 -0.2311
15777TIP3    H168746   6.523   2.945   0.381 -1.8895  0.9399 -0.9147
15777TIP3    H268747   6.496   3.011   0.515  2.3827 -0.9662  1.0854
15778TIP3   OH268748   5.217   0.638  16.347  0.3290 -0.1533 -0.4182
15778TIP3    H168749   5.212   0.545  16.325  0.1990  0.0205 -1.1576
15778TIP3    H268750   5.233   0.640  16.441 -1.2157 -0.9156 -0.1086
15779TIP3   OH268751   1.477   0.931  13.607 -0.3886  0.0509 -0.4917
15779TIP3    H168752   1.489   0.994  13.678 -1.5507 -0.1476 -0.0960
15779TIP3    H268753   1.561   0.884  13.602 -0.1476  0.3560  0.4585
15780TIP3   OH268754   5.763   2.734  16.713  0.0552  0.0248 -0.1367
15780TIP3    H168755   5.846   2.704  16.752  0.3036  1.6098  0.6499
15780TIP3    H268756   5.714   2.769  16.787 -1.1795 -0.5602 -0.6646
15781TIP3   OH268757   1.818   1.002   2.412 -0.1434  0.2645  0.1920
15781TIP3    H168758   1.912   0.999   2.393  0.4985  3.1418  2.2948
15781TIP3    H268759   1.777   1.002   2.325  1.8423  0.2744 -0.8301
15782TIP3   OH268760   0.961   5.512  13.694 -0.2493 -0.6620  0.7219
15782TIP3    H168761   0.930   5.483  13.608  0.8906  0.9901 -0.2892
15782TIP3    H268762   1.041   5.561  13.676 -0.4725  0.5200  2.6329
15783TIP3   OH268763   0.260   5.976  14.220  0.4657  0.1841  0.0799
15783TIP3    H168764   0.306   6.048  14.176  0.7201 -0.7745 -1.2751
15783TIP3    H268765   0.168   5.992  14.203  0.4531  0.6500  0.5377
15784TIP3   OH268766   5.034   3.377  15.327  0.3254  0.2049 -0.2007
15784TIP3    H168767   5.113   3.378  15.272  0.8630 -1.5591  0.4366
15784TIP3    H268768   5.015   3.284  15.338 -1.3522  0.5935  0.3872
15785TIP3   OH268769   1.241   4.299   1.487  0.0443 -0.2033 -0.1564
15785TIP3    H168770   1.325   4.300   1.443 -0.0157  0.6009 -0.2760
15785TIP3    H268771   1.204   4.386   1.470 -0.6924 -0.4531  0.1111
15786TIP3   OH268772   6.281   4.788   3.204  0.5390 -0.5541  0.0015
15786TIP3    H168773   6.345   4.777   3.274  0.6381  0.8311  0.1418
15786TIP3    H268774   6.204   4.741   3.234  0.7946 -0.5043  0.7550
15787TIP3   OH268775   4.809   4.378   5.236  0.3840  0.4285 -0.3990
15787TIP3    H168776   4.869   4.453   5.230 -0.6116  1.4215  1.1187
15787TIP3    H268777   4.845   4.313   5.177  2.1947  1.5056 -0.5489
15788TIP3   OH268778   3.567   1.434   5.829 -0.1047  0.7594  0.1395
15788TIP3    H168779   3.660   1.449   5.847 -0.0573  0.1433  0.4135
15788TIP3    H268780   3.541   1.368   5.893  0.3605 -2.4731 -2.6946
15789TIP3   OH268781   0.591   1.752  16.382 -0.3500  0.1401  0.5704
15789TIP3    H168782   0.527   1.798  16.327  0.6966  1.4525  0.3930
15789TIP3    H268783   0.673   1.761  16.335  0.1188 -0.9256  1.1402
15790TIP3   OH268784   2.126   0.500  14.762  0.2080 -0.3704 -0.8879
15790TIP3    H168785   2.128   0.418  14.812  2.5349  0.1409 -0.0314
15790TIP3    H268786   2.054   0.488  14.699 -3.2424 -0.8951  2.7583
15791TIP3   OH268787   6.520   3.584  12.173 -0.3806  0.2570  0.7209
15791TIP3    H168788   6.596   3.572  12.230 -0.9445 -2.5298  1.0373
15791TIP3    H268789   6.550   3.559  12.086 -0.4106  1.1881  0.4339
15792TIP3   OH268790   0.068   0.128   4.118 -0.1269 -0.3346 -0.2066
15792TIP3    H168791   0.102   0.069   4.184 -0.5899 -1.3330 -0.8327
15792TIP3    H268792   0.077   0.080   4.035  0.0701  0.7228 -0.8148
15793TIP3   OH268793   1.489   5.688   2.195  0.0303  0.0395  0.1473
15793TIP3    H168794   1.404   5.680   2.238  0.1594 -0.8433  0.2431
15793TIP3    H268795   1.480   5.766   2.139 -1.0472 -0.4151 -0.3287
15794TIP3   OH268796   3.449   4.900  12.231  0.2222 -0.3295  0.2552
15794TIP3    H168797   3.482   4.831  12.173  0.3286 -1.1075  1.2289
15794TIP3    H268798   3.420   4.854  12.310  2.3921  0.9182  1.8894
15795TIP3   OH268799   6.725   0.792   0.377  0.0893  0.2503 -0.1896
15795TIP3    H168800   6.658   0.819   0.315  0.1692  0.1852 -0.3060
15795TIP3    H268801   6.683   0.798   0.463 -0.2756 -0.4342 -0.3129
15796TIP3   OH268802   3.648   1.779  17.142  0.0467 -0.2947 -0.7225
15796TIP3    H168803   3.725   1.730  17.170  0.0799  0.5245  0.7457
15796TIP3    H268804   3.575   1.719  17.154  0.5318 -1.5657 -3.4385
15797TIP3   OH268805   2.543   1.375   5.539 -0.0930 -0.0487 -0.0950
15797TIP3    H168806   2.511   1.389   5.450 -0.3820  2.0253  0.2855
15797TIP3    H268807   2.596   1.452   5.558 -1.1858  0.2468  2.0423
15798TIP3   OH268808   6.410   3.931  11.417 -0.0814  0.1462 -0.3434
15798TIP3    H168809   6.348   4.002  11.401 -0.4289  0.6197  2.5338
15798TIP3    H268810   6.387   3.863  11.353 -2.8112  0.7804 -0.1166
15799TIP3   OH268811   5.017   4.375  16.098  0.2417 -0.9963 -0.6723
15799TIP3    H168812   5.097   4.344  16.055  1.3141 -2.4698  2.1250
15799TIP3    H268813   4.968   4.295  16.116  0.3977 -0.5968  1.7753
15800TIP3   OH268814   6.542   4.459   1.713 -0.5029  0.3223  0.1973
15800TIP3    H168815   6.528   4.432   1.622  1.9482  0.0987 -0.1829
15800TIP3    H268816   6.537   4.555   1.709 -2.5284  0.2613  0.2816
15801TIP3   OH268817   3.092   4.502  16.045 -0.0049  0.2565 -0.4525
15801TIP3    H168818   3.006   4.480  16.082  0.8095  0.8440  1.9156
15801TIP3    H268819   3.116   4.584  16.086  2.6719 -1.0001  0.6961
15802TIP3   OH268820   5.892   5.662  14.806  0.9113 -0.2726  0.4202
15802TIP3    H168821   5.805   5.703  14.811  1.3929  0.6387  1.8606
15802TIP3    H268822   5.885   5.600  14.733 -0.5712  0.6608 -0.2818
15803TIP3   OH268823   0.584   3.695  15.247  0.0590  0.0404  0.3806
15803TIP3    H168824   0.572   3.747  15.327  0.4275  0.4821  0.1528
15803TIP3    H268825   0.540   3.612  15.266 -1.2323  0.7185  0.4604
15804TIP3   OH268826   4.810   1.529   5.201 -0.0596 -0.6751 -0.0805
15804TIP3    H168827   4.871   1.455   5.200  2.0390  0.8983  1.8021
15804TIP3    H268828   4.832   1.579   5.122 -1.0350 -1.6183 -0.9999
15805TIP3   OH268829   1.170   6.381   3.074  0.1426 -0.8396 -0.0276
15805TIP3    H168830   1.077   6.388   3.094  0.5965  2.9924  1.6513
15805TIP3    H268831   1.208   6.336   3.150 -0.0174  0.2016  0.6851
15806TIP3   OH268832   0.715   1.383   0.414  0.6682  0.1026 -0.0455
15806TIP3    H168833   0.722   1.452   0.348  0.9984  1.2467  1.1411
15806TIP3    H268834   0.630   1.343   0.398  1.0445 -0.1389 -1.6102
15807TIP3   OH268835   0.036   0.997  14.510  0.4439  0.5910  0.1044
15807TIP3    H168836   0.084   0.930  14.461 -1.4132  0.1514 -1.2049
15807TIP3    H268837   0.030   0.962  14.598  2.8668  0.8764  0.4629
15808TIP3   OH268838   5.857   0.285   1.062  0.0580 -0.6001  0.3380
15808TIP3    H168839   5.832   0.365   1.107 -1.4730 -0.2335 -1.0633
15808TIP3    H268840   5.944   0.264   1.097  1.3138  2.6121 -0.4391
15809TIP3   OH268841   5.625   0.731   3.341  0.1362 -0.0256 -0.2696
15809TIP3    H168842   5.696   0.773   3.293  1.2810 -2.6244 -1.0554
15809TIP3    H268843   5.627   0.770   3.428  2.4014  0.1542 -0.3566
15810TIP3   OH268844   5.787   2.905  12.457  0.4923 -0.4950 -0.3522
15810TIP3    H168845   5.699   2.870  12.469  0.4558 -0.6451 -1.0367
15810TIP3    H268846   5.773   2.997  12.436  0.5711 -0.1473  1.0316
15811TIP3   OH268847   5.343   2.482   4.401 -0.1555 -0.4543  0.0401
15811TIP3    H168848   5.385   2.405   4.361 -1.7943 -2.4786  1.9739
15811TIP3    H268849   5.410   2.517   4.460  0.2436 -1.0765 -0.0286
15812TIP3   OH268850   0.214   1.941  10.861 -0.2099 -0.2802  0.1742
15812TIP3    H168851   0.272   2.018  10.860 -1.9186  1.1256  1.8205
15812TIP3    H268852   0.152   1.957  10.791 -0.9040  0.1444  0.8745
15813TIP3   OH268853   0.555   3.385   1.910 -0.4920 -0.1282 -0.2963
15813TIP3    H168854   0.639   3.339   1.910 -1.2928 -1.6711 -0.0936
15813TIP3    H268855   0.535   3.398   1.817  0.1190  0.5577 -0.3391
15814TIP3   OH268856   5.573   0.777  15.777 -0.0124  0.1461  0.0226
15814TIP3    H168857   5.595   0.839  15.846  0.0279 -0.8167  0.8903
15814TIP3    H268858   5.575   0.829  15.697 -0.4463  1.3632  0.7789
15815TIP3   OH268859   2.203   1.367  13.119 -0.5170  0.1879  0.2978
15815TIP3    H168860   2.166   1.443  13.162 -0.7033 -0.2868  0.9904
15815TIP3    H268861   2.267   1.403  13.057  0.9016  0.8351  2.0602
15816TIP3   OH268862   1.580   2.829   4.425 -0.3902  0.1999 -0.6006
15816TIP3    H168863   1.546   2.907   4.382  1.1903  0.5898 -1.2027
15816TIP3    H268864   1.553   2.756   4.368 -1.9393  0.2530  0.0072
15817TIP3   OH268865   1.329   0.339  13.432 -0.0382 -0.2896  0.2835
15817TIP3    H168866   1.301   0.364  13.344 -2.3020  0.1628  1.0551
15817TIP3    H268867   1.305   0.414  13.487  1.3053 -0.5792  1.3160
15818TIP3   OH268868   2.567   5.386   1.584  0.2611 -0.3219 -0.1624
15818TIP3    H168869   2.484   5.390   1.537  0.8672 -1.6287 -1.4023
15818TIP3    H268870   2.625   5.442   1.533  0.1820  0.5399  0.6681
15819TIP3   OH268871   0.273   4.402   1.598  0.1092  0.1733 -0.6685
15819TIP3    H168872   0.200   4.435   1.546 -2.0362 -0.9644  1.4432
15819TIP3    H268873   0.309   4.480   1.640 -3.1101  0.3989  2.0712
15820TIP3   OH268874   1.232   2.761  17.322  0.5431 -0.1690 -0.3115
15820TIP3    H168875   1.276   2.751  17.407 -1.9353 -2.8770  0.8399
15820TIP3    H268876   1.188   2.846  17.329  1.2434  0.1374  0.6824
15821TIP3   OH268877   5.362   0.054  12.968  0.3736  0.3360  0.1394
15821TIP3    H168878   5.343   0.104  12.888  0.4776 -0.0704 -0.1440
15821TIP3    H268879   5.296  -0.015  12.969  1.2375 -0.5347 -0.3683
15822TIP3   OH268880   4.265   5.623  14.457  0.0350 -0.4751 -0.2064
15822TIP3    H168881   4.298   5.535  14.472  1.0171  0.0574  0.9671
15822TIP3    H268882   4.336   5.669  14.414 -0.3699 -0.1811 -0.5717
15823TIP3   OH268883   6.010   3.380   5.008 -0.0432 -0.3368 -0.0790
15823TIP3    H168884   5.949   3.430   5.062 -0.2324 -1.1597  0.4767
15823TIP3    H268885   5.974   3.386   4.920 -0.1438  0.3736 -0.0033
15824TIP3   OH268886   4.839   4.825   3.743 -0.0207  0.1789 -0.5709
15824TIP3    H168887   4.790   4.759   3.694 -1.4361  2.7436 -2.9037
15824TIP3    H268888   4.781   4.902   3.744  0.9960  1.0904  3.1099
15825TIP3   OH268889   6.405   3.027   4.815 -0.1877  0.0032 -0.6109
15825TIP3    H168890   6.382   3.031   4.722  0.8731 -0.4458 -0.9016
15825TIP3    H268891   6.345   2.961   4.851 -1.0488  0.6521 -0.8287
15826TIP3   OH268892   6.137   6.398  12.810 -0.0370  0.2052  0.2648
15826TIP3    H168893   6.050   6.356  12.811 -0.1868  0.4134 -1.1356
15826TIP3    H268894   6.154   6.420  12.901 -1.0518 -0.6813  0.6967
15827TIP3   OH268895   2.205   4.112   2.182 -0.0328  0.0625  0.7148
15827TIP3    H168896   2.274   4.143   2.240 -1.5607  0.8511  2.1994
15827TIP3    H268897   2.126   4.111   2.237 -1.2963 -0.3813 -1.0216
15828TIP3   OH268898   2.549   1.529  12.292 -0.5078  0.3828 -0.2853
15828TIP3    H168899   2.477   1.471  12.318 -0.4962  0.8610  0.8810
15828TIP3    H268900   2.516   1.617  12.310  0.0242  0.6554 -0.6361
15829TIP3   OH268901   1.721   3.099  16.594 -0.6239  0.2950 -0.0312
15829TIP3    H168902   1.715   3.185  16.554  1.0174  1.9498  2.9612
15829TIP3    H268903   1.797   3.058  16.551  1.2067  2.0814  1.3571
15830TIP3   OH268904   4.196   0.355  17.074 -0.2119  0.1390  0.0285
15830TIP3    H168905   4.202   0.429  17.134 -0.0499  0.3458 -0.2426
15830TIP3    H268906   4.222   0.390  16.989  3.1654 -0.9687  0.4643
15831TIP3   OH268907   5.505   1.490  16.947 -0.3551  0.0151 -0.0455
15831TIP3    H168908   5.468   1.402  16.959  0.7778 -0.6414 -1.1673
15831TIP3    H268909   5.582   1.492  17.005  1.1293 -0.7048 -1.8983
15832TIP3   OH268910   3.459   3.886   4.798 -0.2787  0.3615  0.0081
15832TIP3    H168911   3.381   3.829   4.799 -0.5580  0.5598  3.4661
15832TIP3    H268912   3.531   3.827   4.822  0.0546  0.8019  0.0876
15833TIP3   OH268913   5.728   6.598  10.971  0.3384  0.9063 -0.1165
15833TIP3    H168914   5.775   6.678  10.996  1.0796 -0.2167  2.3108
15833TIP3    H268915   5.795   6.543  10.931  0.3103  0.6316  0.2193
15834TIP3   OH268916   3.037   1.405  14.277  0.5690 -0.0885 -0.5481
15834TIP3    H168917   3.100   1.334  14.279 -0.7973 -1.3394  1.4982
15834TIP3    H268918   3.041   1.444  14.364 -1.1115  0.1042 -0.5137
15835TIP3   OH268919   1.472   0.551  14.173 -0.3412 -0.5145 -0.9652
15835TIP3    H168920   1.552   0.603  14.169  1.6945 -2.8991  2.9691
15835TIP3    H268921   1.479   0.491  14.098  1.2982 -0.3086 -1.0180
15836TIP3   OH268922   3.527   2.871  13.334 -0.0549  0.1921  0.3525
15836TIP3    H168923   3.555   2.818  13.259  0.2912  1.0775 -0.1493
15836TIP3    H268924   3.519   2.808  13.405 -2.6502 -1.1129 -0.9500
15837TIP3   OH268925   0.802   2.394  16.853  0.1230  0.1170 -0.4671
15837TIP3    H168926   0.761   2.465  16.902 -1.4459 -0.9857 -0.1099
15837TIP3    H268927   0.734   2.363  16.794  0.7118 -1.1930 -0.4900
15838TIP3   OH268928   5.603   0.248   3.713  0.0132  0.0894 -0.2355
15838TIP3    H168929   5.589   0.200   3.631 -2.5875 -0.4591  0.4286
15838TIP3    H268930   5.646   0.184   3.770  0.5688  0.0252 -0.7054
15839TIP3   OH268931   5.907   1.997   6.599  0.0437  0.0720  0.0098
15839TIP3    H168932   5.949   2.081   6.579 -1.1739  0.7822  0.3052
15839TIP3    H268933   5.874   2.008   6.688  0.4524 -0.9813  0.3003
15840TIP3   OH268934   3.143   0.440  12.569  0.6550 -0.1275  0.4364
15840TIP3    H168935   3.069   0.391  12.534 -0.2731 -0.4864  2.7028
15840TIP3    H268936   3.150   0.517  12.512  0.0772 -1.2561 -1.2384
15841TIP3   OH268937   1.946   1.925  17.123  0.1954 -0.7728 -0.2135
15841TIP3    H168938   1.882   1.898  17.189  0.5129 -1.7121 -0.2757
15841TIP3    H268939   1.936   2.020  17.117 -1.2143 -0.8972 -0.2365
15842TIP3   OH268940   5.506   6.362   1.563 -0.3235 -0.0552  0.3942
15842TIP3    H168941   5.483   6.312   1.642  0.9965 -0.4810  0.5365
15842TIP3    H268942   5.445   6.330   1.496 -1.7427  0.6110  1.3211
15843TIP3   OH268943   4.728   2.212   6.732 -0.0709  0.2142  0.3223
15843TIP3    H168944   4.727   2.132   6.784  0.6972 -0.3156 -0.4564
15843TIP3    H268945   4.642   2.216   6.691  0.4943 -1.1922 -1.0782
15844TIP3   OH268946   2.218   0.318   4.590  0.5832 -0.1144  0.5554
15844TIP3    H168947   2.167   0.255   4.640  0.5520  0.6455  1.5209
15844TIP3    H268948   2.155   0.383   4.561  0.3296 -1.3292 -1.8579
15845TIP3   OH268949   6.554   6.327   1.886  0.8823 -0.1126 -0.1586
15845TIP3    H168950   6.487   6.279   1.935  0.4289  1.2881  0.6248
15845TIP3    H268951   6.524   6.325   1.796  0.4687 -0.6235 -0.0153
15846TIP3   OH268952   4.054   3.909  14.393  0.4801  0.3430 -0.1667
15846TIP3    H168953   4.103   3.853  14.453  1.6683 -0.6482 -1.9958
15846TIP3    H268954   3.963   3.882  14.405  0.8063 -0.5237  0.4818
15847TIP3   OH268955   0.592   4.325   2.937 -0.2103 -0.3524 -0.2359
15847TIP3    H168956   0.542   4.261   2.886  0.4372 -0.3415 -0.8911
15847TIP3    H268957   0.557   4.410   2.908 -0.1961 -0.3627 -0.2829
15848TIP3   OH268958   0.964   2.661  11.180  0.4221  0.5584 -0.3623
15848TIP3    H168959   1.038   2.618  11.137  1.3188  0.7863  0.9131
15848TIP3    H268960   0.923   2.592  11.232  0.4985  0.7108 -0.0957
15849TIP3   OH268961   5.637   3.382  14.247 -0.1566 -0.1049 -0.2665
15849TIP3    H168962   5.705   3.324  14.212 -0.3321 -0.8359  0.5638
15849TIP3    H268963   5.562   3.368  14.190 -0.3629 -1.1066  0.2163
15850TIP3   OH268964   2.353   4.755  15.204 -0.7834 -0.3056  0.3152
15850TIP3    H168965   2.342   4.745  15.299 -0.5789 -2.1016  0.1978
15850TIP3    H268966   2.354   4.665  15.171  1.0192  0.2103 -1.1840
15851TIP3   OH268967   3.126   5.663   1.383  0.0956 -0.0636  0.0840
15851TIP3    H168968   3.202   5.671   1.326 -0.5724  0.4595 -0.7649
15851TIP3    H268969   3.129   5.572   1.415 -0.2167 -0.8103 -1.8532
15852TIP3   OH268970   2.560   5.062   1.422 -0.5057 -0.0481  0.1770
15852TIP3    H168971   2.543   5.138   1.366 -0.2866 -0.4188 -0.4129
15852TIP3    H268972   2.615   5.005   1.368  2.1122  0.8172  1.7426
15853TIP3   OH268973   6.566   5.547   1.530  0.1122  0.3019  0.0420
15853TIP3    H168974   6.641   5.500   1.568  0.4382  0.7271 -0.0804
15853TIP3    H268975   6.603   5.602   1.462 -0.5094 -0.6949 -1.1374
15854TIP3   OH268976   0.947   5.038  13.097  0.4972 -0.9444  0.2362
15854TIP3    H168977   1.017   5.071  13.153 -0.5435  1.2907  0.3510
15854TIP3    H268978   0.910   4.964  13.146  2.5884 -2.0614  0.2455
15855TIP3   OH268979   1.773   3.944  17.281  0.5609  0.5345 -0.5612
15855TIP3    H168980   1.863   3.922  17.257 -0.0331 -1.9455 -0.7859
15855TIP3    H268981   1.729   3.859  17.290 -2.2290  1.6581 -2.2405
15856TIP3   OH268982   2.276   4.415  14.742 -0.2532  0.5276 -0.2957
15856TIP3    H168983   2.206   4.357  14.772  0.0611  0.6034  0.6194
15856TIP3    H268984   2.233   4.478  14.685 -1.0881  1.1057  0.9360
15857TIP3   OH268985   5.296   3.805   3.244  0.3714  0.1583 -0.0522
15857TIP3    H168986   5.337   3.891   3.239  2.4977 -0.7522  0.4441
15857TIP3    H268987   5.205   3.822   3.269  0.6175  2.2612 -0.4714
15858TIP3   OH268988   2.418   2.997   1.144  0.0157 -0.1576  0.1110
15858TIP3    H168989   2.440   2.938   1.215 -1.4561 -0.6577  0.1937
15858TIP3    H268990   2.329   3.027   1.165 -0.4022 -0.2327 -1.4492
15859TIP3   OH268991   5.486   1.663  16.299  0.2819 -0.5191 -0.3543
15859TIP3    H168992   5.525   1.690  16.383  2.2259  1.3820 -1.7391
15859TIP3    H268993   5.411   1.722  16.288 -0.2281 -1.0491  0.2149
15860TIP3   OH268994   0.259   0.364  15.437  0.0807 -0.1725  0.0018
15860TIP3    H168995   0.315   0.435  15.407  1.6794 -1.0629  0.7340
15860TIP3    H268996   0.253   0.305  15.362 -1.4779  0.8246 -0.6984
15861TIP3   OH268997   5.932   6.738  13.674  0.6290  0.0877  0.0424
15861TIP3    H168998   6.000   6.752  13.741  1.2027  1.7693 -0.8309
15861TIP3    H268999   5.862   6.799  13.698  0.8948  0.7981 -0.9288
15862TIP3   OH269000   3.985   4.550  14.198 -0.1096 -0.0461  0.3750
15862TIP3    H169001   4.050   4.500  14.148  0.4439  1.4098 -0.3956
15862TIP3    H269002   4.036   4.614  14.247 -1.0050  2.2653 -1.5492
15863TIP3   OH269003   5.707   2.276  11.500  0.1577  0.1484 -0.1508
15863TIP3    H169004   5.685   2.283  11.407  1.3477  1.5342 -0.3821
15863TIP3    H269005   5.673   2.357  11.539  1.4449  0.5747  0.1722
15864TIP3   OH269006   4.354   5.295  16.321  0.2642  0.0289 -0.1896
15864TIP3    H169007   4.420   5.238  16.281  1.7143  1.8223 -0.4595
15864TIP3    H269008   4.390   5.316  16.407 -0.3393  0.4012 -0.0181
15865TIP3   OH269009   3.621   3.630   0.203 -0.2055 -0.2485 -0.1408
15865TIP3    H169010   3.643   3.574   0.128 -3.9201 -0.4276 -1.2848
15865TIP3    H269011   3.687   3.608   0.269  0.4162 -3.6412 -1.6582
15866TIP3   OH269012   6.445   5.965   3.464 -0.0295  0.2611 -0.4394
15866TIP3    H169013   6.402   6.039   3.421 -0.1804  1.0394  0.9941
15866TIP3    H269014   6.374   5.921   3.512  0.5496  0.8988  1.0443
15867TIP3   OH269015   5.632   0.203  14.896 -0.1416  0.3680  0.2269
15867TIP3    H169016   5.607   0.209  14.988  0.6333  1.3512  0.3945
15867TIP3    H269017   5.598   0.283  14.857 -1.3321 -0.5095 -0.5732
15868TIP3   OH269018   4.935   1.980  12.856  0.2508 -0.2869  0.3545
15868TIP3    H169019   4.981   2.018  12.781 -1.2171  1.0639  0.0806
15868TIP3    H269020   4.933   1.886  12.839  1.6741 -0.2215 -0.2908
15869TIP3   OH269021   0.743   5.640  14.858  0.0803 -0.6896 -0.1320
15869TIP3    H169022   0.655   5.602  14.866  0.5773 -1.5541  1.7007
15869TIP3    H269023   0.785   5.588  14.789 -0.4747 -1.0123 -0.2336
15870TIP3   OH269024   1.465   3.835   4.920  0.2510  0.4448  0.4714
15870TIP3    H169025   1.503   3.905   4.974 -1.5149  1.6989  0.1787
15870TIP3    H269026   1.385   3.810   4.967 -0.1047 -0.0753 -0.3981
15871TIP3   OH269027   4.168   4.127   5.447  0.0913 -0.3342 -0.4306
15871TIP3    H169028   4.152   4.100   5.537  0.2939  0.2776 -0.2064
15871TIP3    H269029   4.221   4.207   5.454  2.3416 -1.6738 -1.1276
15872TIP3   OH269030   5.154   6.684   2.087 -0.2043 -0.2086  0.2179
15872TIP3    H169031   5.094   6.692   2.161  1.3063  0.1243  1.4638
15872TIP3    H269032   5.110   6.730   2.016 -1.6972 -0.5239  0.8910
15873TIP3   OH269033   1.532   5.040   0.973  0.3009 -0.5897  0.1497
15873TIP3    H169034   1.535   5.103   1.045  0.8608  2.9755 -2.6955
15873TIP3    H269035   1.620   5.041   0.936 -0.1340 -1.8091 -0.9906
15874TIP3   OH269036   3.294   6.676  16.002  0.2082 -0.6617  0.4034
15874TIP3    H169037   3.287   6.760  15.957 -1.4464 -0.4502  0.9836
15874TIP3    H269038   3.356   6.626  15.950  0.2952  0.4763 -0.6378
15875TIP3   OH269039   5.125   6.553   0.508  0.3012  0.1003 -0.3662
15875TIP3    H169040   5.133   6.613   0.434 -4.4653  2.3790  0.5295
15875TIP3    H269041   5.119   6.466   0.469  0.6988  0.9213 -2.3649
15876TIP3   OH269042   3.124   0.264  11.520  0.5995 -0.3359 -0.1967
15876TIP3    H169043   3.094   0.174  11.530  0.3703 -0.4920 -2.0629
15876TIP3    H269044   3.061   0.315  11.572 -0.3965 -1.0731 -0.6464
15877TIP3   OH269045   6.015   2.568  16.568 -0.6493 -0.8511  0.0940
15877TIP3    H169046   5.930   2.600  16.539  0.2803  0.3574 -1.4042
15877TIP3    H269047   6.038   2.624  16.643 -0.5059 -0.1799 -0.4466
15878TIP3   OH269048   5.335   6.436  14.298 -0.1729 -0.5269 -0.2212
15878TIP3    H169049   5.344   6.526  14.268  0.6354 -0.0180  1.4197
15878TIP3    H269050   5.241   6.425  14.314 -0.2925 -0.0334 -0.5704
15879TIP3   OH269051   5.528   1.890  15.751 -0.4346  0.0979 -0.4031
15879TIP3    H169052   5.456   1.827  15.758 -0.2970 -0.1684 -1.2389
15879TIP3    H269053   5.539   1.925  15.840 -0.0438 -1.5868  0.2555
15880TIP3   OH269054   0.949   3.174  11.741  0.4404 -0.7457  0.2513
15880TIP3    H169055   0.936   3.204  11.651 -1.9972 -0.6156  0.5999
15880TIP3    H269056   1.003   3.242  11.781  0.1672  0.0250 -0.6627
15881TIP3   OH269057   5.638   1.031   5.736  0.0003 -0.1905  0.4074
15881TIP3    H169058   5.722   0.995   5.707  1.2517  1.7009  1.4549
15881TIP3    H269059   5.637   1.017   5.831 -0.7673  0.0046  0.4382
15882TIP3   OH269060   1.169   3.849  12.712 -0.4263 -0.6224  0.4919
15882TIP3    H169061   1.122   3.826  12.631 -0.1098  1.2132 -0.2818
15882TIP3    H269062   1.232   3.916  12.684  0.6185 -0.9249  2.0429
15883TIP3   OH269063   1.092   3.160   1.528  0.2584 -0.3120  0.2835
15883TIP3    H169064   1.085   3.121   1.614  0.5074  0.6553  0.7639
15883TIP3    H269065   1.081   3.254   1.543 -0.8566 -0.2263 -0.8879
15884TIP3   OH269066   6.196   2.610   6.280 -0.0471  0.6493  1.1210
15884TIP3    H169067   6.234   2.688   6.322  1.4277  0.8435 -0.4124
15884TIP3    H269068   6.126   2.582   6.339  1.1906  1.5032  3.1141
15885TIP3   OH269069   6.446   5.093  10.797 -0.0025  0.3180 -0.3658
15885TIP3    H169070   6.354   5.066  10.792 -0.2635  1.3043 -1.1552
15885TIP3    H269071   6.446   5.169  10.856  0.4718 -0.3258  0.4809
15886TIP3   OH269072   0.615   4.656   2.068  0.2951  0.0727  0.2035
15886TIP3    H169073   0.546   4.590   2.065  1.2836 -0.9533 -0.8213
15886TIP3    H269074   0.589   4.714   2.140 -0.7914 -1.2049  0.8932
15887TIP3   OH269075   3.098   6.533   0.765  0.1795 -0.1875 -0.0759
15887TIP3    H169076   3.080   6.593   0.837  1.2745 -0.1697  0.1982
15887TIP3    H269077   3.022   6.543   0.706 -0.6380 -0.0710  0.9635
15888TIP3   OH269078   0.952   2.904  15.313  0.2456 -0.4986 -0.0452
15888TIP3    H169079   0.955   2.984  15.259  0.9029  0.1493  0.9100
15888TIP3    H269080   0.986   2.932  15.398 -1.9453 -1.1680  1.1337
15889TIP3   OH269081   3.858   0.598   5.841  0.3286 -0.0545  0.1876
15889TIP3    H169082   3.782   0.564   5.794 -0.0734 -1.3545  1.6994
15889TIP3    H269083   3.871   0.537   5.914  2.9307  0.0196 -0.0983
15890TIP3   OH269084   1.689   0.791   3.455  0.2845  0.0131  0.2786
15890TIP3    H169085   1.688   0.698   3.433 -0.4639  0.3937 -1.4693
15890TIP3    H269086   1.599   0.810   3.483 -0.0935  0.5863 -1.2343
15891TIP3   OH269087   4.229   5.085  11.596  0.1119 -0.0918  0.4366
15891TIP3    H169088   4.213   5.179  11.603  1.7662  0.1967  0.7917
15891TIP3    H269089   4.161   5.053  11.537  0.5418  1.6118 -1.0496
15892TIP3   OH269090   2.308   4.630   3.320 -0.0637  0.4457 -0.6308
15892TIP3    H169091   2.272   4.689   3.254  0.2616  0.7745 -0.5129
15892TIP3    H269092   2.378   4.582   3.274 -0.0001  0.5004 -0.5903
15893TIP3   OH269093   1.523   0.848   0.007 -0.4136 -0.1128 -0.3131
15893TIP3    H169094   1.541   0.929   0.054  0.4328  0.0883 -0.9494
15893TIP3    H269095   1.599   0.792   0.026  0.0485  0.0464 -1.5589
15894TIP3   OH269096   4.277   1.235   2.552 -0.2834  0.9617 -0.4778
15894TIP3    H169097   4.284   1.251   2.646 -0.0119 -2.0630  0.1397
15894TIP3    H269098   4.188   1.200   2.540  0.1913 -0.1017 -1.0441
15895TIP3   OH269099   5.987   1.939  10.676  0.0069 -0.3931 -0.0243
15895TIP3    H169100   5.900   1.963  10.708 -0.0342  0.0363 -0.4449
15895TIP3    H269101   5.981   1.945  10.581  1.4678  3.3865 -0.0688
15896TIP3   OH269102   1.511   3.262  12.925  0.3297  0.2343  0.0882
15896TIP3    H169103   1.544   3.293  12.841  0.2622  0.9367  0.3105
15896TIP3    H269104   1.552   3.319  12.990  0.6440 -0.5162  0.5629
15897TIP3   OH269105   2.456   6.671   0.128  0.0312  0.3793  0.1971
15897TIP3    H169106   2.412   6.743   0.174 -2.0919  1.0589 -2.6291
15897TIP3    H269107   2.445   6.692   0.035 -1.6001 -4.0786 -0.8611
15898TIP3   OH269108   5.889   4.375  11.709 -0.2639  0.4092 -0.5088
15898TIP3    H169109   5.894   4.407  11.619 -2.4180  0.1056 -0.7851
15898TIP3    H269110   5.841   4.293  11.702  1.3694 -0.7140  0.7094
15899TIP3   OH269111   3.537   4.003   2.432  0.2219  0.3312  0.0843
15899TIP3    H169112   3.622   4.009   2.390  0.1765 -1.4979 -0.3693
15899TIP3    H269113   3.475   3.986   2.360 -0.7218  2.6130  0.2755
15900TIP3   OH269114   5.506   2.255  13.285  0.1059  0.6152 -0.2019
15900TIP3    H169115   5.426   2.205  13.302 -0.3027  0.5782 -2.0261
15900TIP3    H269116   5.516   2.253  13.190  1.6231  1.6560 -0.1021
15901TIP3   OH269117   3.165   6.367   2.231  0.2244 -0.1637 -0.0383
15901TIP3    H169118   3.150   6.335   2.319 -1.9097 -0.7522 -0.5547
15901TIP3    H269119   3.162   6.288   2.176 -0.2705  0.3793 -0.8138
15902TIP3   OH269120   0.247   2.228  16.750 -0.1794 -0.1614  0.3222
15902TIP3    H169121   0.330   2.221  16.702 -0.2054  2.3008 -0.2070
15902TIP3    H269122   0.271   2.211  16.841  1.0467  1.0342  0.2571
15903TIP3   OH269123   4.831   5.837   2.562 -0.6655  0.8572  0.6304
15903TIP3    H169124   4.798   5.840   2.472  0.0683 -0.1070  0.3121
15903TIP3    H269125   4.855   5.928   2.582 -0.0345  0.9512 -0.4604
15904TIP3   OH269126   6.690   3.593   5.294  0.4042  0.7749 -0.2239
15904TIP3    H169127   6.668   3.685   5.281 -0.4878  0.5184 -0.6105
15904TIP3    H269128   6.701   3.558   5.205 -0.0628  0.3273 -0.1133
15905TIP3   OH269129   6.207   6.331  12.141 -0.0456  0.0397  0.2099
15905TIP3    H169130   6.289   6.285  12.124  0.3484  0.2536  1.4499
15905TIP3    H269131   6.175   6.293  12.222  0.4865  2.1715  1.4966
15906TIP3   OH269132   5.381   0.433   3.037 -0.0165 -0.5034  0.1903
15906TIP3    H169133   5.467   0.398   3.013 -0.4011 -1.3602  0.0403
15906TIP3    H269134   5.319   0.384   2.983 -0.5609  0.5796 -0.1988
15907TIP3   OH269135   5.808   1.285   3.447 -0.5289  0.0299  0.2615
15907TIP3    H169136   5.743   1.331   3.499  0.4438  1.1389  0.5267
15907TIP3    H269137   5.840   1.216   3.504  0.6575  1.3436  1.2511
15908TIP3   OH269138   5.132   4.323  14.715  0.3251  0.4130  0.1744
15908TIP3    H169139   5.053   4.288  14.675  1.2040  0.6383 -1.9321
15908TIP3    H269140   5.186   4.245  14.733  0.2808  0.3675  0.1112
15909TIP3   OH269141   2.585   5.069   5.107  0.2079  0.1634  0.2882
15909TIP3    H169142   2.676   5.049   5.086  0.2672  0.2985  0.4136
15909TIP3    H269143   2.570   5.155   5.069  0.0148 -0.0299 -0.0719
15910TIP3   OH269144   3.253   2.059   2.057 -0.4747 -0.1019  0.5800
15910TIP3    H169145   3.270   2.054   2.151  1.4833 -0.5600  0.2364
15910TIP3    H269146   3.165   2.097   2.051 -0.1259  1.1797  2.5476
15911TIP3   OH269147   6.170   1.071   2.483  0.7403  0.5918 -0.1291
15911TIP3    H169148   6.134   1.158   2.503 -1.6884 -0.0064 -1.4154
15911TIP3    H269149   6.102   1.030   2.429  3.8518 -0.3397 -3.7270
15912TIP3   OH269150   5.639   4.440   5.961  0.3438 -0.0859 -0.0695
15912TIP3    H169151   5.688   4.433   6.043 -0.4235  1.0647  0.5112
15912TIP3    H269152   5.604   4.529   5.961 -0.9451 -0.5553 -0.9159
15913TIP3   OH269153   2.368   0.838   4.815  0.4246  0.2412  0.4758
15913TIP3    H169154   2.400   0.883   4.736  1.6237  1.2109  1.4878
15913TIP3    H269155   2.386   0.745   4.799  1.6576  0.5413  0.0611
15914TIP3   OH269156   4.997   2.904   1.905  0.4837  0.3966  0.5891
15914TIP3    H169157   5.020   2.812   1.917 -2.3799 -0.7699 -1.6823
15914TIP3    H269158   4.922   2.917   1.963  0.8041  1.2990  0.8124
15915TIP3   OH269159   3.288   2.623  11.016 -0.1838 -0.2084  0.4425
15915TIP3    H169160   3.201   2.624  11.057  0.7755  0.2111  2.6480
15915TIP3    H269161   3.323   2.711  11.034  0.5346 -0.2232 -0.8164
15916TIP3   OH269162   1.924   3.368  13.962  0.0366  0.3023  0.2578
15916TIP3    H169163   1.898   3.290  13.914 -0.0965  0.1901  0.5099
15916TIP3    H269164   2.013   3.348  13.992 -0.9321 -0.9116  2.6609
15917TIP3   OH269165   1.404   5.931   2.911  0.3322  0.0683  0.0265
15917TIP3    H169166   1.445   5.961   2.830  0.4292 -1.3355 -0.4587
15917TIP3    H269167   1.324   5.886   2.883 -0.8178  1.4605  0.8613
15918TIP3   OH269168   0.623   1.833   2.260 -0.4945  0.2960 -0.1390
15918TIP3    H169169   0.605   1.741   2.241  2.5381 -0.5301  0.4753
15918TIP3    H269170   0.673   1.832   2.341 -2.1698  2.7207  1.0498
15919TIP3   OH269171   3.613   6.029   5.330  0.3165  0.7787 -0.4726
15919TIP3    H169172   3.541   5.981   5.370  1.6183 -0.8766 -0.0087
15919TIP3    H269173   3.588   6.038   5.238 -0.6082  0.5164 -0.2567
15920TIP3   OH269174   1.941   1.040  15.443 -0.5396  0.4355  0.0915
15920TIP3    H169175   2.017   1.022  15.500 -1.3849 -0.5359  0.9601
15920TIP3    H269176   1.979   1.054  15.357  0.6685  0.3689  0.5856
15921TIP3   OH269177   1.737   5.018  13.123 -0.0222 -0.0072 -0.4428
15921TIP3    H169178   1.751   4.925  13.105 -0.1545 -0.3442  1.0263
15921TIP3    H269179   1.766   5.063  13.044  1.5317 -1.2032 -0.6002
15922TIP3   OH269180   0.289   0.783  14.657 -0.4825 -0.0279 -0.2742
15922TIP3    H169181   0.297   0.689  14.678 -0.3450 -0.2799 -1.3979
15922TIP3    H269182   0.379   0.815  14.660 -0.6219  0.3104  1.0855
15923TIP3   OH269183   5.033   2.290  12.996 -0.5130 -0.8918  0.1243
15923TIP3    H169184   4.943   2.275  13.026 -0.3697 -1.2930  0.3625
15923TIP3    H269185   5.028   2.287  12.901 -1.1479  1.3395  0.0333
15924TIP3   OH269186   0.894   2.177   4.637 -0.4466  0.0313 -0.7243
15924TIP3    H169187   0.865   2.217   4.719  0.3963  1.6095 -1.1529
15924TIP3    H269188   0.862   2.236   4.568  1.5693  0.5115 -1.3247
15925TIP3   OH269189   3.730   5.068   3.690 -0.6923  0.3319 -0.0180
15925TIP3    H169190   3.677   5.126   3.635 -1.5936  1.0690  1.5640
15925TIP3    H269191   3.747   4.992   3.635 -0.9886  1.3281 -1.5412
15926TIP3   OH269192   0.007   4.242   4.647 -0.0111  0.2659  0.3695
15926TIP3    H169193   0.048   4.224   4.732  0.6445  3.4333  0.8370
15926TIP3    H269194   0.059   4.191   4.585  0.5086 -0.8617  1.6734
15927TIP3   OH269195   0.775   5.168   1.242  0.2885 -0.7197 -0.7465
15927TIP3    H169196   0.804   5.228   1.173 -1.2553  1.6482  0.5259
15927TIP3    H269197   0.815   5.202   1.322  0.5831 -2.3249 -0.1743
15928TIP3   OH269198   0.781   0.203   0.784 -0.2757 -0.0849  0.0443
15928TIP3    H169199   0.862   0.154   0.768 -1.3119 -1.8836  0.0033
15928TIP3    H269200   0.774   0.264   0.711 -0.2856 -1.7735 -1.4354
15929TIP3   OH269201   4.917   1.791   3.605  0.4797  0.0739  0.2136
15929TIP3    H169202   4.938   1.866   3.551 -1.7610 -0.6647 -1.8555
15929TIP3    H269203   4.861   1.736   3.550  1.3607 -2.7373  1.8992
15930TIP3   OH269204   5.463   3.281  12.718  0.6914  0.1998 -0.3992
15930TIP3    H169205   5.424   3.193  12.716 -0.6923  0.7795  0.0841
15930TIP3    H269206   5.417   3.329  12.649  1.4503  0.5540 -0.6680
15931TIP3   OH269207   0.562   4.693   4.569  0.2377 -0.1544 -0.2758
15931TIP3    H169208   0.567   4.788   4.561 -1.8320 -0.0554 -0.9039
15931TIP3    H269209   0.470   4.674   4.587  0.2643 -2.1306 -1.7836
15932TIP3   OH269210   0.481   2.519  15.144  0.2519  0.1946 -0.3126
15932TIP3    H169211   0.534   2.506  15.222  1.2726 -1.1624 -1.1786
15932TIP3    H269212   0.543   2.553  15.079 -0.3123  0.1944 -0.8565
15933TIP3   OH269213   3.031   6.612  11.068 -0.9188  0.1982 -0.1089
15933TIP3    H169214   2.971   6.632  10.996  0.1586  2.2516 -0.5370
15933TIP3    H269215   3.105   6.570  11.026 -1.6973 -1.6950  0.3225
15934TIP3   OH269216   5.896   4.570  13.977  0.0435 -0.0209  0.5263
15934TIP3    H169217   5.970   4.517  13.950 -0.1568  0.2877 -0.6917
15934TIP3    H269218   5.919   4.600  14.065  1.3376  0.0217  0.1952
15935TIP3   OH269219   5.205   6.773   1.012 -0.1578 -0.4627  0.3199
15935TIP3    H169220   5.129   6.716   1.005 -0.0645 -0.5908  0.3474
15935TIP3    H269221   5.174   6.849   1.061 -1.1469  0.9666 -2.2797
15936TIP3   OH269222   3.894   4.328  15.212  0.2023 -0.1749 -0.2240
15936TIP3    H169223   3.933   4.414  15.200  1.1676 -0.5198  0.3044
15936TIP3    H269224   3.937   4.293  15.291  0.5326 -1.5190 -0.9700
15937TIP3   OH269225   6.733   1.412  16.078 -0.4663  0.2005  0.3350
15937TIP3    H169226   6.784   1.357  16.019 -2.8481 -0.6728 -1.0413
15937TIP3    H269227   6.676   1.350  16.124 -0.7966  1.2111  1.3183
15938TIP3   OH269228   4.110   6.452   0.467 -0.4400 -0.3871  0.2344
15938TIP3    H169229   4.119   6.377   0.409  0.6917 -0.2275  0.1750
15938TIP3    H269230   4.197   6.464   0.504 -0.1748  1.7827 -0.8879
15939TIP3   OH269231   4.342   5.953   5.711 -0.1264 -0.6365  0.3456
15939TIP3    H169232   4.417   5.956   5.771  0.4501 -0.2206 -0.3879
15939TIP3    H269233   4.284   5.886   5.749  0.0570 -0.1308  1.5586
15940TIP3   OH269234   5.726   3.637  15.367 -0.7469  0.4526 -0.0103
15940TIP3    H169235   5.736   3.717  15.316 -0.1670 -0.4195 -1.2960
15940TIP3    H269236   5.632   3.632  15.385 -0.8898  1.0253 -0.5687
15941TIP3   OH269237   4.134   6.044   4.317  0.2210 -0.2567 -0.0099
15941TIP3    H169238   4.080   6.083   4.386  1.2702  1.6827 -0.2108
15941TIP3    H269239   4.218   6.027   4.360  1.0438  1.4085 -0.8502
15942TIP3   OH269240   0.490   4.358  11.590 -0.4019  0.3030  0.2933
15942TIP3    H169241   0.583   4.369  11.568 -0.1425 -0.5093  0.9129
15942TIP3    H269242   0.453   4.446  11.582  0.4921  0.7018  0.3506
15943TIP3   OH269243   3.923   3.069  13.725 -0.0399  0.2497 -0.0668
15943TIP3    H169244   3.947   2.980  13.701  0.4219  1.2818 -4.2268
15943TIP3    H269245   3.831   3.077  13.698 -0.0696  1.0817  0.2411
15944TIP3   OH269246   1.414   5.779  16.091  0.7736  0.0313 -0.2955
15944TIP3    H169247   1.495   5.828  16.079  0.9143 -0.2688 -0.5895
15944TIP3    H269248   1.345   5.839  16.060  0.8934  0.2397 -0.1591
15945TIP3   OH269249   2.573   5.820  14.043 -0.2993 -0.4887 -0.0558
15945TIP3    H169250   2.561   5.754  13.975 -0.5450  0.7120 -1.2079
15945TIP3    H269251   2.667   5.819  14.061  0.0765  0.4517 -1.7655
15946TIP3   OH269252   6.199   1.358   6.136  0.0137 -0.3798  0.0767
15946TIP3    H169253   6.234   1.335   6.222  1.4547 -0.7972 -0.5824
15946TIP3    H269254   6.241   1.442   6.116 -0.1849 -0.3651 -0.2792
15947TIP3   OH269255   0.826   6.013   4.832 -0.2741 -0.8079  0.5314
15947TIP3    H169256   0.794   6.027   4.921 -0.1857 -1.0089  0.5955
15947TIP3    H269257   0.839   6.101   4.796 -1.2727 -0.7227  0.3703
15948TIP3   OH269258   0.216   4.747   2.136 -0.3915  0.0604 -0.5615
15948TIP3    H169259   0.260   4.667   2.163  1.0279  0.6108 -1.1093
15948TIP3    H269260   0.142   4.718   2.084 -0.9319 -0.9134  0.7008
15949TIP3   OH269261   4.328   3.808  11.398  0.1892 -0.2493  0.2286
15949TIP3    H169262   4.354   3.817  11.306 -1.0023  1.7448  0.0197
15949TIP3    H269263   4.309   3.897  11.426 -0.5185 -0.9402  2.1077
15950TIP3   OH269264   4.849   4.063   0.331  0.2692 -0.2765  0.5777
15950TIP3    H169265   4.779   4.099   0.276 -0.1156 -0.5848  0.8677
15950TIP3    H269266   4.900   4.140   0.357  0.0893 -0.0598  0.2991
15951TIP3   OH269267   3.683   1.025  11.419  0.1259  0.0751 -0.1212
15951TIP3    H169268   3.716   1.081  11.489 -0.2801  1.2214 -0.8273
15951TIP3    H269269   3.684   0.937  11.457  0.6375  0.5662  1.0572
15952TIP3   OH269270   4.657   4.285  11.018 -0.5089 -0.5153 -0.6187
15952TIP3    H169271   4.615   4.214  10.970 -1.2906 -0.8593  0.5147
15952TIP3    H269272   4.624   4.276  11.108 -0.4548  1.1431 -0.3916
15953TIP3   OH269273   0.343   6.483   1.107 -0.0049 -0.3167  0.4896
15953TIP3    H169274   0.276   6.415   1.102  0.9656 -1.2551 -0.0637
15953TIP3    H269275   0.410   6.456   1.044  0.2545  1.3278  0.0118
15954TIP3   OH269276   1.595   3.647  13.154 -0.5811  0.3709  0.3370
15954TIP3    H169277   1.598   3.709  13.082 -0.2133  0.5094  0.4668
15954TIP3    H269278   1.652   3.685  13.221  1.6607 -1.2572 -0.5150
15955TIP3   OH269279   1.331   4.964   5.302  0.4044 -0.5439 -0.0856
15955TIP3    H169280   1.340   5.013   5.384  0.8025  0.8613 -0.9302
15955TIP3    H269281   1.243   4.926   5.306 -0.5032  1.4301  0.0265
15956TIP3   OH269282   0.854   1.429   6.423  0.0164 -0.0518 -0.0936
15956TIP3    H169283   0.824   1.369   6.492 -0.0258 -0.8726 -0.8120
15956TIP3    H269284   0.949   1.435   6.437 -0.0551  0.1637  0.3255
15957TIP3   OH269285   5.967   4.860  15.203  0.1871 -0.0675  0.0678
15957TIP3    H169286   5.923   4.813  15.132 -1.0440  0.4823  0.4540
15957TIP3    H269287   5.949   4.953  15.186  0.0737  0.0866  0.9666
15958TIP3   OH269288   0.642   2.181  12.872  0.2454 -0.1975 -0.0293
15958TIP3    H169289   0.546   2.183  12.875  0.2335 -0.0178 -0.5394
15958TIP3    H269290   0.666   2.111  12.933 -0.1443  0.7709  1.3044
15959TIP3   OH269291   6.636   1.989   2.259  0.2284 -0.0593 -0.1767
15959TIP3    H169292   6.703   2.006   2.325  1.2435 -0.9772 -0.9262
15959TIP3    H269293   6.666   1.911   2.214 -1.9132 -1.1430  0.1499
15960TIP3   OH269294   6.104   5.269  12.861 -0.8301 -0.3287  0.2444
15960TIP3    H169295   6.054   5.236  12.786  0.0943 -1.9920  0.3046
15960TIP3    H269296   6.156   5.194  12.890  2.1625  1.4142 -0.1995
15961TIP3   OH269297   2.269   6.212  12.358 -0.3240  0.3593  0.0586
15961TIP3    H169298   2.178   6.241  12.356 -0.5219  0.2372  2.9018
15961TIP3    H269299   2.276   6.164  12.440  1.6923 -1.8773 -1.2968
15962TIP3   OH269300   3.092   3.740   5.739  0.0647 -0.3482  0.3605
15962TIP3    H169301   3.068   3.725   5.648  1.0541  1.1324 -0.1827
15962TIP3    H269302   3.132   3.657   5.767  1.1447 -0.3382 -1.0357
15963TIP3   OH269303   6.566   3.315  13.609 -0.9673 -0.2334  0.0392
15963TIP3    H169304   6.586   3.293  13.518 -0.7436 -0.9787  0.2622
15963TIP3    H269305   6.496   3.380  13.602  0.2933  1.1171 -0.7024
15964TIP3   OH269306   6.211   5.893  11.200  0.5435 -0.0135  0.4329
15964TIP3    H169307   6.208   5.946  11.120  2.9146  1.7876  1.4274
15964TIP3    H269308   6.154   5.939  11.261 -0.2747 -0.6968  0.2068
15965TIP3   OH269309   3.814   1.327  11.198 -0.2124 -0.3943 -0.1659
15965TIP3    H169310   3.752   1.346  11.268  0.4165 -1.0703  0.5830
15965TIP3    H269311   3.873   1.261  11.234  1.9372  1.3353 -0.2605
15966TIP3   OH269312   2.729   2.625   3.687  0.2671 -0.1233 -0.6806
15966TIP3    H169313   2.671   2.585   3.752 -1.2971  0.0137 -1.9404
15966TIP3    H269314   2.755   2.554   3.630 -0.8246  0.2556 -1.6808
15967TIP3   OH269315   6.650   1.869   0.364 -0.0459 -0.2246  0.6532
15967TIP3    H169316   6.657   1.777   0.389  0.6688  0.1719  2.0501
15967TIP3    H269317   6.691   1.917   0.436 -2.1945  1.3277  0.9830
15968TIP3   OH269318   6.307   5.882  11.806  0.0280  0.2938  1.0250
15968TIP3    H169319   6.269   5.856  11.890 -0.5573 -0.5784  0.4914
15968TIP3    H269320   6.287   5.976  11.799 -2.5088 -0.2137  0.5303
15969TIP3   OH269321   1.797   6.206  16.137 -0.4459  0.4217  0.2577
15969TIP3    H169322   1.852   6.265  16.087 -0.2011  1.4674  1.6983
15969TIP3    H269323   1.852   6.179  16.211 -1.0686 -0.4199  0.4270
15970TIP3   OH269324   6.050   0.493  13.944 -0.2926  0.4340 -0.1313
15970TIP3    H169325   6.016   0.562  13.886 -2.5421  0.3632  1.0025
15970TIP3    H269326   5.987   0.490  14.016  1.6882 -0.4183  1.6448
15971TIP3   OH269327   3.203   6.389   5.680  0.1893  0.5064  0.8750
15971TIP3    H169328   3.212   6.356   5.591  0.0723  0.0094  1.0472
15971TIP3    H269329   3.171   6.478   5.669  1.0018  0.7535  0.3927
15972TIP3   OH269330   5.802   1.988  14.211 -0.3543 -0.2268 -0.0395
15972TIP3    H169331   5.893   1.965  14.191 -0.4222 -1.3360  0.8070
15972TIP3    H269332   5.802   2.084  14.215  0.5179 -0.1568 -1.1803
15973TIP3   OH269333   0.811   1.226  16.893  0.4074  0.1292 -0.1293
15973TIP3    H169334   0.860   1.294  16.939  0.3670  0.3216 -0.3740
15973TIP3    H269335   0.734   1.270  16.858  0.3083 -0.0721 -0.1651
15974TIP3   OH269336   1.442   1.130  13.767 -0.0346 -0.0190  0.2653
15974TIP3    H169337   1.428   1.114  13.860  2.1616  1.4402  0.9283
15974TIP3    H269338   1.367   1.182  13.739 -1.1331 -1.1629  0.9810
15975TIP3   OH269339   3.108   4.973   2.982 -0.3686  0.1953  0.0333
15975TIP3    H169340   3.067   4.890   3.005  0.0713 -0.6902 -2.1348
15975TIP3    H269341   3.197   4.967   3.018 -1.1694  0.9795  2.3367
15976TIP3   OH269342   5.288   5.826  12.247  0.1622 -0.0512 -0.0659
15976TIP3    H169343   5.277   5.842  12.341 -0.5685 -0.2771 -0.1107
15976TIP3    H269344   5.207   5.857  12.207 -0.7104 -2.4481 -0.3166
15977TIP3   OH269345   4.832   2.907   6.425  0.2137 -0.0198  0.1503
15977TIP3    H169346   4.862   2.900   6.515  1.1076 -0.8187 -0.1949
15977TIP3    H269347   4.892   2.971   6.385 -0.6331  0.8901  0.2907
15978TIP3   OH269348   2.261   2.775  14.323 -0.1691 -0.2114  0.2272
15978TIP3    H169349   2.353   2.799  14.312  0.7162 -2.3918  2.1062
15978TIP3    H269350   2.213   2.844  14.278  2.3001  2.0248  0.7760
15979TIP3   OH269351   6.666   4.068  11.435 -0.2651 -0.0748 -0.1394
15979TIP3    H169352   6.658   4.163  11.434  0.3878 -0.0222 -0.9191
15979TIP3    H269353   6.582   4.036  11.404 -0.0194  0.2854 -1.2053
15980TIP3   OH269354   3.064   4.790  12.435  0.7876 -0.1436 -0.0218
15980TIP3    H169355   3.091   4.876  12.402 -0.7102  0.9208  1.3609
15980TIP3    H269356   3.089   4.729  12.366  1.0654  1.5048 -1.4584
15981TIP3   OH269357   2.679   2.414   1.573  0.4955  0.5610  0.1711
15981TIP3    H169358   2.772   2.426   1.553  0.1625 -0.7063 -2.4844
15981TIP3    H269359   2.676   2.330   1.619  0.7836  1.4093  1.8299
15982TIP3   OH269360   1.763   1.815   1.797  0.3457 -0.2152  0.1077
15982TIP3    H169361   1.696   1.767   1.748 -0.4471  0.8560  0.0934
15982TIP3    H269362   1.835   1.753   1.808 -0.1519 -1.0032 -0.9491
15983TIP3   OH269363   5.600   1.339  16.697  0.5844  0.4734 -0.4475
15983TIP3    H169364   5.530   1.343  16.632 -0.4102  0.0802  0.5769
15983TIP3    H269365   5.557   1.313  16.778  2.0235 -0.4432  0.0651
15984TIP3   OH269366   5.965   4.199   1.522 -0.1348 -0.7793  0.3205
15984TIP3    H169367   5.993   4.117   1.563  1.4007  0.8118  2.7101
15984TIP3    H269368   6.041   4.227   1.471 -0.1959 -0.2566  0.5110
15985TIP3   OH269369   0.966   1.921   4.549  0.1697  0.6750  0.2916
15985TIP3    H169370   0.953   1.900   4.457 -2.5960 -0.2977  0.8041
15985TIP3    H269371   0.961   2.016   4.553  1.8623  0.8493 -0.6968
15986TIP3   OH269372   2.937   2.106  15.005  0.1900  0.1431 -0.7882
15986TIP3    H169373   3.003   2.047  15.041 -0.0869  0.5963  0.4983
15986TIP3    H269374   2.902   2.059  14.928  0.5148 -1.0170 -0.2475
15987TIP3   OH269375   2.783   3.453   1.867  0.0063  0.0827  0.2257
15987TIP3    H169376   2.736   3.474   1.948  0.2394 -0.5844  0.5452
15987TIP3    H269377   2.853   3.394   1.895 -1.4007 -2.2246 -0.7575
15988TIP3   OH269378   5.913   6.210  12.823 -0.1028 -0.4782 -0.4779
15988TIP3    H169379   5.822   6.186  12.840  0.7186 -2.7284  1.3323
15988TIP3    H269380   5.926   6.194  12.730 -0.8831 -2.9241 -0.2442
15989TIP3   OH269381   6.159   3.384  12.086  0.8828 -0.2512 -0.0808
15989TIP3    H169382   6.131   3.467  12.127 -1.3900 -1.1469  0.3571
15989TIP3    H269383   6.240   3.362  12.131  1.3675  1.5619  0.0292
15990TIP3   OH269384   3.050   0.334  14.267  0.0896 -0.1464 -0.3527
15990TIP3    H169385   2.978   0.389  14.238  0.1640 -0.3460 -0.9155
15990TIP3    H269386   3.008   0.262  14.314 -0.3276 -1.8030 -3.0433
15991TIP3   OH269387   4.681   1.110   2.508 -0.3328 -0.3807 -0.8198
15991TIP3    H169388   4.747   1.054   2.467 -0.5690  1.0315 -3.3180
15991TIP3    H269389   4.722   1.197   2.511 -0.8089 -0.1799  0.8703
15992TIP3   OH269390   0.213   2.786  14.081  0.4255 -0.3144 -0.0058
15992TIP3    H169391   0.279   2.718  14.091  0.9458 -0.1791 -2.0653
15992TIP3    H269392   0.209   2.830  14.166  3.6655  0.2769 -0.0438
15993TIP3   OH269393   6.181   0.001  15.777  0.0995 -0.2645 -0.2384
15993TIP3    H169394   6.208  -0.024  15.689 -2.9032 -0.4027 -1.2250
15993TIP3    H269395   6.211   0.092  15.786  2.1463 -0.8762 -0.5979
15994TIP3   OH269396   5.324   4.879   1.646 -0.3411 -0.3027  0.1611
15994TIP3    H169397   5.395   4.832   1.689 -0.8663 -1.7740 -0.5043
15994TIP3    H269398   5.251   4.872   1.708 -1.2077 -2.7411 -1.0208
15995TIP3   OH269399   6.037   4.263   2.704  0.3082 -0.7965  0.6064
15995TIP3    H169400   6.048   4.343   2.654  0.3814  0.7579  2.9239
15995TIP3    H269401   5.971   4.213   2.656  1.1946  0.0304 -1.5802
15996TIP3   OH269402   0.491   6.294   4.490 -0.4617  0.2574 -0.2683
15996TIP3    H169403   0.479   6.254   4.404 -2.0485 -1.3020  0.6059
15996TIP3    H269404   0.580   6.269   4.515  0.1467  1.0218 -1.5630
15997TIP3   OH269405   4.223   1.382  16.333 -0.0290 -0.5408  0.3181
15997TIP3    H169406   4.174   1.300  16.340 -2.7084  1.0520  2.0982
15997TIP3    H269407   4.215   1.422  16.419  1.6947  1.3546 -0.3384
15998TIP3   OH269408   4.030   4.730   2.022  0.2488  0.2450  0.2026
15998TIP3    H169409   4.048   4.706   2.113  1.9196 -0.0379 -0.1641
15998TIP3    H269410   3.994   4.818   2.027 -0.1544  0.0342  1.1732
15999TIP3   OH269411   2.946   5.154   4.385 -0.1887  0.3594 -0.3872
15999TIP3    H169412   2.881   5.105   4.435  0.5697 -1.5139 -1.1042
15999TIP3    H269413   2.930   5.128   4.294  1.9613 -0.7214 -0.5123
16000TIP3   OH269414   0.126   6.127   4.324 -0.0527 -0.4052 -0.1625
16000TIP3    H169415   0.036   6.138   4.293 -0.1491 -0.7100  0.0057
16000TIP3    H269416   0.175   6.097   4.247 -0.1215 -0.3627 -0.2223
16001TIP3   OH269417   4.525   2.824  17.035 -0.0331 -0.2445 -0.5009
16001TIP3    H169418   4.445   2.806  17.083 -0.3507 -1.5749 -1.4664
16001TIP3    H269419   4.553   2.910  17.065 -1.8649  0.2751 -0.2117
16002TIP3   OH269420   5.449   0.865   6.194  0.1644  0.4455  0.4258
16002TIP3    H169421   5.404   0.798   6.142  0.7107  0.2615  0.1875
16002TIP3    H269422   5.434   0.839   6.285  0.5092 -0.0929  0.3332
16003TIP3   OH269423   6.327   4.736  13.872  0.1351 -0.0792  0.1908
16003TIP3    H169424   6.322   4.759  13.779 -0.5101 -0.3326  0.1627
16003TIP3    H269425   6.419   4.714  13.886 -0.1431 -2.1410 -0.8932
16004TIP3   OH269426   5.353   6.386   4.815  0.3970 -0.2919  0.3874
16004TIP3    H169427   5.384   6.476   4.810  1.3611 -0.6427 -0.3584
16004TIP3    H269428   5.275   6.390   4.870 -0.8024  1.3222 -1.2887
16005TIP3   OH269429   2.303   4.822  13.474 -0.1179 -0.6883  0.0641
16005TIP3    H169430   2.301   4.866  13.389  0.0598 -1.0066 -0.1068
16005TIP3    H269431   2.369   4.753  13.463 -0.6751 -1.2471  0.2026
16006TIP3   OH269432   0.165   0.158   5.815  0.2560 -0.1718  0.0157
16006TIP3    H169433   0.240   0.196   5.769  0.5842 -0.7117  0.1061
16006TIP3    H269434   0.177   0.184   5.906  0.9649 -1.2381  0.2401
16007TIP3   OH269435   0.744   1.755   3.428 -0.0335 -0.5648  0.0941
16007TIP3    H169436   0.663   1.752   3.378  0.2729  0.1676 -0.4571
16007TIP3    H269437   0.801   1.690   3.387 -0.4193 -1.2594  0.6390
16008TIP3   OH269438   5.605   5.809  15.894 -0.1663 -0.0269  1.0446
16008TIP3    H169439   5.674   5.821  15.829  1.2619 -1.8070  2.1340
16008TIP3    H269440   5.642   5.749  15.958 -3.2047 -2.2604  0.9616
16009TIP3   OH269441   6.080   5.907  12.401  0.5508 -0.0236  0.3022
16009TIP3    H169442   6.048   5.859  12.325 -0.0697  0.8079  0.0324
16009TIP3    H269443   6.167   5.939  12.374 -0.0009  0.9540 -0.3664
16010TIP3   OH269444   3.896   0.782  12.630  0.5174 -0.3950  0.3549
16010TIP3    H169445   3.844   0.843  12.682 -0.6221 -1.6375  0.7303
16010TIP3    H269446   3.977   0.771  12.679  0.8847  1.0325  0.1201
16011TIP3   OH269447   3.974   3.393  12.094 -0.5022 -0.0576  0.1065
16011TIP3    H169448   3.980   3.302  12.066  0.7709 -0.1913  0.7131
16011TIP3    H269449   3.988   3.390  12.189 -1.5706  0.6658  0.2986
16012TIP3   OH269450   5.018   2.976   1.650  0.3873  0.1176  0.0578
16012TIP3    H169451   4.981   2.950   1.734  1.3119 -0.4159  0.3066
16012TIP3    H269452   5.088   3.037   1.672  1.4482 -0.9599 -0.2274
16013TIP3   OH269453   0.099   4.489  14.165  0.3349  0.3202 -0.0525
16013TIP3    H169454   0.050   4.408  14.156 -0.1935  0.7819 -1.5670
16013TIP3    H269455   0.051   4.538  14.232 -1.0109  0.5542 -1.1574
16014TIP3   OH269456   6.296   4.933   2.040  0.1649  0.1884  0.1504
16014TIP3    H169457   6.231   5.002   2.022 -1.4639 -0.7658  1.8994
16014TIP3    H269458   6.286   4.916   2.134  0.6333 -2.3061 -0.1854
16015TIP3   OH269459   2.708   2.744   0.940 -0.4267 -1.0371 -0.3144
16015TIP3    H169460   2.657   2.749   0.859 -0.4908 -1.6075 -0.3075
16015TIP3    H269461   2.688   2.658   0.977 -0.0762 -0.9466  0.0963
16016TIP3   OH269462   2.068   5.865   5.734 -0.4199 -0.3061 -0.2579
16016TIP3    H169463   2.054   5.805   5.660  0.7092  0.4780 -1.1520
16016TIP3    H269464   2.077   5.807   5.809 -2.1237 -1.1029 -0.6127
16017TIP3   OH269465   6.421   6.624   5.983 -0.1503  0.7540  0.1514
16017TIP3    H169466   6.427   6.625   6.079 -2.7685 -0.4860  0.4285
16017TIP3    H269467   6.432   6.532   5.960 -0.7696  0.8637 -0.6119
16018TIP3   OH269468   2.598   4.760  14.393  0.1535 -0.4588 -0.7905
16018TIP3    H169469   2.664   4.820  14.357 -0.7282  0.7790 -0.3915
16018TIP3    H269470   2.565   4.713  14.316  1.5434 -1.1644 -0.9865
16019TIP3   OH269471   5.320   5.053  12.565  0.2025  0.4799  0.4370
16019TIP3    H169472   5.261   5.044  12.491  2.2878 -0.7791 -1.1686
16019TIP3    H269473   5.315   4.969  12.611 -0.0865  0.7932  1.0055
16020TIP3   OH269474   3.359   2.851   5.912  0.3069 -0.7072 -0.3827
16020TIP3    H169475   3.288   2.794   5.940 -1.2429  1.1267 -0.3818
16020TIP3    H269476   3.319   2.938   5.905  2.5762  0.4182 -0.2845
16021TIP3   OH269477   3.740   1.958  13.620  0.0461  0.4874  0.4953
16021TIP3    H169478   3.673   1.896  13.590  0.8253  0.0338 -0.3849
16021TIP3    H269479   3.693   2.041  13.631 -0.9847 -0.2137  1.5688
16022TIP3   OH269480   3.311   0.820  13.818  0.1329  0.1315 -0.2146
16022TIP3    H169481   3.251   0.770  13.763 -0.0189 -1.0917  1.0018
16022TIP3    H269482   3.282   0.803  13.908  1.6589  0.3382  0.3533
16023TIP3   OH269483   1.636   4.451  15.696  0.1229  0.0243 -0.2163
16023TIP3    H169484   1.730   4.470  15.688 -0.2829  1.9996 -0.8075
16023TIP3    H269485   1.608   4.498  15.774 -0.4490 -0.2353 -0.2596
16024TIP3   OH269486   0.426   4.156  15.610  0.0064  0.1381 -0.5223
16024TIP3    H169487   0.406   4.200  15.693  0.8584 -1.9707  0.8759
16024TIP3    H269488   0.368   4.199  15.547  0.8693  3.3322  0.6500
16025TIP3   OH269489   5.578   1.988  14.409 -0.0340  0.6468 -0.0414
16025TIP3    H169490   5.625   1.986  14.492  0.3194  1.2657 -0.2220
16025TIP3    H269491   5.646   2.001  14.343 -0.1964 -0.7994 -0.5301
16026TIP3   OH269492   1.915   2.258   1.233  0.3932 -0.3428 -0.2499
16026TIP3    H169493   1.823   2.234   1.224  0.2540 -0.1253  0.4904
16026TIP3    H269494   1.931   2.257   1.328  0.7085  1.2318 -0.2528
16027TIP3   OH269495   5.378   3.107  16.961 -0.0196 -0.2655 -0.6464
16027TIP3    H169496   5.448   3.122  17.024  0.1309 -0.7834 -0.6813
16027TIP3    H269497   5.297   3.119  17.011  0.0844 -1.7879 -0.0434
16028TIP3   OH269498   6.306   2.051  13.019  0.3681 -0.1378 -0.1408
16028TIP3    H169499   6.382   2.007  13.058 -0.4391 -2.4216 -0.9976
16028TIP3    H269500   6.234   1.990  13.031 -0.7257  0.7494 -1.8191
16029TIP3   OH269501   0.608   2.549  15.644 -0.4090  0.8363 -0.3114
16029TIP3    H169502   0.522   2.553  15.687 -0.5395 -1.9884 -0.1247
16029TIP3    H269503   0.671   2.554  15.716 -0.5205  0.0767 -0.1518
16030TIP3   OH269504   0.201   5.276   2.779 -0.5093  0.0790 -0.1727
16030TIP3    H169505   0.157   5.222   2.713  0.7276 -0.6082 -0.4687
16030TIP3    H269506   0.133   5.295   2.843 -1.2165 -1.0229 -0.5606
16031TIP3   OH269507   5.953   5.607   4.648  0.1613  0.1084  0.1988
16031TIP3    H169508   5.868   5.642   4.674  0.2703  0.2520  0.3646
16031TIP3    H269509   5.958   5.521   4.691  0.6203  0.6226  1.2181
16032TIP3   OH269510   6.388   2.336   4.992  0.2469 -0.2991  0.2215
16032TIP3    H169511   6.406   2.340   5.086  0.2769 -0.1383  0.2091
16032TIP3    H269512   6.346   2.251   4.980 -0.2137 -0.1100  0.4574
16033TIP3   OH269513   6.367   0.880  12.925 -0.0690  0.3997  0.2756
16033TIP3    H169514   6.435   0.911  12.865 -0.3938  0.4952 -0.0543
16033TIP3    H269515   6.352   0.789  12.899 -0.4621  0.5467 -0.0363
16034TIP3   OH269516   1.352   5.776  16.570 -1.1360  0.0655  0.5842
16034TIP3    H169517   1.364   5.855  16.621 -0.6950 -0.2337  0.9497
16034TIP3    H269518   1.319   5.806  16.486 -1.9328  0.5600  1.0621
16035TIP3   OH269519   6.176   3.024   2.791 -0.2156  0.7023 -0.0647
16035TIP3    H169520   6.262   3.065   2.798 -0.7730  2.0993 -0.8704
16035TIP3    H269521   6.118   3.094   2.761 -1.5198 -0.3497 -0.1319
16036TIP3   OH269522   4.864   4.223   4.936  0.2220  0.9075 -0.3147
16036TIP3    H169523   4.787   4.233   4.993  1.2484  1.8750  0.9686
16036TIP3    H269524   4.939   4.226   4.996  1.2445 -2.7462 -1.1978
16037TIP3   OH269525   4.840   3.203  13.598 -0.3966 -0.1582  0.1372
16037TIP3    H169526   4.895   3.279  13.620 -0.9822  1.2181 -2.6766
16037TIP3    H269527   4.902   3.138  13.566 -0.0218 -0.3729  1.2551
16038TIP3   OH269528   5.050   2.347   1.981 -0.3142  0.0217  0.3232
16038TIP3    H169529   5.125   2.302   2.021 -0.9372 -1.4627 -0.1288
16038TIP3    H269530   4.976   2.288   1.994 -0.7648 -0.0391 -2.0673
16039TIP3   OH269531   1.243   6.305   1.917  0.5015 -0.1003  0.5459
16039TIP3    H169532   1.246   6.393   1.880  2.0587 -0.5975 -0.6481
16039TIP3    H269533   1.279   6.316   2.005  1.2109  0.3900  0.2087
16040TIP3   OH269534   0.153   1.824  16.344  0.4751  0.2247 -0.0524
16040TIP3    H169535   0.067   1.836  16.304  1.2835  1.5533 -1.5433
16040TIP3    H269536   0.152   1.879  16.422  0.4883  1.5511 -0.9598
16041TIP3   OH269537   0.433   6.269  12.190  0.0437 -0.3817 -0.6190
16041TIP3    H169538   0.432   6.183  12.147 -2.1248  0.2826 -2.0039
16041TIP3    H269539   0.363   6.264  12.255 -0.6438  0.5857 -1.2665
16042TIP3   OH269540   3.143   3.990   0.736 -0.0884  0.0689  0.7183
16042TIP3    H169541   3.197   3.921   0.697  0.4483 -0.2977  2.0421
16042TIP3    H269542   3.103   3.948   0.812  3.8115  2.2190  4.3767
16043TIP3   OH269543   2.776   1.459  11.286  0.4107  0.4677  0.4621
16043TIP3    H169544   2.813   1.485  11.201  1.2207  1.8334  1.1840
16043TIP3    H269545   2.811   1.372  11.302  0.9559  0.5492 -0.2323
16044TIP3   OH269546   4.528   3.528   1.745 -0.3680 -0.2051  0.1898
16044TIP3    H169547   4.459   3.582   1.785 -0.2249 -0.0235  0.1929
16044TIP3    H269548   4.518   3.542   1.651 -1.5102 -1.5959  0.0545
16045TIP3   OH269549   0.373   3.009  14.331  0.5083 -0.1468  0.3838
16045TIP3    H169550   0.408   3.038  14.247  0.4387  0.1522  0.4558
16045TIP3    H269551   0.278   3.010  14.319  0.4198  1.3712  0.9251
16046TIP3   OH269552   5.613   3.283  11.809  0.2115 -0.3547  0.2207
16046TIP3    H169553   5.612   3.190  11.831  1.1110 -0.4431 -0.1066
16046TIP3    H269554   5.702   3.312  11.826  0.1863  0.2327 -0.5684
16047TIP3   OH269555   4.498   4.721  11.127  0.0897  0.0233  0.2505
16047TIP3    H169556   4.486   4.627  11.114 -2.4080  0.4317 -1.0903
16047TIP3    H269557   4.581   4.742  11.086  2.0822 -1.9369  2.9094
16048TIP3   OH269558   2.817   3.209   5.065  0.3854  0.0982 -0.5425
16048TIP3    H169559   2.800   3.268   5.138 -1.7257 -1.6890  0.5070
16048TIP3    H269560   2.839   3.126   5.106  1.7095 -0.2982 -1.9816
16049TIP3   OH269561   3.632   2.619  12.411 -0.0610  0.1350  0.7186
16049TIP3    H169562   3.554   2.660  12.448 -0.1635  0.5445  0.0699
16049TIP3    H269563   3.702   2.683  12.426  0.7403 -1.2682  3.5766
16050TIP3   OH269564   6.208   1.994   1.853 -0.0930  0.2606  0.0674
16050TIP3    H169565   6.146   1.929   1.820 -1.0849  1.2757 -0.1340
16050TIP3    H269566   6.251   2.028   1.775  0.9622 -0.6638  0.2328
16051TIP3   OH269567   2.149   3.496   5.863  0.1434  0.5651 -0.2165
16051TIP3    H169568   2.095   3.490   5.941  0.2206  0.2231 -0.1886
16051TIP3    H269569   2.235   3.525   5.894  0.0601  0.8232 -0.2256
16052TIP3   OH269570   0.992   2.010  14.126 -0.2244 -0.3655 -0.0866
16052TIP3    H169571   0.966   1.997  14.035 -0.1850 -1.2718  0.0212
16052TIP3    H269572   0.970   2.102  14.144 -0.1348 -0.1450 -1.0316
16053TIP3   OH269573   3.810   1.013  11.041 -0.4270  0.2072  0.0188
16053TIP3    H169574   3.852   1.080  10.988  0.1861  1.3288  1.8495
16053TIP3    H269575   3.722   1.005  11.005 -0.6503  2.2975  0.0038
16054TIP3   OH269576   1.825   3.254  11.148  0.3683  0.0010  0.0845
16054TIP3    H169577   1.745   3.275  11.196  0.0090  1.1090 -0.9485
16054TIP3    H269578   1.895   3.297  11.198  0.2207 -0.3260  0.5735
16055TIP3   OH269579   3.019   1.285  14.738  0.3736  0.1824 -0.1498
16055TIP3    H169580   3.040   1.192  14.752 -0.5075  0.0333  0.2635
16055TIP3    H269581   2.927   1.285  14.713  0.2765  0.9753  0.1906
16056TIP3   OH269582   0.326   3.455  11.157 -0.0349 -0.2181 -0.2242
16056TIP3    H169583   0.282   3.535  11.185 -2.4806 -0.8801 -1.8474
16056TIP3    H269584   0.310   3.451  11.062  4.0056 -0.3335 -1.0543
16057TIP3   OH269585   1.442   1.689  12.236  0.3139  0.4975  0.2829
16057TIP3    H169586   1.361   1.662  12.193 -0.2812  0.3570  1.4438
16057TIP3    H269587   1.511   1.642  12.189 -0.2227  0.9268 -0.9776
16058TIP3   OH269588   3.526   3.004   1.081 -0.3283  0.8193  0.4139
16058TIP3    H169589   3.466   2.968   1.147 -0.1904  1.4921  0.9178
16058TIP3    H269590   3.531   2.935   1.014 -0.6381  0.2105  0.9955
16059TIP3   OH269591   4.819   2.086  12.191  0.0506  0.1981  0.8008
16059TIP3    H169592   4.791   2.177  12.184 -2.9143 -0.6426  0.3003
16059TIP3    H269593   4.843   2.061  12.102 -0.4776  0.1270  0.6747
16060TIP3   OH269594   3.305   6.052  14.912  0.1415  0.1084  0.0770
16060TIP3    H169595   3.342   6.084  14.994  2.0488  1.5471 -1.2450
16060TIP3    H269596   3.237   6.116  14.890  0.4608  0.3998 -0.0620
16061TIP3   OH269597   3.023   1.768   1.479 -0.0838  0.3223  0.1220
16061TIP3    H169598   2.985   1.775   1.391 -0.5092  1.5413  0.3670
16061TIP3    H269599   2.952   1.731   1.532 -0.0612  0.2169  0.0780
16062TIP3   OH269600   5.011   3.730  12.746  0.2580  0.1256 -0.3084
16062TIP3    H169601   4.965   3.653  12.780  0.3316  0.3031  0.1985
16062TIP3    H269602   5.009   3.719  12.650  1.0425 -0.9550 -0.2210
16063TIP3   OH269603   4.557   5.357  16.486 -0.3938 -0.3967 -0.7306
16063TIP3    H169604   4.636   5.314  16.519 -0.4800 -1.4505 -1.8390
16063TIP3    H269605   4.588   5.411  16.413 -0.6844 -0.7039 -1.0807
16064TIP3   OH269606   3.688   3.576   3.058 -0.1196  0.0367  0.9649
16064TIP3    H169607   3.699   3.532   3.143 -0.1525 -0.5476  0.6671
16064TIP3    H269608   3.599   3.611   3.061  0.1356  0.6777  1.4701
16065TIP3   OH269609   0.138   0.640   0.050 -0.4266 -0.3763  0.2366
16065TIP3    H169610   0.225   0.645   0.011  0.0670  0.8791  1.4295
16065TIP3    H269611   0.089   0.712   0.010 -1.4306 -1.9175 -1.4939
16066TIP3   OH269612   1.145   5.289  12.858  0.1318 -0.4657 -0.2895
16066TIP3    H169613   1.064   5.305  12.809  0.0708 -1.5153 -0.5481
16066TIP3    H269614   1.127   5.325  12.945 -0.6796 -0.8401 -0.2953
16067TIP3   OH269615   2.557   5.863   5.446  0.6276  0.0952  0.1077
16067TIP3    H169616   2.485   5.895   5.500  0.2924  0.1439 -0.3611
16067TIP3    H269617   2.538   5.770   5.432  0.2022  0.2977 -0.7149
16068TIP3   OH269618   2.650   4.441  12.117  0.1721  0.3592  0.5331
16068TIP3    H169619   2.623   4.350  12.117  1.3654 -0.0591  2.5072
16068TIP3    H269620   2.743   4.438  12.140  0.4259  2.0371 -0.1329
16069TIP3   OH269621   1.639   6.695   3.805 -0.3783 -0.1296  0.2093
16069TIP3    H169622   1.592   6.773   3.777  1.0536  0.6558 -0.1331
16069TIP3    H269623   1.574   6.643   3.852 -1.2348  1.5648  1.0082
16070TIP3   OH269624   0.396   2.122  17.285  0.4025  0.2442 -0.3204
16070TIP3    H169625   0.431   2.036  17.260  0.4315  0.4310 -0.9213
16070TIP3    H269626   0.314   2.102  17.330  1.7650 -0.2865  2.1144
16071TIP3   OH269627   0.318   6.005  14.732  0.2376  0.4020 -0.6815
16071TIP3    H169628   0.243   6.065  14.731 -0.5640 -0.5469  0.3368
16071TIP3    H269629   0.391   6.059  14.701 -0.9163  1.2438 -2.1232
16072TIP3   OH269630   0.496   6.401   5.308 -0.6013  0.0352 -0.1004
16072TIP3    H169631   0.551   6.478   5.303  0.3197 -0.6023 -0.0286
16072TIP3    H269632   0.497   6.376   5.400 -0.9887 -0.0002 -0.1030
16073TIP3   OH269633   1.214   5.903  17.268  0.3704  0.1963 -0.3781
16073TIP3    H169634   1.155   5.854  17.326 -0.1738  1.3259  0.0553
16073TIP3    H269635   1.184   5.883  17.180 -1.4257  1.6114 -0.1478
16074TIP3   OH269636   2.384   2.458  12.153 -0.2303  0.2704 -0.2575
16074TIP3    H169637   2.421   2.411  12.228 -1.7957 -0.6297  0.0164
16074TIP3    H269638   2.393   2.551  12.176 -2.3094  0.0201  1.9801
16075TIP3   OH269639   5.538   2.895   5.281  0.6747 -0.4054  0.7203
16075TIP3    H169640   5.614   2.915   5.227 -0.1484 -0.8292 -0.6541
16075TIP3    H269641   5.512   2.807   5.254 -1.1017  0.2410  0.1370
16076TIP3   OH269642   4.816   5.050   1.996 -0.8290  0.0759  0.8746
16076TIP3    H169643   4.734   5.004   1.977  1.1466 -4.2785  1.6552
16076TIP3    H269644   4.878   5.016   1.931  0.4243  3.4344  0.1278
16077TIP3   OH269645   1.660   5.941  12.668  0.1060  0.8676  0.2533
16077TIP3    H169646   1.583   5.964  12.616 -0.5716  1.1599  1.3545
16077TIP3    H269647   1.659   6.003  12.741 -0.0618 -0.7329  1.6666
16078TIP3   OH269648   3.849   4.384   2.324  0.1317  0.3182 -0.7635
16078TIP3    H169649   3.800   4.466   2.335  0.5124  0.5084 -0.4396
16078TIP3    H269650   3.930   4.399   2.373 -0.7568 -1.1007  1.2455
16079TIP3   OH269651   3.606   4.903  16.909 -0.2611 -0.3721 -0.0595
16079TIP3    H169652   3.653   4.921  16.991 -0.6233 -1.7822  0.4855
16079TIP3    H269653   3.639   4.969  16.848  1.8150 -0.7745  0.5358
16080TIP3   OH269654   3.039   1.187  11.605 -0.1578  0.3032  0.5591
16080TIP3    H169655   3.000   1.158  11.687 -0.8788  0.8781  0.4242
16080TIP3    H269656   2.979   1.156  11.537  0.4141 -0.1343  0.2353
16081TIP3   OH269657   4.649   1.865   4.862  0.1033  0.3248  0.1891
16081TIP3    H169658   4.693   1.908   4.935 -1.7321  1.0048  0.9329
16081TIP3    H269659   4.598   1.794   4.902  1.1416 -1.0173 -0.7561
16082TIP3   OH269660   2.348   2.748  12.092  0.3730  0.0436 -0.2518
16082TIP3    H169661   2.391   2.819  12.046  1.9380 -0.3852  0.4696
16082TIP3    H269662   2.294   2.705  12.026  0.6877  0.8883 -1.0760
16083TIP3   OH269663   2.327   6.183  13.802  0.4345 -0.0025 -0.5411
16083TIP3    H169664   2.354   6.225  13.720  0.6975  0.8825 -0.0246
16083TIP3    H269665   2.353   6.246  13.870 -0.6744 -0.2663  0.1546
16084TIP3   OH269666   6.242   4.577  15.478 -0.5785  0.1820 -0.5231
16084TIP3    H169667   6.290   4.588  15.560  0.1731 -1.0247 -0.7789
16084TIP3    H269668   6.150   4.581  15.503 -0.3520  0.7889  0.2320
16085TIP3   OH269669   3.145   1.432  14.931 -0.2447  0.1603 -0.2384
16085TIP3    H169670   3.146   1.360  14.994  0.6709  0.2458 -0.1407
16085TIP3    H269671   3.104   1.394  14.853 -1.7483  0.1672  0.5086
16086TIP3   OH269672   3.225   2.663  10.673  0.6998 -0.0204  0.4544
16086TIP3    H169673   3.275   2.587  10.644  0.0884 -0.1746 -0.2440
16086TIP3    H269674   3.181   2.634  10.753  0.7623 -0.2853  0.3926
16087TIP3   OH269675   4.914   2.298   0.204  0.1353 -0.2569  0.2046
16087TIP3    H169676   4.987   2.241   0.229 -0.5130 -0.6632  1.2433
16087TIP3    H269677   4.955   2.369   0.154  0.8860 -2.0396 -1.8822
16088TIP3   OH269678   4.320   4.655   4.693  0.4716 -0.3259 -0.5289
16088TIP3    H169679   4.255   4.656   4.764  2.5157 -1.7285  1.4978
16088TIP3    H269680   4.304   4.574   4.646 -0.6868  0.4590 -1.5658
16089TIP3   OH269681   3.618   1.980   3.216  0.0671 -0.0062  0.0970
16089TIP3    H169682   3.683   1.982   3.146 -1.0040 -0.6807 -0.9582
16089TIP3    H269683   3.572   2.063   3.208 -0.8128 -0.5585 -0.7731
16090TIP3   OH269684   6.108   0.434   2.527  0.1208 -0.6754 -0.0364
16090TIP3    H169685   6.078   0.519   2.495  1.0225  0.1458  1.1835
16090TIP3    H269686   6.196   0.452   2.561 -0.2090 -1.8062  1.4861
16091TIP3   OH269687   1.408   2.879  13.964  0.1580 -0.6852 -0.6790
16091TIP3    H169688   1.412   2.966  14.003 -1.0091 -1.2864  0.8740
16091TIP3    H269689   1.458   2.887  13.882  2.3418  0.7602  0.6815
16092TIP3   OH269690   2.710   4.088   1.394 -0.1459 -0.1292 -0.2918
16092TIP3    H169691   2.655   4.047   1.460 -0.6772  1.0534  0.0191
16092TIP3    H269692   2.794   4.101   1.438 -1.2805  3.1556  1.1484
16093TIP3   OH269693   2.122   4.708   5.628 -0.3195  0.1054  0.4133
16093TIP3    H169694   2.035   4.683   5.660 -1.2792  1.5558 -0.8877
16093TIP3    H269695   2.144   4.787   5.678 -0.1955  0.2875  0.0769
16094TIP3   OH269696   6.637   5.954  15.502 -0.1854 -1.2488  0.2419
16094TIP3    H169697   6.733   5.952  15.508 -0.1634  0.7660  1.4796
16094TIP3    H269698   6.608   5.926  15.589 -0.6541 -0.1202  0.4608
16095TIP3   OH269699   5.388   4.942  10.438  0.1010  0.0829  0.4248
16095TIP3    H169700   5.471   4.906  10.405  0.1943  1.3339 -0.7807
16095TIP3    H269701   5.388   4.920  10.531  1.4702 -0.5287  0.3089
16096TIP3   OH269702   1.155   6.280  13.309  0.6646 -0.4565  0.4646
16096TIP3    H169703   1.187   6.201  13.353 -0.3496 -1.4577 -0.5241
16096TIP3    H269704   1.064   6.289  13.338  0.8504  0.5284  0.7874
16097TIP3   OH269705   1.534   2.659   4.003  0.1191  0.1134 -0.2628
16097TIP3    H169706   1.588   2.728   4.043  0.7481  0.3541 -1.4602
16097TIP3    H269707   1.461   2.706   3.963  1.6953  0.4768 -3.0515
16098TIP3   OH269708   3.857   1.059   3.055 -0.0196  0.2145  0.2191
16098TIP3    H169709   3.922   1.000   3.092  0.7177 -0.5623 -2.1552
16098TIP3    H269710   3.813   1.097   3.131  2.7057  0.2335  1.9195
16099TIP3   OH269711   3.392   0.084  14.579  0.1002 -0.0277  0.1698
16099TIP3    H169712   3.331   0.011  14.578 -1.5254  1.1142  3.0723
16099TIP3    H269713   3.347   0.155  14.533 -0.2309  0.4294  1.1787
16100TIP3   OH269714   6.508   0.421  13.644  0.4383  0.5455 -0.2163
16100TIP3    H169715   6.559   0.447  13.567 -0.1708 -0.7401 -1.0964
16100TIP3    H269716   6.573   0.384  13.704  0.5422 -1.9354 -1.7032
16101TIP3   OH269717   5.697   5.207  13.435 -0.1689 -0.1347  0.6834
16101TIP3    H169718   5.695   5.276  13.368  2.3145  1.3117  1.9507
16101TIP3    H269719   5.645   5.136  13.397 -0.4802  1.3339 -1.9232
16102TIP3   OH269720   0.527   6.272  13.882 -0.9708  0.0845  0.1948
16102TIP3    H169721   0.534   6.183  13.847  1.0643  0.4143 -0.3514
16102TIP3    H269722   0.596   6.277  13.949 -0.8302  1.3578 -0.0206
16103TIP3   OH269723   1.383   5.627   1.153 -0.0791 -0.1437 -0.0246
16103TIP3    H169724   1.315   5.602   1.090 -0.2628 -2.2269  0.9080
16103TIP3    H269725   1.414   5.712   1.122 -2.8807  0.7621 -0.6689
16104TIP3   OH269726   0.276   0.595   5.177  0.2307 -0.1867  0.2036
16104TIP3    H169727   0.235   0.585   5.091  0.4058 -2.0218  0.2878
16104TIP3    H269728   0.203   0.616   5.236  0.2122  1.8095 -0.4739
16105TIP3   OH269729   4.250   4.748   1.786  0.3231 -0.1441 -0.0630
16105TIP3    H169730   4.173   4.693   1.799  0.6985 -0.5061  0.7794
16105TIP3    H269731   4.247   4.774   1.694 -0.1507 -1.1492 -0.3469
16106TIP3   OH269732   2.536   5.951   0.144 -0.1895 -0.8378 -0.0823
16106TIP3    H169733   2.467   5.890   0.119 -1.0061 -0.1347  0.3894
16106TIP3    H269734   2.515   6.031   0.096 -0.0475 -0.4291  0.5262
16107TIP3   OH269735   5.542   0.092   1.521  0.2171 -1.0995 -0.0924
16107TIP3    H169736   5.495   0.026   1.470  0.5895  0.0893 -2.0857
16107TIP3    H269737   5.633   0.082   1.493  0.5950 -1.0541  1.0999
16108TIP3   OH269738   5.301   3.934  17.315 -0.5639 -0.5535  0.0409
16108TIP3    H169739   5.320   3.948  17.408 -0.8214  0.2875 -0.0256
16108TIP3    H269740   5.370   3.875  17.285  0.8568  0.9141  0.2611
16109TIP3   OH269741   4.410   6.059  14.962 -0.0175  0.8912  0.5565
16109TIP3    H169742   4.341   6.003  14.928  1.1943  0.1576 -0.8155
16109TIP3    H269743   4.437   6.019  15.045 -2.0040  1.8640  1.7376
16110TIP3   OH269744   5.937   3.805  11.349  0.4834  0.3598  0.0221
16110TIP3    H169745   5.889   3.771  11.274  0.9344  0.4783 -0.3244
16110TIP3    H269746   5.997   3.870  11.312  0.0771  1.0692  0.6010
16111TIP3   OH269747   2.464   5.780  14.295  0.0102  0.9122  0.2231
16111TIP3    H169748   2.543   5.771  14.349 -0.8275  0.9000  1.4897
16111TIP3    H269749   2.497   5.792  14.206  1.4185 -1.7651  0.2926
16112TIP3   OH269750   2.464   4.720  11.383 -0.5631  0.1256  0.3965
16112TIP3    H169751   2.490   4.809  11.358  0.4635 -0.3851 -0.4353
16112TIP3    H269752   2.546   4.679  11.411 -0.8177 -0.9106 -0.3367
16113TIP3   OH269753   5.241   6.580  12.930  0.3235 -0.3554 -0.2719
16113TIP3    H169754   5.149   6.562  12.912 -0.4525  0.2346  2.5538
16113TIP3    H269755   5.268   6.508  12.988  1.1430  0.3439  0.2384
16114TIP3   OH269756   4.488   4.936  12.804  0.4981 -0.3443 -0.6440
16114TIP3    H169757   4.418   4.910  12.745  0.7917  1.5804 -1.9480
16114TIP3    H269758   4.568   4.924  12.753  0.9624 -0.7310  0.1548
16115TIP3   OH269759   4.101   1.729  15.923 -0.6192  0.2269 -0.0753
16115TIP3    H169760   4.119   1.681  16.004 -0.0633  0.2623 -0.1795
16115TIP3    H269761   4.117   1.665  15.854  0.2342  0.5884 -0.2199
16116TIP3   OH269762   1.046   6.294   1.545  0.5761  0.3583  0.4178
16116TIP3    H169763   0.980   6.225   1.553  0.9159  0.0141  0.2630
16116TIP3    H269764   1.117   6.255   1.494  0.5674  0.9767 -0.0833
16117TIP3   OH269765   3.941   0.455   2.691 -0.5505  0.6258 -0.0709
16117TIP3    H169766   3.948   0.491   2.602  1.1102  0.2778 -0.1056
16117TIP3    H269767   3.902   0.526   2.742 -1.9782  0.6654 -1.1587
16118TIP3   OH269768   5.881   0.996   6.207 -0.2135  0.0031  0.3530
16118TIP3    H169769   5.809   1.018   6.148 -0.6255 -1.3388  0.3110
16118TIP3    H269770   5.889   1.072   6.264 -1.2617  0.4338 -0.0423
16119TIP3   OH269771   0.250   1.905   6.051 -0.1908 -0.3275  0.7864
16119TIP3    H169772   0.167   1.908   6.100 -1.3372  0.5571 -1.1055
16119TIP3    H269773   0.234   1.842   5.981  1.4617 -1.6338  1.5017
16120TIP3   OH269774   3.801   0.252  16.312 -0.4551  0.2293 -0.7459
16120TIP3    H169775   3.797   0.290  16.399 -0.5554  0.2378 -0.7524
16120TIP3    H269776   3.863   0.308  16.264 -1.5801  1.1785 -1.1418
16121TIP3   OH269777   5.162   6.089  15.864  0.0685 -0.0803  0.0561
16121TIP3    H169778   5.076   6.067  15.900 -1.2859  2.3298 -1.4308
16121TIP3    H269779   5.204   6.004  15.850 -1.8001 -1.3109  1.3957
16122TIP3   OH269780   4.345   4.209  15.998 -0.1090  0.8650  0.0471
16122TIP3    H169781   4.413   4.166  15.947 -0.8422  1.1634 -1.2424
16122TIP3    H269782   4.326   4.289  15.949 -2.2595  0.1697 -0.3558
16123TIP3   OH269783   6.726   4.544  13.206  0.5557 -0.0327  0.0948
16123TIP3    H169784   6.813   4.566  13.172  0.4609 -1.2174 -0.9996
16123TIP3    H269785   6.714   4.452  13.182 -0.5955 -0.1719  1.1224
16124TIP3   OH269786   6.210   6.155   2.230  0.4807  0.0741  0.0253
16124TIP3    H169787   6.241   6.077   2.186  0.1980  0.7776 -1.5048
16124TIP3    H269788   6.288   6.209   2.244  0.5558 -0.1057  0.3118
16125TIP3   OH269789   2.370   1.652   2.711 -0.4835 -0.0911 -0.3688
16125TIP3    H169790   2.327   1.652   2.625 -0.2379  1.6633 -0.5277
16125TIP3    H269791   2.318   1.590   2.763 -0.6225 -1.2081 -1.7586
16126TIP3   OH269792   5.081   2.065   5.162  0.1300  0.4721  0.5319
16126TIP3    H169793   5.037   2.006   5.223 -0.2146  0.9098  0.7155
16126TIP3    H269794   5.014   2.084   5.096  0.0928  1.0045  0.7187
16127TIP3   OH269795   6.656   0.652  12.026  0.3721  0.1574 -0.8111
16127TIP3    H169796   6.653   0.706  11.947 -0.0224  0.5461 -0.5363
16127TIP3    H269797   6.567   0.621  12.037  0.7907 -1.3734 -1.5114
16128TIP3   OH269798   5.134   4.416   0.593  0.2200 -0.4013 -0.1927
16128TIP3    H169799   5.059   4.411   0.534 -0.4617  1.1860  0.4859
16128TIP3    H269800   5.095   4.432   0.679  1.2733 -1.2357  0.4634
16129TIP3   OH269801   0.993   1.135   4.051 -0.2790  0.0005  0.3045
16129TIP3    H169802   1.073   1.086   4.069 -0.2685  0.3299  1.1906
16129TIP3    H269803   0.937   1.118   4.127 -0.5024  0.8805  0.3470
16130TIP3   OH269804   2.202   6.700   4.686 -0.0595 -0.0255 -0.1071
16130TIP3    H169805   2.209   6.728   4.595  1.8204 -0.4901 -0.1476
16130TIP3    H269806   2.186   6.781   4.735 -0.0451  0.3696 -0.7495
16131TIP3   OH269807   4.190   4.173  13.293 -0.0174  0.2757  0.2418
16131TIP3    H169808   4.267   4.211  13.334 -0.3036 -1.6180  2.7615
16131TIP3    H269809   4.122   4.178  13.360 -1.2871 -0.6568 -0.9111
16132TIP3   OH269810   6.468   1.261   3.086  0.4767 -0.4109 -0.1581
16132TIP3    H169811   6.531   1.284   3.155 -2.7729  1.0419  2.6507
16132TIP3    H269812   6.501   1.305   3.008  2.8210  0.4373  1.2174
16133TIP3   OH269813   5.588   3.933  12.249 -0.3832 -0.6182  0.2161
16133TIP3    H169814   5.586   3.914  12.155 -0.6249  1.6735 -0.3165
16133TIP3    H269815   5.680   3.949  12.269 -0.2730 -1.5394  0.4967
16134TIP3   OH269816   2.683   2.031  16.932  0.2088  0.0470  0.0872
16134TIP3    H169817   2.769   2.068  16.953 -1.2722  3.3557  0.9071
16134TIP3    H269818   2.668   1.964  16.999  1.5461  0.3850  0.7565
16135TIP3   OH269819   6.079   6.494   3.476  0.6996  0.0404 -0.2480
16135TIP3    H169820   6.060   6.400   3.482 -0.5823  0.1938 -1.2645
16135TIP3    H269821   6.140   6.511   3.547 -1.2575 -1.0145  1.8272
16136TIP3   OH269822   5.358   0.630   2.147  0.2518 -0.2002  0.0322
16136TIP3    H169823   5.411   0.679   2.210  0.0725 -0.1476  0.1429
16136TIP3    H269824   5.268   0.640   2.178  0.0959  0.3141 -0.5470
16137TIP3   OH269825   5.496   2.554   4.655 -0.3205 -0.0160 -0.3800
16137TIP3    H169826   5.431   2.605   4.703 -1.1231  0.2709 -1.7316
16137TIP3    H269827   5.551   2.619   4.612  2.1231 -0.1709  2.2115
16138TIP3   OH269828   0.058   1.530  14.470 -0.0259  0.3264  0.3575
16138TIP3    H169829   0.016   1.537  14.384  1.1870 -0.1631 -0.3127
16138TIP3    H269830   0.113   1.451  14.463 -0.8279 -0.4253  2.0030
16139TIP3   OH269831   4.519   1.364  14.216 -0.1204  0.3547 -0.3164
16139TIP3    H169832   4.553   1.417  14.288 -0.1170  1.4997 -1.1267
16139TIP3    H269833   4.598   1.335  14.170 -0.1455  0.1895 -0.2566
16140TIP3   OH269834   0.420   6.354  16.315 -0.4955  0.0481  0.0553
16140TIP3    H169835   0.358   6.402  16.370 -1.1817 -0.6584 -0.0701
16140TIP3    H269836   0.379   6.268  16.303  0.3772 -0.3335 -0.2819
16141TIP3   OH269837   5.471   2.037   1.124 -0.7136 -0.0194 -0.2667
16141TIP3    H169838   5.516   2.117   1.153  0.0192 -0.3227 -0.5400
16141TIP3    H269839   5.540   1.971   1.123 -0.9384 -0.2580 -1.6947
16142TIP3   OH269840   4.707   1.539   3.568 -0.6017  0.1285  0.0391
16142TIP3    H169841   4.754   1.461   3.598 -0.1081 -0.0376 -1.1123
16142TIP3    H269842   4.615   1.513   3.565 -0.4358 -0.4179 -0.3546
16143TIP3   OH269843   5.938   5.014  16.987  0.2927  0.3366 -0.0749
16143TIP3    H169844   5.959   5.106  16.971 -0.4747  0.6342  0.5432
16143TIP3    H269845   5.900   5.013  17.075  0.9654 -0.6891  0.2143
16144TIP3   OH269846   5.451   0.872   0.778 -0.5945  0.5889 -0.0392
16144TIP3    H169847   5.516   0.803   0.793 -0.6611 -0.0366 -2.2335
16144TIP3    H269848   5.403   0.878   0.860  0.2085 -1.1402  0.6046
16145TIP3   OH269849   5.628   4.943   4.489  0.7202 -0.1714 -0.0793
16145TIP3    H169850   5.688   4.874   4.463  0.7360 -0.4497  0.6882
16145TIP3    H269851   5.572   4.903   4.555 -1.2687 -0.3644 -1.7555
16146TIP3   OH269852   2.493   0.403  14.003  0.2383 -0.2842 -0.3615
16146TIP3    H169853   2.554   0.463  14.045  1.3391 -1.5319 -0.1030
16146TIP3    H269854   2.454   0.454  13.932  1.6343  0.5402 -0.5807
16147TIP3   OH269855   5.678   2.629  17.293  0.0627 -0.1455 -0.3594
16147TIP3    H169856   5.633   2.683  17.358 -2.8012 -0.4216 -1.9330
16147TIP3    H269857   5.712   2.692  17.229  1.8938  0.0551  0.7537
16148TIP3   OH269858   1.510   1.122  11.410  0.1561 -0.1199  0.2397
16148TIP3    H169859   1.442   1.152  11.350 -0.6372 -0.0540  1.1339
16148TIP3    H269860   1.534   1.035  11.379 -0.5643 -0.2724  0.0905
16149TIP3   OH269861   3.860   1.461  16.171 -0.4328  0.1331  0.3150
16149TIP3    H169862   3.860   1.547  16.129 -0.4742  0.2205  0.4908
16149TIP3    H269863   3.778   1.421  16.142  0.6412 -0.7673 -1.6094
16150TIP3   OH269864   6.186   5.032   3.043 -0.7034 -0.2424 -0.1397
16150TIP3    H169865   6.213   4.942   3.057 -0.5891 -0.0436  0.9583
16150TIP3    H269866   6.227   5.056   2.959 -0.3610 -1.0552 -0.2133
16151TIP3   OH269867   4.705   3.226  15.853  0.5853 -0.6253 -0.5715
16151TIP3    H169868   4.650   3.282  15.800 -2.2026 -0.1141  2.5313
16151TIP3    H269869   4.789   3.272  15.859  0.1324  0.5021 -2.3193
16152TIP3   OH269870   4.676   6.703   1.509  0.2423 -0.2556 -0.2694
16152TIP3    H169871   4.746   6.646   1.543  0.7683  1.3101  1.4313
16152TIP3    H269872   4.639   6.744   1.587 -1.7420 -0.0619 -1.2555
16153TIP3   OH269873   1.112   3.741  11.586  0.2487  0.1419  0.3076
16153TIP3    H169874   1.176   3.809  11.567 -0.6344  0.7229 -0.6363
16153TIP3    H269875   1.128   3.673  11.521  0.3098 -0.0079  0.4748
16154TIP3   OH269876   6.230   3.380  15.321 -0.2331 -0.2755 -0.6256
16154TIP3    H169877   6.325   3.386  15.314 -0.3066 -0.1171 -1.5798
16154TIP3    H269878   6.212   3.394  15.414  0.7362 -1.2484 -0.2628
16155TIP3   OH269879   0.546   1.574   2.266 -0.3636 -0.1240 -0.2367
16155TIP3    H169880   0.451   1.584   2.264 -0.2648  0.9068 -0.3105
16155TIP3    H269881   0.566   1.521   2.188 -0.8207  0.2079 -0.5867
16156TIP3   OH269882   3.525   1.984  12.058  0.4688 -0.4705  0.6560
16156TIP3    H169883   3.568   1.978  11.973  2.1269 -0.5202  1.4785
16156TIP3    H269884   3.498   2.076  12.064  0.2791 -0.4831  0.0600
16157TIP3   OH269885   3.187   1.972  15.291  0.7067  0.2145 -0.3244
16157TIP3    H169886   3.161   2.064  15.289  3.7467  1.1857 -0.1364
16157TIP3    H269887   3.208   1.951  15.200  2.4325  0.5619 -0.0520
16158TIP3   OH269888   3.357   1.000   2.650  0.2845 -0.0144 -0.0411
16158TIP3    H169889   3.445   1.033   2.633  0.5035 -0.3932  0.3519
16158TIP3    H269890   3.299   1.068   2.614  0.7335  0.5344  0.2555
16159TIP3   OH269891   0.891   2.216   5.562  0.1732 -0.1237  0.1218
16159TIP3    H169892   0.974   2.247   5.597  0.7106 -0.8616 -0.4432
16159TIP3    H269893   0.835   2.293   5.561  1.3844  0.7985 -1.0470
16160TIP3   OH269894   1.621   0.852   2.710  0.3667  0.0517 -0.0242
16160TIP3    H169895   1.535   0.892   2.699 -0.3514 -0.3805  2.9403
16160TIP3    H269896   1.656   0.893   2.790  1.4002 -2.1867  0.7640
16161TIP3   OH269897   2.084   6.093  16.589  0.1586  0.2520 -0.0436
16161TIP3    H169898   1.994   6.085  16.619  0.1065  0.4148 -0.1560
16161TIP3    H269899   2.116   6.173  16.630  0.0786  0.4902 -0.4358
16162TIP3   OH269900   3.740   6.263   2.087  0.3212 -0.7995 -0.3261
16162TIP3    H169901   3.762   6.202   2.157 -0.2943 -0.4492  0.1787
16162TIP3    H269902   3.723   6.207   2.011 -3.8377 -1.6468  0.9701
16163TIP3   OH269903   3.441   4.549  15.036 -0.6145  0.0345  0.3208
16163TIP3    H169904   3.494   4.483  14.991  0.3622  0.6201  0.5567
16163TIP3    H269905   3.352   4.517  15.031 -0.1468 -1.3411  0.5040
16164TIP3   OH269906   3.842   4.063  11.460  0.4729 -0.8066 -0.3508
16164TIP3    H169907   3.763   4.116  11.449  0.8720 -0.3532 -1.0321
16164TIP3    H269908   3.824   4.011  11.539 -1.8231 -3.0093 -2.1111
16165TIP3   OH269909   6.156   5.760   4.200 -0.4210 -0.1065  0.1349
16165TIP3    H169910   6.068   5.780   4.168 -0.3146 -1.0184 -0.7895
16165TIP3    H269911   6.141   5.718   4.285 -1.0626 -2.1893 -0.9262
16166TIP3   OH269912   5.172   5.090   4.591 -0.4812 -0.0468  0.3259
16166TIP3    H169913   5.250   5.145   4.584  0.6142 -1.3377  1.5680
16166TIP3    H269914   5.128   5.121   4.670 -1.1567  0.5609 -0.2747
16167TIP3   OH269915   3.306   1.378  15.941 -0.1297  0.2282  0.3979
16167TIP3    H169916   3.253   1.392  16.020  0.1335  0.5274  0.5211
16167TIP3    H269917   3.263   1.431  15.874 -0.0278  0.4154  0.4808
16168TIP3   OH269918   5.620   2.653  16.461  0.1179 -0.3727  0.4382
16168TIP3    H169919   5.524   2.652  16.453  0.1862 -0.6277 -0.4057
16168TIP3    H269920   5.636   2.685  16.550 -0.7063  1.4085 -0.0264
16169TIP3   OH269921   1.188   0.205  14.269 -0.4405  0.3318 -0.1298
16169TIP3    H169922   1.220   0.222  14.180 -0.3363  0.5446 -0.0509
16169TIP3    H269923   1.095   0.226  14.266 -0.2185  1.4195  0.0963
16170TIP3   OH269924   6.209   5.211   0.833 -1.1375  0.2396  0.0459
16170TIP3    H169925   6.141   5.276   0.850 -0.4709  1.2988 -1.1618
16170TIP3    H269926   6.186   5.175   0.748  0.3149  1.3215 -0.8478
16171TIP3   OH269927   6.322   1.480  11.592 -0.7329 -0.0360  0.7938
16171TIP3    H169928   6.254   1.455  11.530  1.3226 -0.8983 -1.2364
16171TIP3    H269929   6.385   1.408  11.591  0.9275  1.3038  1.5104
16172TIP3   OH269930   4.915   1.344   1.293 -0.4755 -0.0065  0.1102
16172TIP3    H169931   4.929   1.290   1.216  0.5694 -2.6992  2.0268
16172TIP3    H269932   4.991   1.402   1.296 -0.3951 -0.0567 -0.6981
16173TIP3   OH269933   0.101   5.666  16.507 -0.3337  0.3830  0.3514
16173TIP3    H169934   0.055   5.583  16.520  0.0824  0.1616  0.4316
16173TIP3    H269935   0.130   5.692  16.595  0.3423  0.1370  0.2075
16174TIP3   OH269936   1.963   5.092  12.464 -0.3116 -0.3540 -0.4896
16174TIP3    H169937   1.891   5.155  12.459 -2.3737 -2.4348  0.4891
16174TIP3    H269938   1.991   5.096  12.556 -0.1664 -0.5474 -0.5266
16175TIP3   OH269939   3.229   4.991  11.323  0.1445 -0.2020 -0.0513
16175TIP3    H169940   3.270   5.071  11.291  1.1261 -1.1181 -1.1932
16175TIP3    H269941   3.167   4.967  11.254  0.3854 -0.8143 -0.0546
16176TIP3   OH269942   6.056   2.795   1.286  0.2671 -0.7280  0.2384
16176TIP3    H169943   6.102   2.742   1.351 -0.3079 -0.3774  0.9457
16176TIP3    H269944   5.963   2.785   1.308  0.1859  2.5439  2.0773
16177TIP3   OH269945   4.771   1.237   3.968  0.2049  0.7960  0.6503
16177TIP3    H169946   4.778   1.326   4.001  2.0116  0.2461  1.8997
16177TIP3    H269947   4.853   1.195   3.994  0.2139 -0.7168 -1.5226
16178TIP3   OH269948   1.566   4.916   5.595  0.4984  0.3982  0.2990
16178TIP3    H169949   1.618   4.987   5.631 -1.5381  1.4909  1.2494
16178TIP3    H269950   1.519   4.880   5.670 -0.1855 -0.4989 -0.5245
16179TIP3   OH269951   4.299   4.315   3.852  0.4214  0.2414 -0.3266
16179TIP3    H169952   4.270   4.396   3.810  2.6121  0.0002 -2.5061
16179TIP3    H269953   4.256   4.246   3.802  1.2001  0.0033 -0.6805
16180TIP3   OH269954   0.047   0.508  11.191 -0.6739 -0.3215  0.4877
16180TIP3    H169955   0.045   0.599  11.221  0.1261 -0.9847  2.8034
16180TIP3    H269956  -0.034   0.470  11.225  0.3211 -1.1354  2.0491
16181TIP3   OH269957   1.766   3.100  13.043  0.2689 -0.3998  0.3124
16181TIP3    H169958   1.697   3.049  13.086  0.1528 -0.8623 -0.4148
16181TIP3    H269959   1.726   3.185  13.025 -0.3603 -0.9114 -0.7723
16182TIP3   OH269960   6.617   1.582  15.093 -0.7544 -0.1580 -0.4604
16182TIP3    H169961   6.678   1.643  15.135 -1.0915 -1.6564  2.4532
16182TIP3    H269962   6.531   1.610  15.123 -1.1321 -0.5525 -1.1586
16183TIP3   OH269963   4.700   2.761   6.212  0.1981 -0.7286  0.0365
16183TIP3    H169964   4.666   2.782   6.125  0.7611  0.2622  0.0501
16183TIP3    H269965   4.724   2.845   6.250  2.1198 -1.3268  0.2565
16184TIP3   OH269966   0.898   5.850  12.431  0.3040  0.4689  0.0726
16184TIP3    H169967   0.838   5.864  12.505  0.3299  0.2270  0.1405
16184TIP3    H269968   0.899   5.755  12.419 -1.0870  0.5962 -1.3762
16185TIP3   OH269969   4.030   5.933  17.004  0.0210  0.7543 -0.2138
16185TIP3    H169970   4.070   6.017  16.986  0.6265  0.3044 -1.0270
16185TIP3    H269971   4.069   5.873  16.940 -1.0333  0.0382 -0.2189
16186TIP3   OH269972   1.234   4.914   1.536  0.2048  0.0011  0.4280
16186TIP3    H169973   1.172   4.860   1.586 -0.0172 -0.1591 -0.0167
16186TIP3    H269974   1.199   4.914   1.447  0.9532 -0.2564  0.1274
16187TIP3   OH269975   0.983   3.651  16.585  1.0730 -0.4953 -0.3662
16187TIP3    H169976   0.946   3.671  16.671 -0.3555  0.1381 -1.0847
16187TIP3    H269977   1.068   3.697  16.584  0.2103  1.1922 -0.0074
16188TIP3   OH269978   0.396   1.749   4.190 -0.3686 -0.5079 -0.2773
16188TIP3    H169979   0.305   1.768   4.170 -1.0455 -2.4313  0.7665
16188TIP3    H269980   0.394   1.666   4.238  1.8993 -0.4350  0.0670
16189TIP3   OH269981   5.149   4.794  13.716 -0.5228  0.2171  0.1504
16189TIP3    H169982   5.138   4.741  13.795  0.0189  0.6910  0.5529
16189TIP3    H269983   5.065   4.788  13.671 -0.1106 -1.9893 -0.4520
16190TIP3   OH269984   1.263   3.714   3.984 -0.6696  0.2257  0.1328
16190TIP3    H169985   1.241   3.634   3.936  3.8312 -0.7872 -0.7439
16190TIP3    H269986   1.264   3.783   3.918  0.4808 -0.1209 -0.2367
16191TIP3   OH269987   4.609   5.812  13.125 -0.2232  0.2535  0.2141
16191TIP3    H169988   4.571   5.773  13.046  1.3373 -0.4639 -0.2209
16191TIP3    H269989   4.565   5.897  13.132 -0.7063  0.1562 -1.1905
16192TIP3   OH269990   0.465   3.449  14.571 -0.0713 -0.3830 -0.4015
16192TIP3    H169991   0.557   3.458  14.595 -0.4577  0.4529  0.8437
16192TIP3    H269992   0.452   3.354  14.562  0.5325 -0.6313  1.0474
16193TIP3   OH269993   3.705   4.043  12.757  0.8501 -0.1130  0.2862
16193TIP3    H169994   3.643   3.971  12.768  1.1973 -0.8068 -1.8166
16193TIP3    H269995   3.705   4.087  12.842 -0.5660 -1.6254  1.1498
16194TIP3   OH269996   3.513   1.262  17.298  0.2707 -0.0669 -0.0618
16194TIP3    H169997   3.439   1.202  17.290 -0.5693  0.5192  2.4462
16194TIP3    H269998   3.525   1.298  17.210  0.5029 -3.4644 -1.5665
16195TIP3   OH269999   2.373   5.606  13.699 -0.2095 -0.2694  0.2508
16195TIP3    H170000   2.421   5.638  13.622 -1.7730  5.1762  1.1130
16195TIP3    H270001   2.288   5.577  13.663 -0.1626  0.2366 -0.2899
16196TIP3   OH270002   5.985   4.289  11.275  0.0189 -0.8889 -0.4308
16196TIP3    H170003   5.977   4.261  11.184 -1.3538  0.6852 -0.8375
16196TIP3    H270004   6.056   4.235  11.310 -0.7420 -2.9226 -1.8482
16197TIP3   OH270005   3.648   0.886  15.806  0.2899 -0.1537  0.3744
16197TIP3    H170006   3.728   0.899  15.857 -0.6941  1.2341  1.6736
16197TIP3    H270007   3.631   0.792  15.812  2.0821 -0.5663 -0.3855
16198TIP3   OH270008   6.430   4.227   2.502  0.3113  0.5699  0.1311
16198TIP3    H170009   6.372   4.195   2.572  0.4860 -0.3317 -0.1186
16198TIP3    H270010   6.498   4.276   2.548  0.0767  0.5140  0.5451
16199TIP3   OH270011   2.124   0.884  17.245 -0.1567  0.0342 -0.1741
16199TIP3    H170012   2.191   0.912  17.184 -1.4727  2.9507 -0.4373
16199TIP3    H270013   2.049   0.860  17.189 -0.8045  1.1192  0.2011
16200TIP3   OH270014   1.959   4.726   4.011  0.4249 -0.0062 -0.1899
16200TIP3    H170015   1.980   4.638   4.044 -0.3330  0.3009  1.2285
16200TIP3    H270016   1.942   4.714   3.918  0.5361 -1.3394 -0.0523
16201TIP3   OH270017   3.898   2.092   2.409 -0.1597  0.0801  0.6822
16201TIP3    H170018   3.893   2.173   2.359  0.0013 -1.1352 -1.4296
16201TIP3    H270019   3.991   2.068   2.408 -0.3578 -0.7039  0.2772
16202TIP3   OH270020   5.882   3.471  14.010  0.1968  0.2440  0.0539
16202TIP3    H170021   5.839   3.557  14.011 -1.1034 -0.3692 -0.6326
16202TIP3    H270022   5.812   3.410  13.988  1.0918 -1.0147  0.6042
16203TIP3   OH270023   3.092   1.668   1.014  0.4140  0.3788  0.1892
16203TIP3    H170024   3.147   1.742   0.987 -3.2504  3.1409 -0.5587
16203TIP3    H270025   3.075   1.620   0.933 -0.4399  1.1723 -0.1147
16204TIP3   OH270026   3.813   4.806  11.536 -1.1482 -0.1291  0.0692
16204TIP3    H170027   3.761   4.819  11.616 -1.6582  2.2856 -0.5751
16204TIP3    H270028   3.843   4.715  11.542 -3.9197 -1.0973  1.3701
16205TIP3   OH270029   2.561   4.501   5.576  0.1574  0.1190 -0.0705
16205TIP3    H170030   2.539   4.588   5.610  0.5792 -0.2912  1.3236
16205TIP3    H270031   2.637   4.515   5.521  2.0792  0.3035  2.4421
16206TIP3   OH270032   4.796   0.866  14.611 -0.5609 -0.0011  0.8867
16206TIP3    H170033   4.728   0.850  14.676 -1.5190 -0.4423 -0.1836
16206TIP3    H270034   4.857   0.793  14.622 -0.1540  0.4910  1.9711
16207TIP3   OH270035   3.346   0.597   5.501 -0.0958  0.6585  0.0403
16207TIP3    H170036   3.367   0.604   5.594  0.3050 -2.2920  0.2550
16207TIP3    H270037   3.265   0.546   5.498  1.8551 -2.6588 -1.2179
16208TIP3   OH270038   6.530   1.829  10.975  0.3337  0.2338  0.3613
16208TIP3    H170039   6.436   1.831  10.958  0.1413 -2.2240  0.6363
16208TIP3    H270040   6.569   1.881  10.905 -1.2210  1.3727  0.2973
16209TIP3   OH270041   3.173   5.835   6.555  0.1493  0.0727  0.6856
16209TIP3    H170042   3.156   5.823   6.648 -1.2304 -0.3961  0.3951
16209TIP3    H270043   3.114   5.905   6.528  0.7302  0.3945  0.2063
16210TIP3   OH270044   4.598   2.528  13.334 -0.5843  0.1052 -0.0531
16210TIP3    H170045   4.672   2.468  13.325 -0.4580  0.3129 -0.4084
16210TIP3    H270046   4.552   2.498  13.413 -1.0382 -1.0231 -0.7167
16211TIP3   OH270047   1.901   1.982   4.582 -0.8195  0.1330  0.2140
16211TIP3    H170048   1.943   2.022   4.658 -1.6019  0.4827  0.4729
16211TIP3    H270049   1.810   1.972   4.608 -1.6125  2.2970 -1.4580
16212TIP3   OH270050   1.488   2.930   5.900 -0.1751  0.3033  0.8343
16212TIP3    H170051   1.513   2.838   5.907  0.6952  0.4911  0.3218
16212TIP3    H270052   1.570   2.976   5.888 -0.6431  1.1141  0.7016
16213TIP3   OH270053   5.319   5.575  14.238 -0.4460  0.3203 -0.1779
16213TIP3    H170054   5.239   5.528  14.265  0.3791  0.3310  2.6090
16213TIP3    H270055   5.355   5.521  14.168 -0.9583 -1.7957  1.0850
16214TIP3   OH270056   5.367   0.378   3.751 -0.5111 -0.2981  0.4958
16214TIP3    H170057   5.324   0.377   3.666 -1.3276  0.1822  0.8910
16214TIP3    H270058   5.459   0.358   3.732 -0.6513 -0.0279 -0.5069
16215TIP3   OH270059   3.405   5.287   5.918 -0.0441 -0.0401 -0.0823
16215TIP3    H170060   3.416   5.232   5.995  1.4550  0.5060  0.1293
16215TIP3    H270061   3.466   5.359   5.931 -0.4486  0.5598 -1.3408
16216TIP3   OH270062   3.803   6.612  12.384 -0.0433 -0.0993  0.5472
16216TIP3    H170063   3.833   6.530  12.423 -0.4733 -0.7011 -0.3251
16216TIP3    H270064   3.714   6.592  12.353  1.3252 -0.8228 -3.7052
16217TIP3   OH270065   0.277   1.633   1.461  0.3114  0.3196 -0.7010
16217TIP3    H170066   0.188   1.649   1.428  0.6250  1.2579 -1.1267
16217TIP3    H270067   0.321   1.587   1.389  0.0710 -0.4996 -0.3401
16218TIP3   OH270068   1.086   0.280  11.336 -0.8196  0.3704 -0.0753
16218TIP3    H170069   1.154   0.342  11.312 -0.0159  0.3347  1.9181
16218TIP3    H270070   1.015   0.334  11.372 -0.5474  0.2356  0.6932
16219TIP3   OH270071   4.338   2.170  16.823 -0.2461 -0.2263  0.3027
16219TIP3    H170072   4.325   2.226  16.747  2.4702 -0.8464 -0.7569
16219TIP3    H270073   4.431   2.181  16.846 -0.4084 -1.8427  2.0393
16220TIP3   OH270074   3.456   2.129  12.558  0.2422 -0.2118  0.3096
16220TIP3    H170075   3.414   2.112  12.642  0.3746 -1.6262  0.1040
16220TIP3    H270076   3.487   2.044  12.528  1.5542  0.4984 -0.4554
16221TIP3   OH270077   0.436   5.621  15.167 -0.0832  0.0145 -0.7312
16221TIP3    H170078   0.409   5.536  15.134  0.3146 -0.2111 -0.4784
16221TIP3    H270079   0.452   5.673  15.088  1.6684 -0.7752 -0.9345
16222TIP3   OH270080   3.747   5.515  15.240 -0.0596  0.5872  0.3753
16222TIP3    H170081   3.780   5.604  15.251  1.9101  0.0865 -1.0046
16222TIP3    H270082   3.791   5.482  15.162 -1.1265 -1.4337  0.5567
16223TIP3   OH270083   4.680   2.246   2.308 -0.6938 -0.0795  0.5031
16223TIP3    H170084   4.720   2.242   2.395 -0.5510  1.7339  0.5622
16223TIP3    H270085   4.701   2.334   2.277 -0.6704 -0.7231 -1.4136
16224TIP3   OH270086   0.726   0.803   3.633  0.7233 -0.0412  0.7500
16224TIP3    H170087   0.694   0.724   3.590 -2.2117  0.5343  1.6420
16224TIP3    H270088   0.752   0.860   3.561 -0.2895 -0.5910 -0.0768
16225TIP3   OH270089   6.671   2.229  12.908  0.0489  0.2406 -0.2631
16225TIP3    H170090   6.607   2.202  12.974 -0.8551  1.9627 -0.3716
16225TIP3    H270091   6.740   2.163  12.913 -1.5850 -1.5382  0.0554
16226TIP3   OH270092   2.253   2.719   4.345  0.5702 -0.1951  0.3374
16226TIP3    H170093   2.166   2.683   4.327  0.3279  0.3710  0.3319
16226TIP3    H270094   2.269   2.699   4.437  0.3634 -0.1663  0.3807
16227TIP3   OH270095   2.140   6.273   1.748  0.2578 -0.4208 -0.6888
16227TIP3    H170096   2.165   6.365   1.746 -1.9255  0.2604  0.2208
16227TIP3    H270097   2.149   6.247   1.839 -1.1717 -0.4599 -0.5377
16228TIP3   OH270098   3.645   5.957   1.291  0.2458 -0.4059 -0.0577
16228TIP3    H170099   3.614   5.877   1.249 -1.3436  0.0766  0.1303
16228TIP3    H270100   3.740   5.959   1.274 -0.3118  0.0010 -4.0225
16229TIP3   OH270101   0.685   2.864  15.296 -0.6007 -0.1627 -0.0936
16229TIP3    H170102   0.678   2.784  15.243  1.3421 -2.3013  2.5754
16229TIP3    H270103   0.775   2.894  15.281 -0.9740  0.9026 -0.2164
16230TIP3   OH270104   6.325   5.765   2.027 -0.2838  0.6323  0.6646
16230TIP3    H170105   6.340   5.675   2.000 -0.1848  1.1098 -1.0206
16230TIP3    H270106   6.341   5.766   2.121 -0.7246 -1.1838  0.7848
16231TIP3   OH270107   5.459   5.707   3.359  0.6069  0.0107  0.3010
16231TIP3    H170108   5.413   5.634   3.401  0.9367 -0.6262 -0.4174
16231TIP3    H270109   5.396   5.742   3.296  0.2499  0.7163  1.0388
16232TIP3   OH270110   1.390   3.005  14.825  0.0385  0.7181  0.1720
16232TIP3    H170111   1.365   3.079  14.881 -0.8409  1.8583 -1.6472
16232TIP3    H270112   1.390   3.040  14.737 -1.0046 -1.5918 -0.8451
16233TIP3   OH270113   6.098   2.313   1.071 -0.2541  0.6766  0.0802
16233TIP3    H170114   6.090   2.380   1.003 -1.0153  0.8605  0.3349
16233TIP3    H270115   6.074   2.231   1.027  2.3355  0.2476 -0.6820
16234TIP3   OH270116   1.198   1.573  12.143 -0.5610 -0.9299 -0.2000
16234TIP3    H170117   1.203   1.502  12.206 -1.4957 -2.9183 -2.2183
16234TIP3    H270118   1.144   1.538  12.072 -1.2210  1.8836 -1.2145
16235TIP3   OH270119   4.000   3.267   3.862 -0.8204  0.4930  0.2400
16235TIP3    H170120   4.048   3.272   3.944  0.2511  0.5401 -0.3717
16235TIP3    H270121   4.035   3.339   3.809  1.0309 -1.5871 -1.5426
16236TIP3   OH270122   3.146   4.140   1.875 -0.2646  0.0258 -0.0666
16236TIP3    H170123   3.206   4.186   1.816  0.3860 -1.1185 -0.3295
16236TIP3    H270124   3.086   4.208   1.905 -0.1175  0.8017 -1.4110
16237TIP3   OH270125   4.586   3.179   0.614  0.1795 -0.2694  0.0223
16237TIP3    H170126   4.583   3.083   0.614 -0.1101 -0.2595  0.4857
16237TIP3    H270127   4.525   3.205   0.545  2.0816 -0.4645 -1.8472
16238TIP3   OH270128   1.076   0.831  14.505  0.5221  0.0543  0.3755
16238TIP3    H170129   1.047   0.922  14.508 -1.2258 -0.4282 -0.4261
16238TIP3    H270130   1.127   0.824  14.425 -1.8485 -0.2886 -1.2021
16239TIP3   OH270131   4.302   0.659   4.661  0.0434  0.2291 -0.0724
16239TIP3    H170132   4.382   0.609   4.651 -0.3879 -0.4356 -0.2335
16239TIP3    H270133   4.327   0.735   4.714  0.8426  0.1996 -0.4021
16240TIP3   OH270134   0.845   4.953  11.587  0.0473 -0.2112 -0.2420
16240TIP3    H170135   0.784   5.005  11.535  2.5095  0.0338 -3.1009
16240TIP3    H270136   0.883   5.016  11.649 -1.7835 -0.1795  0.9482
16241TIP3   OH270137   2.337   1.991   5.792  0.1738 -0.1223 -0.6534
16241TIP3    H170138   2.273   1.972   5.723 -0.0335  0.1415 -0.5373
16241TIP3    H270139   2.303   2.070   5.835 -0.7791 -1.3854  1.0496
16242TIP3   OH270140   0.739   3.736   6.264  0.9401 -0.2672 -0.8685
16242TIP3    H170141   0.730   3.714   6.357 -0.5704  1.5791 -0.5296
16242TIP3    H270142   0.701   3.661   6.218  0.2586 -0.5058  0.0582
16243TIP3   OH270143   4.166   2.286   2.197  0.5226  0.0786  0.4513
16243TIP3    H170144   4.199   2.367   2.158  0.8252  0.3591  1.2823
16243TIP3    H270145   4.072   2.301   2.208 -0.0361 -0.8604 -2.2662
16244TIP3   OH270146   3.701   0.661   6.914 -0.4881 -0.6733  0.9515
16244TIP3    H170147   3.787   0.697   6.936  0.3051 -1.7275 -0.3040
16244TIP3    H270148   3.651   0.736   6.883  1.4016 -0.6149 -2.4066
16245TIP3   OH270149   5.778   5.977   3.132  0.5080 -0.1553  0.1094
16245TIP3    H170150   5.848   6.009   3.075  2.0600 -0.6204  1.6690
16245TIP3    H270151   5.772   6.042   3.202  1.1311 -1.3699  1.3287
16246TIP3   OH270152   6.253   4.321   5.942 -0.0006 -0.4060  0.2563
16246TIP3    H170153   6.310   4.246   5.926  0.4726  0.1030 -0.4838
16246TIP3    H270154   6.300   4.396   5.904 -1.6587 -0.1310 -1.3902
16247TIP3   OH270155   3.456   0.862   5.788  0.4678  0.2310  0.2707
16247TIP3    H170156   3.442   0.769   5.771 -0.3829  0.6158 -1.3519
16247TIP3    H270157   3.550   0.871   5.800  0.4062 -1.0672  2.1880
16248TIP3   OH270158   6.632   2.375   1.199  0.2450 -0.1520  0.3646
16248TIP3    H170159   6.582   2.434   1.254  2.1265  1.3942  0.4967
16248TIP3    H270160   6.579   2.365   1.120 -0.1311  1.7473  0.3361
16249TIP3   OH270161   3.150   0.685   0.028 -0.1861 -0.0241 -0.0607
16249TIP3    H170162   3.068   0.735   0.028  0.3031  0.8002  0.3003
16249TIP3    H270163   3.169   0.671   0.120  0.9119  1.2226 -0.0699
16250TIP3   OH270164   5.004   5.063  13.093  0.4508 -0.3975  0.7738
16250TIP3    H170165   4.967   5.037  13.178 -0.2557  0.4203  0.7297
16250TIP3    H270166   5.030   4.980  13.052 -0.8634 -0.9565  1.0295
16251TIP3   OH270167   4.152   1.001   0.898  0.2033  0.2549 -0.3582
16251TIP3    H170168   4.149   0.954   0.982  0.8164  1.0170  0.1029
16251TIP3    H270169   4.228   0.966   0.853  0.7533  0.8987  0.0532
16252TIP3   OH270170   1.493   3.770   3.481  0.1857  0.0531  0.1116
16252TIP3    H170171   1.511   3.683   3.516 -1.3533 -0.3471  0.0072
16252TIP3    H270172   1.479   3.825   3.558  2.8011  0.6680  0.2451
16253TIP3   OH270173   4.853   5.340   1.527 -0.1843 -0.6775  0.1681
16253TIP3    H170174   4.774   5.357   1.579  1.5576 -0.0011  2.7844
16253TIP3    H270175   4.833   5.376   1.441 -0.8818  4.4428  2.1595
16254TIP3   OH270176   6.165   2.379   4.295  0.3333  0.4581  0.1688
16254TIP3    H170177   6.195   2.468   4.316  0.1462  1.2476 -2.5122
16254TIP3    H270178   6.244   2.326   4.301 -0.0164  0.0293  4.7085
16255TIP3   OH270179   6.372   1.772   1.966 -0.1617  0.6011  0.4616
16255TIP3    H170180   6.343   1.837   1.902  0.7755  1.1209  0.5570
16255TIP3    H270181   6.306   1.777   2.035 -0.7049  0.6505 -0.0454
16256TIP3   OH270182   6.364   0.634  12.000 -0.7080  0.1244  0.0007
16256TIP3    H170183   6.311   0.556  11.985  0.0355 -0.4305  0.1872
16256TIP3    H270184   6.317   0.704  11.954 -0.6497 -0.7090 -1.3803
16257TIP3   OH270185   2.857   6.348  12.985 -0.1021  0.1536  0.4339
16257TIP3    H170186   2.930   6.409  12.979  0.8701 -0.8269  1.6617
16257TIP3    H270187   2.779   6.403  12.995  0.4524  1.2107 -0.7333
16258TIP3   OH270188   3.427   0.722   0.784  0.1408 -0.0950 -0.3914
16258TIP3    H170189   3.380   0.730   0.700  0.6220  1.2687 -0.5446
16258TIP3    H270190   3.519   0.719   0.759  0.2461 -0.4635  0.0500
16259TIP3   OH270191   1.263   4.630   2.461 -0.1139 -0.2789  0.2427
16259TIP3    H170192   1.210   4.665   2.390 -1.6007 -3.0755 -0.1679
16259TIP3    H270193   1.253   4.535   2.454  1.5290 -0.7402  2.8109
16260TIP3   OH270194   3.056   4.264   2.840  0.0980  0.1601 -0.2889
16260TIP3    H170195   3.050   4.332   2.772  0.7782 -0.0484 -0.5676
16260TIP3    H270196   3.107   4.194   2.800  1.0789  0.3081  0.6473
16261TIP3   OH270197   6.667   4.291  17.215 -0.2596  0.4109  0.6169
16261TIP3    H170198   6.724   4.334  17.279 -1.6847 -0.1767  2.3863
16261TIP3    H270199   6.645   4.207  17.256  0.9123 -1.2376 -1.8628
16262TIP3   OH270200   1.329   5.808   3.647  0.0334 -0.6440 -0.1178
16262TIP3    H170201   1.376   5.749   3.706  1.7316  0.5858 -0.1786
16262TIP3    H270202   1.373   5.797   3.562 -0.4207 -0.1600 -0.4221
16263TIP3   OH270203   2.246   5.689   4.364 -0.2162  0.0276 -0.0636
16263TIP3    H170204   2.274   5.598   4.367 -0.9902 -0.1765  1.5065
16263TIP3    H270205   2.275   5.727   4.447 -1.2169  0.8072 -0.0496
16264TIP3   OH270206   0.342   2.193  12.911  0.4069  0.3803 -0.1807
16264TIP3    H170207   0.341   2.279  12.954 -0.0155  1.1917 -1.7209
16264TIP3    H270208   0.250   2.174  12.893  0.4165 -0.8405  0.9302
16265TIP3   OH270209   5.191   5.936  16.610  0.2487  0.7742  0.5475
16265TIP3    H170210   5.153   5.873  16.549  0.8320  1.3732 -0.4569
16265TIP3    H270211   5.118   5.993  16.633  0.2254  1.1322 -0.3614
16266TIP3   OH270212   2.205   2.237   5.165  0.0626  0.4086  0.5454
16266TIP3    H170213   2.296   2.251   5.137  0.1587 -0.1101  0.5758
16266TIP3    H270214   2.155   2.307   5.124  0.5163  0.8499  0.7312
16267TIP3   OH270215   3.598   2.759   5.262  0.1444  0.3971  0.0608
16267TIP3    H170216   3.663   2.810   5.310 -1.2461  1.4158  0.9390
16267TIP3    H270217   3.589   2.804   5.178 -0.1362  0.8304  0.3230
16268TIP3   OH270218   4.999   6.761   2.293  0.1440  0.3921 -0.1510
16268TIP3    H170219   4.930   6.792   2.351 -0.5570  0.9581 -1.2468
16268TIP3    H270220   5.055   6.837   2.280 -0.7898  0.8594 -1.7234
16269TIP3   OH270221   0.421   4.912   0.192  0.2405  0.0112 -0.0789
16269TIP3    H170222   0.326   4.918   0.188  0.2396  0.4354  0.5755
16269TIP3    H270223   0.440   4.819   0.181 -0.1117  0.1816 -2.7440
16270TIP3   OH270224   6.605   2.761  12.156  0.1470  0.9011  0.2490
16270TIP3    H170225   6.669   2.778  12.225 -0.3924  0.6405  0.8235
16270TIP3    H270226   6.657   2.722  12.085  0.6323  0.7184  0.6950
16271TIP3   OH270227   1.042   2.464   4.815 -0.1602 -0.2851  0.1518
16271TIP3    H170228   1.016   2.447   4.725 -1.4557  2.5023 -0.1089
16271TIP3    H270229   1.114   2.526   4.808 -1.6826  1.6563  0.9840
16272TIP3   OH270230   6.172   0.321  16.992 -0.4176 -0.2022 -0.1416
16272TIP3    H170231   6.230   0.310  16.916 -0.2422 -0.9304  0.0942
16272TIP3    H270232   6.140   0.233  17.011 -0.7962  0.0435  0.3693
16273TIP3   OH270233   6.215   3.774  13.708 -0.0385 -0.3485 -0.3913
16273TIP3    H170234   6.165   3.831  13.767 -0.2600  0.8349 -1.6565
16273TIP3    H270235   6.188   3.685  13.732  1.2828 -0.0804  2.5174
16274TIP3   OH270236   4.818   5.080   4.813  0.0626  0.6706  0.3560
16274TIP3    H170237   4.725   5.101   4.811 -0.4626 -1.1691  2.3386
16274TIP3    H270238   4.825   5.003   4.869  2.6264 -0.2022 -0.9861
16275TIP3   OH270239   5.203   5.863  14.160 -0.2744  0.2664 -1.0426
16275TIP3    H170240   5.286   5.865  14.207 -0.7117  0.7982 -0.2594
16275TIP3    H270241   5.177   5.955  14.155 -1.5043 -0.0056 -0.0207
16276TIP3   OH270242   5.460   5.251  15.828 -0.5543  0.7094 -0.0148
16276TIP3    H170243   5.392   5.217  15.886 -1.1398  1.6089 -0.1398
16276TIP3    H270244   5.536   5.265  15.884 -0.1507 -1.1669 -0.0464
16277TIP3   OH270245   0.697   4.147   4.153 -0.2183 -0.1752  0.1355
16277TIP3    H170246   0.710   4.239   4.176 -1.0893  0.1211 -0.4871
16277TIP3    H270247   0.757   4.099   4.209  1.0844  0.8497 -0.3276
16278TIP3   OH270248   3.335   6.296   3.740  0.2414 -0.0670 -0.0495
16278TIP3    H170249   3.256   6.252   3.771  0.0475 -0.2957 -0.8511
16278TIP3    H270250   3.323   6.303   3.645 -0.7532  3.6375  0.1824
16279TIP3   OH270251   6.239   5.180  11.240 -0.3402 -0.2381  0.1981
16279TIP3    H170252   6.268   5.270  11.229  2.3913 -1.2656 -2.2625
16279TIP3    H270253   6.168   5.170  11.177  0.2716 -0.1274 -0.5272
16280TIP3   OH270254   4.906   2.605  13.394 -0.2176 -0.3531 -0.4818
16280TIP3    H170255   4.963   2.532  13.369 -1.0518 -0.8064 -1.1329
16280TIP3    H270256   4.829   2.563  13.431  0.3872  0.2878  1.6105
16281TIP3   OH270257   3.162   5.385  14.758  0.1997 -0.1476  0.2920
16281TIP3    H170258   3.197   5.305  14.798 -0.9265 -1.0333 -0.4149
16281TIP3    H270259   3.151   5.446  14.831  0.6229 -0.8072  0.9150
16282TIP3   OH270260   4.723   0.016   5.979  0.8134  0.1278  0.7397
16282TIP3    H170261   4.780   0.044   5.907  0.2658 -2.7080 -0.9462
16282TIP3    H270262   4.783  -0.005   6.050  1.5686  0.6534  0.2732
16283TIP3   OH270263   5.045   3.277   2.273 -0.2880  0.4081  0.4490
16283TIP3    H170264   5.025   3.184   2.259 -1.6261  0.7531 -0.1226
16283TIP3    H270265   5.127   3.277   2.321  0.4970 -1.0472 -0.8101
16284TIP3   OH270266   1.295   3.913  15.519 -0.0617  0.4055 -0.1441
16284TIP3    H170267   1.248   3.935  15.600 -1.7186 -0.9344 -0.6775
16284TIP3    H270268   1.318   3.997  15.481 -2.3080  1.1867  0.0399
16285TIP3   OH270269   5.034   0.080  14.200 -0.2002 -0.1734 -0.0942
16285TIP3    H170270   4.947   0.119  14.209  0.0602  0.3524  0.1222
16285TIP3    H270271   5.078   0.099  14.283 -0.3243 -1.5777  0.3348
16286TIP3   OH270272   5.713   2.679   6.578 -0.0717  0.0004  0.3069
16286TIP3    H170273   5.623   2.704   6.557 -0.0002  3.0829  2.8624
16286TIP3    H270274   5.703   2.613   6.648 -0.2656 -1.2911 -0.8916
16287TIP3   OH270275   4.945   4.799  14.385 -0.3452 -0.6966 -0.4333
16287TIP3    H170276   4.961   4.886  14.350 -1.6376  0.4529  1.5974
16287TIP3    H270277   5.017   4.784  14.447  0.2558 -1.3998 -1.2800
16288TIP3   OH270278   4.178   5.400  16.575 -0.5427  0.5578  0.3630
16288TIP3    H170279   4.241   5.352  16.629 -0.3283  0.1649 -0.2249
16288TIP3    H270280   4.122   5.446  16.638 -0.8589 -0.5954  0.9516
16289TIP3   OH270281   3.086   3.110  11.280 -0.3348  0.4579 -0.2743
16289TIP3    H170282   2.993   3.135  11.288 -0.6562 -0.8087  0.2514
16289TIP3    H270283   3.086   3.037  11.218  0.2412  0.1171  0.1185
16290TIP3   OH270284   1.466   0.165   3.473 -0.0382 -0.9452 -0.9116
16290TIP3    H170285   1.470   0.088   3.530 -0.0028  1.2882  2.3804
16290TIP3    H270286   1.557   0.184   3.450  0.2626 -0.3534  0.6373
16291TIP3   OH270287   2.514   3.534   5.781 -0.0660  0.4567  0.1856
16291TIP3    H170288   2.551   3.519   5.868  0.4941 -0.6147 -0.2167
16291TIP3    H270289   2.485   3.625   5.783  0.7949  0.7340  1.1775
16292TIP3   OH270290   5.061   6.253  12.419 -0.8078  0.0180  0.5610
16292TIP3    H170291   4.969   6.227  12.429 -0.6826 -0.0685  1.6219
16292TIP3    H270292   5.084   6.294  12.502  0.4735 -1.0848  0.7975
16293TIP3   OH270293   2.006   1.802  14.279 -0.6893  0.0062 -0.2911
16293TIP3    H170294   2.026   1.877  14.224  1.1278 -0.7401 -0.6983
16293TIP3    H270295   2.091   1.770  14.309 -1.2925 -2.5248 -1.0167
16294TIP3   OH270296   2.402   2.518   5.315 -0.1377  0.1334 -0.7483
16294TIP3    H170297   2.375   2.609   5.328  1.0905  0.5503 -0.9431
16294TIP3    H270298   2.350   2.488   5.241  0.1768  1.0280 -1.3563
16295TIP3   OH270299   2.250   6.578   5.675  0.1970  0.3051  0.4432
16295TIP3    H170300   2.282   6.545   5.591 -1.3398  0.0461 -0.0709
16295TIP3    H270301   2.235   6.499   5.728  0.4631  0.4259  0.7017
16296TIP3   OH270302   1.305   3.996   1.177 -0.1539  0.0051 -0.5931
16296TIP3    H170303   1.363   3.986   1.252 -0.3345 -0.3406 -0.4995
16296TIP3    H270304   1.218   4.002   1.215 -0.0695  2.0930 -0.6183
16297TIP3   OH270305   1.121   3.902  13.662 -0.8835  0.2297  0.9389
16297TIP3    H170306   1.133   3.807  13.656 -0.2561  0.4015 -2.1207
16297TIP3    H270307   1.180   3.928  13.733  0.2630 -1.4847  0.6948
16298TIP3   OH270308   3.528   2.300  13.095  0.0601 -0.0810  0.2520
16298TIP3    H170309   3.452   2.274  13.148  0.2329 -0.7684  0.1688
16298TIP3    H270310   3.595   2.324  13.159  0.5847 -1.7841  0.4081
16299TIP3   OH270311   0.523   3.047  13.793  0.2084  0.9085  0.0127
16299TIP3    H170312   0.457   2.993  13.749 -2.4806  1.6154  2.8572
16299TIP3    H270313   0.602   2.992  13.794 -1.0885 -1.1030 -1.1511
16300TIP3   OH270314   0.600   4.405  15.269 -0.2875 -0.0771 -0.1095
16300TIP3    H170315   0.541   4.342  15.309  0.2490 -0.1568  0.5606
16300TIP3    H270316   0.560   4.424  15.184 -2.2214  1.2000  1.0059
16301TIP3   OH270317   0.324   4.305  14.913 -0.3758 -0.2910 -0.1052
16301TIP3    H170318   0.289   4.365  14.847  1.2094  0.1268 -0.5996
16301TIP3    H270319   0.408   4.342  14.937 -0.4261 -1.0515  1.3520
16302TIP3   OH270320   0.723   1.504   4.780  0.0119  0.3518  0.8306
16302TIP3    H170321   0.660   1.537   4.716  0.5915 -0.5995 -0.2460
16302TIP3    H270322   0.672   1.444   4.835 -0.2246  0.2934  0.5505
16303TIP3   OH270323   6.306   3.074   2.026  0.3991  0.4863 -0.3436
16303TIP3    H170324   6.388   3.079   2.075 -0.5282 -0.8387  1.5221
16303TIP3    H270325   6.250   3.017   2.080 -1.8968  1.6942 -1.2973
16304TIP3   OH270326   0.109   0.421  16.720 -0.8252 -0.0252  0.5359
16304TIP3    H170327   0.128   0.479  16.793 -1.5786  0.1388  0.6166
16304TIP3    H270328   0.180   0.356  16.721  0.6297  1.4923 -0.2262
16305TIP3   OH270329   3.442   4.508  11.307  0.7090 -0.1708  0.6660
16305TIP3    H170330   3.370   4.448  11.286  0.4033  0.3735  0.1489
16305TIP3    H270331   3.403   4.595  11.304  1.2444  0.0872  1.0330
16306TIP3   OH270332   0.211   2.102  16.216 -0.1861 -0.2630 -0.2105
16306TIP3    H170333   0.164   2.027  16.179 -1.1065  0.2607 -0.1437
16306TIP3    H270334   0.142   2.166  16.236  0.6474  1.0084 -1.1973
16307TIP3   OH270335   2.262   0.585  16.007 -0.7946  0.0792  0.3594
16307TIP3    H170336   2.273   0.529  16.084 -1.4729  0.1349  0.4975
16307TIP3    H270337   2.220   0.529  15.942 -0.4385  0.1019  0.1092
16308TIP3   OH270338   5.786   3.894   2.452  0.5816  0.0350  0.0425
16308TIP3    H170339   5.848   3.966   2.458  2.2529 -1.2941 -0.3761
16308TIP3    H270340   5.739   3.909   2.370  0.3084  1.0801  0.3849
16309TIP3   OH270341   1.625   4.762  13.526 -0.3930 -0.3559  0.3155
16309TIP3    H170342   1.540   4.748  13.485  0.8241 -0.6277 -2.3377
16309TIP3    H270343   1.623   4.853  13.556 -1.5921 -0.3456  0.2259
16310TIP3   OH270344   3.785   1.742  15.589  0.7564  0.6799 -0.4593
16310TIP3    H170345   3.859   1.709  15.641  0.0885  0.4400  0.3638
16310TIP3    H270346   3.710   1.738  15.649  0.1719  1.3936 -1.1240
16311TIP3   OH270347   0.771   1.281   6.212 -0.1125 -0.8364  0.4046
16311TIP3    H170348   0.786   1.292   6.306 -0.4764  1.2432  0.2891
16311TIP3    H270349   0.831   1.212   6.185  3.3968  1.5402  1.3884
16312TIP3   OH270350   0.036   0.068  14.104 -0.2550 -0.3236 -0.2515
16312TIP3    H170351   0.071   0.033  14.022  0.0480 -0.4359 -0.0779
16312TIP3    H270352  -0.056   0.043  14.104 -0.4855  0.4561 -0.9820
16313TIP3   OH270353   6.110   6.516   6.134 -0.4649  0.4511 -0.6471
16313TIP3    H170354   6.150   6.600   6.159 -0.1964  0.6260 -1.6201
16313TIP3    H270355   6.106   6.519   6.039 -0.3882 -0.6837 -0.6952
16314TIP3   OH270356   1.673   4.317   0.253 -0.2138 -0.2297 -0.6559
16314TIP3    H170357   1.669   4.327   0.348 -0.9404  1.4222 -0.8263
16314TIP3    H270358   1.629   4.395   0.219  0.0005 -0.8108 -2.3532
16315TIP3   OH270359   0.635   5.570  12.737 -0.0331 -0.0711  0.4080
16315TIP3    H170360   0.541   5.575  12.749 -0.8519  0.0489 -4.2645
16315TIP3    H270361   0.651   5.482  12.703  1.2684  0.4334 -0.3700
16316TIP3   OH270362   3.475   5.973   5.966 -0.3784 -0.8989  0.0726
16316TIP3    H170363   3.437   6.045   6.015 -0.7592  0.2872 -1.8879
16316TIP3    H270364   3.459   5.896   6.022 -1.8177  0.1889  1.2581
16317TIP3   OH270365   3.645   4.085   0.274  0.1258  0.3502 -0.0503
16317TIP3    H170366   3.617   4.125   0.192 -0.2452  1.6067  0.6620
16317TIP3    H270367   3.600   4.001   0.277 -1.0029  0.9240 -0.4573
16318TIP3   OH270368   4.794   1.940   3.810  0.2866 -0.1010 -0.1413
16318TIP3    H170369   4.822   1.860   3.766 -0.7220 -0.4429 -0.1908
16318TIP3    H270370   4.869   1.966   3.863  0.3849 -1.4817  0.4345
16319TIP3   OH270371   3.788   1.760  16.596 -0.4482 -0.0820 -0.4052
16319TIP3    H170372   3.802   1.762  16.501  0.4410  0.1275 -0.2773
16319TIP3    H270373   3.860   1.813  16.632  0.3269 -1.6868  0.5148
16320TIP3   OH270374   4.141   4.544  13.915 -0.1584 -0.4358 -0.2111
16320TIP3    H170375   4.107   4.581  13.833  0.4206  2.2094  0.6329
16320TIP3    H270376   4.235   4.562  13.912 -0.4540  2.0808  2.0612
16321TIP3   OH270377   4.144   0.312   5.231 -0.1723 -0.4878 -0.2050
16321TIP3    H170378   4.223   0.329   5.282  0.4808 -1.2171 -0.9285
16321TIP3    H270379   4.167   0.341   5.142 -0.8285 -0.4391 -0.3653
16322TIP3   OH270380   6.084   1.928  14.217 -0.7515  0.3863 -0.6652
16322TIP3    H170381   6.167   1.897  14.182 -0.0963  1.6864 -0.3062
16322TIP3    H270382   6.089   1.911  14.311 -0.5860  1.1181 -0.5369
16323TIP3   OH270383   4.929   3.517  11.691 -0.0680  0.4443 -0.2258
16323TIP3    H170384   4.905   3.426  11.676  0.1687  0.3321  0.0676
16323TIP3    H270385   5.025   3.516  11.694 -0.0378  0.8096 -0.9020
16324TIP3   OH270386   1.989   4.235   3.120 -0.4312 -0.1864 -0.1192
16324TIP3    H170387   2.013   4.327   3.131 -1.0015  0.1687 -1.5686
16324TIP3    H270388   2.042   4.188   3.184 -0.7684  1.2255  1.2433
16325TIP3   OH270389   3.435   4.192  17.008 -0.2635  0.1113  1.0259
16325TIP3    H170390   3.525   4.193  17.040  0.5191  1.4632 -1.0014
16325TIP3    H270391   3.383   4.227  17.081  1.2481  1.9558  1.2849
16326TIP3   OH270392   0.616   6.525  14.715 -0.5825  0.3627 -1.0939
16326TIP3    H170393   0.692   6.476  14.684 -0.8539 -0.2182 -0.8647
16326TIP3    H270394   0.653   6.602  14.758  0.0038 -0.8370  0.6721
16327TIP3   OH270395   1.168   1.386  13.438 -0.1550  0.1215  0.1643
16327TIP3    H170396   1.211   1.322  13.382 -1.2839 -0.3510 -0.1776
16327TIP3    H270397   1.182   1.354  13.527  0.5457  0.1952  0.0831
16328TIP3   OH270398   6.282   5.678  14.662 -0.2957 -0.2393 -0.3639
16328TIP3    H170399   6.240   5.600  14.626 -1.4555  0.6963 -1.1020
16328TIP3    H270400   6.299   5.655  14.754 -0.7456 -1.3022 -0.5275
16329TIP3   OH270401   4.450   1.615   1.385 -0.5216 -0.3565 -0.8516
16329TIP3    H170402   4.522   1.565   1.347 -0.7805 -0.5126 -1.1408
16329TIP3    H270403   4.406   1.655   1.310  0.8620  1.9594 -0.5113
16330TIP3   OH270404   6.378   3.610   5.805  0.1226 -0.0114 -0.2913
16330TIP3    H170405   6.397   3.594   5.898  0.7650 -0.6090 -0.5222
16330TIP3    H270406   6.430   3.688   5.784 -0.5733  0.5515  0.0229
16331TIP3   OH270407   1.467   0.974  16.258 -0.9774  0.4129  0.3039
16331TIP3    H170408   1.522   0.897  16.247 -0.1094  0.9410  0.8277
16331TIP3    H270409   1.383   0.939  16.289  0.3506 -0.1952  3.7054
16332TIP3   OH270410   3.870   5.261  14.653 -0.0384 -0.1378  0.4935
16332TIP3    H170411   3.914   5.325  14.597 -1.0855  1.2717  1.2256
16332TIP3    H270412   3.778   5.265  14.627 -0.4411  0.0829  1.8785
16333TIP3   OH270413   3.257   1.985  11.459 -0.2173  0.2804  0.0510
16333TIP3    H170414   3.327   2.033  11.415 -0.5734 -0.5950 -1.5081
16333TIP3    H270415   3.262   2.015  11.550  2.2286  0.1691  0.0145
16334TIP3   OH270416   6.738   3.030   4.606  0.5169  0.1182 -0.3798
16334TIP3    H170417   6.782   2.983   4.536  0.7300 -0.9830  0.4737
16334TIP3    H270418   6.797   3.024   4.680  0.1298  0.9569  0.0090
16335TIP3   OH270419   1.933   0.198   2.947 -0.2943  0.1725 -0.0219
16335TIP3    H170420   1.897   0.286   2.958  0.4514  0.5250 -0.3508
16335TIP3    H270421   1.888   0.146   3.013  0.2858  1.1036  1.1414
16336TIP3   OH270422   5.726   2.155  15.651 -0.3654 -0.0064 -0.0570
16336TIP3    H170423   5.773   2.096  15.710 -0.5845 -1.5797 -1.3739
16336TIP3    H270424   5.795   2.197  15.600 -0.0792  2.3043  2.0155
16337TIP3   OH270425   1.457   3.388   4.620 -0.2335  0.0401  0.2479
16337TIP3    H170426   1.494   3.360   4.704 -0.4263  1.1803  0.7310
16337TIP3    H270427   1.530   3.382   4.558 -0.4328 -2.1709  0.1448
16338TIP3   OH270428   1.730   3.331  14.291 -0.6193 -0.1060  0.5326
16338TIP3    H170429   1.724   3.415  14.245 -1.1494  0.0133  0.8176
16338TIP3    H270430   1.718   3.266  14.222 -0.9377  0.0653  0.4237
16339TIP3   OH270431   6.314   0.872  11.752 -0.4038  0.0245  0.0353
16339TIP3    H170432   6.246   0.859  11.819 -0.7284  2.1584  0.2197
16339TIP3    H270433   6.285   0.820  11.678 -1.5234 -0.2003  0.5992
16340TIP3   OH270434   0.468   5.351   1.440 -0.7730 -0.5633  0.2266
16340TIP3    H170435   0.488   5.438   1.474 -0.6753 -1.4806  2.7606
16340TIP3    H270436   0.554   5.312   1.422 -0.6907 -0.9485  1.3909
16341TIP3   OH270437   5.481   0.258  12.116  0.0827 -0.1769 -0.0155
16341TIP3    H170438   5.561   0.308  12.133 -0.7116  1.2965 -0.4904
16341TIP3    H270439   5.451   0.231  12.203  0.2832  0.5677  0.2945
16342TIP3   OH270440   0.845   5.517  10.857  0.2103 -0.1195  0.2831
16342TIP3    H170441   0.753   5.495  10.873  0.1691 -0.1635 -0.0163
16342TIP3    H270442   0.846   5.613  10.853  0.0783 -0.1388 -0.3032
16343TIP3   OH270443   3.095   1.172  15.777 -0.2818 -0.1545  0.1348
16343TIP3    H170444   3.174   1.157  15.828  0.4290  1.1547 -0.5517
16343TIP3    H270445   3.099   1.264  15.751 -1.9492 -0.1067 -0.0548
16344TIP3   OH270446   3.516   2.789  14.408  0.5833  0.2098 -0.6055
16344TIP3    H170447   3.495   2.722  14.473 -1.1817 -0.3827 -1.7244
16344TIP3    H270448   3.494   2.871  14.452  0.2152 -0.1269 -0.1390
16345TIP3   OH270449   5.181   2.446   1.711  0.1856  0.6724 -0.2734
16345TIP3    H170450   5.256   2.488   1.753  1.1340 -1.9445  0.8118
16345TIP3    H270451   5.128   2.414   1.783 -0.7636  0.4217 -1.0622
16346TIP3   OH270452   1.015   6.385  12.820  0.2909 -0.0866 -0.1059
16346TIP3    H170453   0.952   6.425  12.879 -0.8657 -1.2663 -0.4989
16346TIP3    H270454   1.071   6.332  12.877 -0.5579 -0.8925 -0.0045
16347TIP3   OH270455   6.498   2.600   3.298 -0.0405 -0.2571  0.6714
16347TIP3    H170456   6.505   2.660   3.223 -0.7724 -1.1311 -0.1175
16347TIP3    H270457   6.585   2.602   3.338  0.6929 -0.5570 -0.8200
16348TIP3   OH270458   5.280   2.648   1.211 -0.4438 -0.8073  0.0612
16348TIP3    H170459   5.219   2.721   1.222  0.9297  0.4263 -0.2156
16348TIP3    H270460   5.271   2.596   1.290 -2.3304 -1.0438 -0.2674
16349TIP3   OH270461   5.949   3.643  17.162 -0.1747  0.1757  0.3763
16349TIP3    H170462   5.878   3.689  17.118 -0.7790 -0.5225  0.5746
16349TIP3    H270463   5.986   3.585  17.095 -0.7905 -0.5500  0.6478
16350TIP3   OH270464   3.727   0.019  11.698  0.3979  0.9232 -0.4195
16350TIP3    H170465   3.710   0.028  11.604  1.7975 -2.1067 -1.0771
16350TIP3    H270466   3.657  -0.037  11.730  0.6832  0.8376  0.0594
16351TIP3   OH270467   6.109   2.940  14.152  0.3814  0.2625 -0.0612
16351TIP3    H170468   6.155   2.995  14.216 -1.7186  2.5152 -0.3475
16351TIP3    H270469   6.157   2.952  14.070  1.0956  0.0501  0.3176
16352TIP3   OH270470   5.610   2.113  16.196  0.1109 -0.0774 -0.8303
16352TIP3    H170471   5.683   2.165  16.229  0.5348 -0.4860 -1.1122
16352TIP3    H270472   5.597   2.144  16.106 -0.3848  0.3360 -0.6169
16353TIP3   OH270473   3.861   2.793  16.210 -0.3009 -0.0848  0.0736
16353TIP3    H170474   3.917   2.756  16.279 -1.7134 -0.0058  1.3224
16353TIP3    H270475   3.814   2.718  16.174 -1.2488  0.1326  0.8099
16354TIP3   OH270476   5.558   0.817  16.130 -0.0328  0.0239 -0.6284
16354TIP3    H170477   5.589   0.743  16.182  0.3904 -0.8831 -2.1180
16354TIP3    H270478   5.637   0.855  16.091 -0.5289 -1.2104 -3.0253
16355TIP3   OH270479   4.369   2.533   5.082  0.1483 -0.6579  0.2950
16355TIP3    H170480   4.428   2.605   5.102  1.1557 -1.1637 -0.7154
16355TIP3    H270481   4.307   2.569   5.018  0.5243 -0.6240 -0.0552
16356TIP3   OH270482   3.067   5.437   6.745  0.2152 -0.1900  1.1061
16356TIP3    H170483   3.062   5.420   6.650  1.9380  0.6632  0.8347
16356TIP3    H270484   3.103   5.357   6.782 -1.5533 -0.9790  1.2418
16357TIP3   OH270485   0.823   4.140   5.514 -0.2416 -0.3671  0.5233
16357TIP3    H170486   0.754   4.166   5.574 -1.4300 -1.1332 -0.4595
16357TIP3    H270487   0.812   4.197   5.438  1.0583  0.3935  0.8748
16358TIP3   OH270488   5.478   0.607  11.753 -0.1190  0.1124  1.0348
16358TIP3    H170489   5.416   0.672  11.719  1.3271  0.9794 -0.0944
16358TIP3    H270490   5.501   0.554  11.677 -0.7698 -1.3176  1.8127
16359TIP3   OH270491   1.831   2.004  16.602 -0.0175  0.6880 -0.1474
16359TIP3    H170492   1.817   2.024  16.510  0.1660  0.4233 -0.2333
16359TIP3    H270493   1.908   1.947  16.603 -0.8687 -0.4909  0.0486
16360TIP3   OH270494   0.324   0.673   5.611  0.0497 -0.0389  0.6874
16360TIP3    H170495   0.248   0.710   5.566  1.4456  1.9747 -0.1610
16360TIP3    H270496   0.291   0.648   5.697 -1.1977  2.8500  1.1838
16361TIP3   OH270497   5.791   2.158   0.782 -0.2307 -0.3630 -0.4415
16361TIP3    H170498   5.781   2.063   0.789  0.8835 -0.4840 -0.3646
16361TIP3    H270499   5.705   2.192   0.805  0.3124 -1.1938  3.5220
16362TIP3   OH270500   0.359   3.738   1.789 -0.1721  0.2648  0.5370
16362TIP3    H170501   0.315   3.678   1.728 -2.0361 -0.8659  2.8301
16362TIP3    H270502   0.338   3.825   1.755 -3.1273 -0.2623  0.6923
16363TIP3   OH270503   4.008   5.353   5.575 -0.2419  0.0094  0.1750
16363TIP3    H170504   4.099   5.328   5.556 -0.2247  0.2168 -0.0278
16363TIP3    H270505   3.972   5.280   5.624 -0.0796 -0.2423 -0.0804
16364TIP3   OH270506   5.312   4.469  15.577  0.1193  0.5198  0.1996
16364TIP3    H170507   5.377   4.467  15.507  0.2468  1.3469  0.2739
16364TIP3    H270508   5.231   4.496  15.534  0.1922  1.0041  0.3500
16365TIP3   OH270509   5.413   0.030  11.465  0.4833  0.4909  0.0917
16365TIP3    H170510   5.348   0.080  11.515  0.6654  1.1031 -0.2741
16365TIP3    H270511   5.362  -0.041  11.426  0.1113  0.7134  0.1627
16366TIP3   OH270512   3.207   4.911   6.457  0.4976 -0.1840 -0.4165
16366TIP3    H170513   3.264   4.850   6.410 -0.9808 -2.0770  0.1152
16366TIP3    H270514   3.262   4.988   6.473  2.5553 -1.4880 -0.8453
16367TIP3   OH270515   0.848   0.806  12.363  0.1274 -0.0471 -0.3037
16367TIP3    H170516   0.927   0.794  12.416  1.3113 -0.2922 -2.0361
16367TIP3    H270517   0.792   0.863  12.416  1.8153  0.8310  0.6246
16368TIP3   OH270518   1.888   4.557   1.218 -0.1582 -0.0845 -0.1504
16368TIP3    H170519   1.886   4.564   1.123  0.3934  0.1759 -0.1497
16368TIP3    H270520   1.868   4.646   1.249  1.4489  0.2855 -0.0613
16369TIP3   OH270521   0.049   0.671  12.254  0.2492  0.0592 -0.0770
16369TIP3    H170522   0.125   0.682  12.197 -0.1614 -1.3726 -0.9445
16369TIP3    H270523  -0.026   0.670  12.195 -0.3859  0.5966  0.6910
16370TIP3   OH270524   0.939   5.056   5.636 -0.0723 -0.1608  0.3318
16370TIP3    H170525   0.874   4.985   5.633  0.0003 -0.1905 -0.9960
16370TIP3    H270526   0.998   5.030   5.707 -0.9203 -0.6487  0.8841
16371TIP3   OH270527   2.544   2.851  11.064  0.7292  0.4438  0.4693
16371TIP3    H170528   2.476   2.887  11.006  0.8730  0.1423  0.1083
16371TIP3    H270529   2.557   2.761  11.033 -0.3361 -0.2729  1.9922
16372TIP3   OH270530   0.962   3.253  17.045  0.2665  0.2655  0.1800
16372TIP3    H170531   0.992   3.163  17.057  0.5579  0.5264  1.5182
16372TIP3    H270532   0.942   3.285  17.133 -1.1975  1.0646 -0.3882
16373TIP3   OH270533   2.339   2.731   0.241 -0.6587  0.3727  0.1365
16373TIP3    H170534   2.264   2.688   0.199 -0.2498 -0.8285  0.6155
16373TIP3    H270535   2.361   2.675   0.315 -0.4010  1.6616  1.0796
16374TIP3   OH270536   6.572   1.331  13.276  0.5241 -0.1961 -0.4450
16374TIP3    H170537   6.582   1.414  13.322 -1.6361  0.6318 -1.3104
16374TIP3    H270538   6.515   1.278  13.333 -0.3149 -0.0177 -1.0857
16375TIP3   OH270539   1.851   6.542   4.147  0.0738  0.1461  0.0846
16375TIP3    H170540   1.853   6.564   4.053 -0.6680  0.0020  0.0286
16375TIP3    H270541   1.811   6.454   4.150  0.4559 -0.0154  0.5079
16376TIP3   OH270542   3.601   5.718   1.125 -0.2752  0.0421  0.0258
16376TIP3    H170543   3.571   5.628   1.114 -1.0049  0.3025 -0.1586
16376TIP3    H270544   3.662   5.732   1.053  0.5083 -0.5752  0.5525
16377TIP3   OH270545   0.139   1.360  15.618 -0.0964 -0.5683 -0.3135
16377TIP3    H170546   0.202   1.357  15.546 -1.7385  0.3489 -1.8366
16377TIP3    H270547   0.093   1.442  15.606 -1.6475 -1.2519  0.7253
16378TIP3   OH270548   2.903   3.308  14.393 -0.1187 -0.6812  0.2050
16378TIP3    H170549   2.919   3.309  14.487 -0.6448 -0.5640  0.2988
16378TIP3    H270550   2.974   3.361  14.356 -0.4812  0.1199  0.6346
16379TIP3   OH270551   2.095   4.245  12.758 -0.6046  0.1870  0.3242
16379TIP3    H170552   2.143   4.320  12.792  2.0135  0.0728 -2.6327
16379TIP3    H270553   2.125   4.171  12.811  0.1053  0.6065  0.5152
16380TIP3   OH270554   5.792   3.676   0.841 -0.0772 -0.2169 -0.1880
16380TIP3    H170555   5.834   3.760   0.861  1.1734 -0.7290 -0.5800
16380TIP3    H270556   5.799   3.627   0.923 -1.5995  0.3533  0.3156
16381TIP3   OH270557   2.700   0.349   5.765 -0.2885 -0.4016  0.1531
16381TIP3    H170558   2.723   0.441   5.782  0.4397 -0.6180  0.3543
16381TIP3    H270559   2.739   0.330   5.680 -2.4958  0.1756 -1.0757
16382TIP3   OH270560   0.681   4.340   0.915  0.3429  0.0403  0.7036
16382TIP3    H170561   0.651   4.409   0.856 -0.5312 -0.5064  0.4852
16382TIP3    H270562   0.735   4.386   0.980 -1.1362  1.1240  1.2309
16383TIP3   OH270563   1.133   5.423   3.141  0.2727  0.7425  0.2287
16383TIP3    H170564   1.164   5.478   3.212  0.9102  1.2434 -0.4195
16383TIP3    H270565   1.208   5.368   3.119  0.5380  1.5652 -0.9798
16384TIP3   OH270566   1.870   0.041   6.353 -0.5158  0.1743 -0.1277
16384TIP3    H170567   1.777   0.051   6.374 -0.3134 -1.6570  2.0616
16384TIP3    H270568   1.895  -0.042   6.394  1.3093 -1.1742 -3.5912
16385TIP3   OH270569   6.271   4.519  14.540 -0.3210 -0.5849  0.3395
16385TIP3    H170570   6.342   4.520  14.475 -1.9961 -1.9754 -1.6710
16385TIP3    H270571   6.228   4.604  14.530 -0.9592 -1.0211 -0.9463
16386TIP3   OH270572   2.922   0.300  15.638 -0.3917 -0.2059  0.0212
16386TIP3    H170573   2.851   0.275  15.579  0.3257 -0.9875 -0.5317
16386TIP3    H270574   2.999   0.305  15.581  0.0711  0.2525  0.6805
16387TIP3   OH270575   0.617   3.428   1.107  0.1785  0.0674  0.1681
16387TIP3    H170576   0.613   3.524   1.112  0.0406  0.0663  0.0816
16387TIP3    H270577   0.526   3.401   1.096  0.1691 -0.0995  0.6341
16388TIP3   OH270578   4.209   2.879  15.507 -0.0787 -0.5065 -0.1025
16388TIP3    H170579   4.216   2.898  15.600  0.8825 -0.5025 -0.1676
16388TIP3    H270580   4.248   2.956  15.464 -1.4905 -0.0056 -0.5541
16389TIP3   OH270581   2.049   1.168   4.000 -0.0315 -0.4227  0.4775
16389TIP3    H170582   1.975   1.205   4.047  1.9619  1.2120  2.5847
16389TIP3    H270583   2.043   1.074   4.015 -0.1455 -0.0594  3.0961
16390TIP3   OH270584   0.409   6.415  15.200 -0.4549  0.4325 -0.2915
16390TIP3    H170585   0.432   6.327  15.170  1.6424  0.4158  1.1625
16390TIP3    H270586   0.411   6.409  15.296 -0.2362  2.0789 -0.1649
16391TIP3   OH270587   5.572   4.642   5.415 -0.4477  0.2848  0.3904
16391TIP3    H170588   5.663   4.611   5.412  0.1440  1.9630 -2.4059
16391TIP3    H270589   5.523   4.569   5.454  1.8584 -1.3101  0.4960
16392TIP3   OH270590   1.619   5.873   5.798 -0.2175  0.1592 -0.0746
16392TIP3    H170591   1.623   5.968   5.809 -0.3195  0.0434  1.0083
16392TIP3    H270592   1.681   5.855   5.727 -3.3731  1.4872 -3.5373
16393TIP3   OH270593   2.397   3.250  16.352 -0.2787 -0.2181  0.2647
16393TIP3    H170594   2.469   3.313  16.353 -0.4434  0.0587 -1.6208
16393TIP3    H270595   2.423   3.185  16.287 -1.6692 -0.1581 -0.3789
16394TIP3   OH270596   6.672   1.681  11.316  0.2657 -0.2069  0.2139
16394TIP3    H170597   6.734   1.754  11.328  0.2406 -0.2409  0.5712
16394TIP3    H270598   6.710   1.628  11.246  1.3585 -0.9710  1.3393
16395TIP3   OH270599   2.217   2.396  15.415  0.0183 -0.5799 -0.2267
16395TIP3    H170600   2.137   2.435  15.380 -0.4676 -1.7018 -0.4092
16395TIP3    H270601   2.195   2.376  15.506 -0.0627 -1.2789 -0.3953
16396TIP3   OH270602   3.154   5.336  14.487  0.2511  0.7424  0.1223
16396TIP3    H170603   3.140   5.431  14.486  1.3482  0.9374  1.1907
16396TIP3    H270604   3.160   5.314  14.580  2.5354  0.0447 -0.1408
16397TIP3   OH270605   6.161   6.314   3.026  0.3420 -0.2631  0.3537
16397TIP3    H170606   6.189   6.395   3.068  2.4323  0.5147 -2.2780
16397TIP3    H270607   6.219   6.247   3.061  0.9090  0.0458  0.0165
16398TIP3   OH270608   4.865   5.302   3.906 -0.0905 -0.3294 -0.3170
16398TIP3    H170609   4.890   5.354   3.830  1.5298  0.2952  0.6058
16398TIP3    H270610   4.772   5.320   3.918 -0.6323 -1.1775 -2.6868
16399TIP3   OH270611   6.053   4.985   4.054  0.3737  0.1507 -0.4506
16399TIP3    H170612   6.134   5.021   4.089 -0.5570  1.0819  0.8438
16399TIP3    H270613   5.985   5.047   4.081 -0.9524 -1.2699 -0.3632
16400TIP3   OH270614   6.164   0.291  11.389  0.1621  0.2110 -0.2152
16400TIP3    H170615   6.232   0.261  11.449  0.0581  2.9205  1.4060
16400TIP3    H270616   6.083   0.256  11.425  0.3741 -0.4956 -0.4106
16401TIP3   OH270617   2.786   3.817  16.419  0.5285 -0.3834 -0.8025
16401TIP3    H170618   2.814   3.907  16.438  0.1562 -0.3465 -0.4304
16401TIP3    H270619   2.850   3.762  16.464  0.0299 -0.2980  0.0368
16402TIP3   OH270620   2.498   1.118  12.940  0.1855 -0.1841 -0.5299
16402TIP3    H170621   2.558   1.182  12.978  0.8705  0.0991 -2.0077
16402TIP3    H270622   2.514   1.123  12.846 -1.2479 -1.0390 -0.8579
16403TIP3   OH270623   5.015   6.327   0.368  0.1934 -0.4518 -0.2481
16403TIP3    H170624   4.928   6.356   0.343 -0.2382 -0.5979  1.0011
16403TIP3    H270625   5.000   6.251   0.425  1.1329 -0.5531 -0.1123
16404TIP3   OH270626   2.264   0.414   2.562  0.1440 -0.0943 -0.6321
16404TIP3    H170627   2.248   0.345   2.626  1.4642  0.0191 -0.1487
16404TIP3    H270628   2.340   0.462   2.596  0.9297 -0.0623 -2.3008
16405TIP3   OH270629   5.830   1.303  12.641  0.3338  0.3063 -0.3497
16405TIP3    H170630   5.756   1.277  12.586 -1.1710  1.0826  1.2145
16405TIP3    H270631   5.848   1.225  12.695  1.5897 -0.3382 -1.6131
16406TIP3   OH270632   5.749   0.052   1.321  0.3266  0.4557 -0.1486
16406TIP3    H170633   5.731  -0.038   1.295  0.2924  0.5281 -0.3792
16406TIP3    H270634   5.843   0.063   1.306  0.6679 -0.0399  1.4120
16407TIP3   OH270635   6.268   0.197  13.668  0.0180  0.3187 -0.6716
16407TIP3    H170636   6.343   0.226  13.720  0.8422  2.4924 -2.8437
16407TIP3    H270637   6.307   0.148  13.595 -0.8428 -0.1223 -0.8525
16408TIP3   OH270638   2.205   0.412  11.566 -0.8395  0.6289  0.5270
16408TIP3    H170639   2.164   0.400  11.651 -0.3567 -0.2634  0.6419
16408TIP3    H270640   2.195   0.327  11.522 -1.1619  1.1014 -0.3411
16409TIP3   OH270641   4.956   1.995  14.165 -0.4952 -0.3849  0.4221
16409TIP3    H170642   5.001   1.948  14.236  1.3887  0.9373  0.1628
16409TIP3    H270643   4.962   1.936  14.090 -1.7799 -1.4391  1.0971
16410TIP3   OH270644   2.402   6.574  12.592  0.4075 -0.1478  0.4978
16410TIP3    H170645   2.334   6.510  12.609 -1.0453  0.9091 -1.0210
16410TIP3    H270646   2.455   6.535  12.523  0.8806 -0.6259  1.1182
16411TIP3   OH270647   2.128   4.428  14.286  0.0047  0.2790  0.3993
16411TIP3    H170648   2.099   4.518  14.300  0.1422  0.7201 -1.6974
16411TIP3    H270649   2.055   4.385  14.242  0.2355 -0.4093  0.6618
16412TIP3   OH270650   4.534   5.574  13.249  0.0474  0.8526  0.0285
16412TIP3    H170651   4.451   5.617  13.268  0.2211  1.3589 -0.3321
16412TIP3    H270652   4.588   5.643  13.210  0.6062  0.5059  0.1851
16413TIP3   OH270653   5.182   6.668  12.081 -0.0630  0.3243  0.7620
16413TIP3    H170654   5.131   6.589  12.098 -0.5367  0.3176 -0.5653
16413TIP3    H270655   5.194   6.669  11.986  0.2969  1.6285  0.8016
16414TIP3   OH270656   2.284   0.122  16.206  0.0155 -0.5435 -0.7424
16414TIP3    H170657   2.209   0.111  16.264 -0.1593  0.1952 -0.8249
16414TIP3    H270658   2.247   0.119  16.117  0.1389 -0.5965 -0.7927
16415TIP3   OH270659   0.896   3.498   6.032 -0.3869  0.5575  0.9886
16415TIP3    H170660   0.915   3.406   6.016  1.0469  1.1253 -1.1241
16415TIP3    H270661   0.803   3.507   6.011 -0.7631 -0.5433  2.0884
16416TIP3   OH270662   3.980   2.193  17.223 -0.2802  0.1968  0.0610
16416TIP3    H170663   4.042   2.259  17.191 -0.1366  0.0253 -0.0153
16416TIP3    H270664   3.977   2.128  17.153 -1.6971  0.9602 -0.6161
16417TIP3   OH270665   1.630   1.922  13.265 -0.4041 -0.0260  0.1434
16417TIP3    H170666   1.688   1.952  13.335 -0.2405  1.4879 -0.6029
16417TIP3    H270667   1.669   1.958  13.185 -0.6422 -1.6322 -0.7383
16418TIP3   OH270668   1.330   4.768   0.883 -0.3795  0.5454  0.0100
16418TIP3    H170669   1.324   4.675   0.862  0.2994  0.6731 -0.8392
16418TIP3    H270670   1.380   4.771   0.964 -1.9586  0.0940  1.0410
16419TIP3   OH270671   3.076   1.617  16.226  0.0664  0.1740 -0.4537
16419TIP3    H170672   3.138   1.688  16.238  0.6136 -0.2094 -0.9590
16419TIP3    H270673   3.062   1.582  16.314  0.7419  0.1093 -0.3711
16420TIP3   OH270674   6.012   0.712   6.807  0.1550  0.4766  0.0146
16420TIP3    H170675   5.920   0.687   6.818  0.3282 -0.4299 -0.4478
16420TIP3    H270676   6.043   0.654   6.737  0.9775  1.0377 -0.0885
16421TIP3   OH270677   0.905   5.954  15.507  0.2526  0.0488 -0.1868
16421TIP3    H170678   0.956   5.962  15.427 -0.3215  0.9616 -0.4799
16421TIP3    H270679   0.817   5.981  15.481  0.1645  0.7848  0.8603
16422TIP3   OH270680   4.384   3.638   2.030  0.5042  0.6540 -0.8154
16422TIP3    H170681   4.369   3.545   2.047 -1.6416  1.4595  2.7333
16422TIP3    H270682   4.330   3.658   1.954  1.4599 -1.0260 -2.0101
16423TIP3   OH270683   4.447   5.041  11.747  0.4229 -0.6262 -0.2237
16423TIP3    H170684   4.385   5.029  11.675  0.7536  0.2844 -0.6817
16423TIP3    H270685   4.530   5.062  11.703  0.5256  0.3863  0.4351
16424TIP3   OH270686   4.023   2.358  16.301  0.3306 -0.0742  0.3778
16424TIP3    H170687   4.104   2.402  16.275 -0.0485  2.0096  2.4693
16424TIP3    H270688   4.051   2.270  16.326  1.5813 -0.1030 -0.9464
16425TIP3   OH270689   5.422   4.602   3.358  0.1042 -0.4953  0.0216
16425TIP3    H170690   5.408   4.534   3.292  0.2304 -0.1797 -0.3338
16425TIP3    H270691   5.494   4.568   3.412  3.2750  1.1553 -2.7381
16426TIP3   OH270692   2.982   2.001  17.187  0.7121 -0.6207  0.5279
16426TIP3    H170693   2.971   2.087  17.146  0.8124 -1.1969 -0.7827
16426TIP3    H270694   3.060   2.010  17.242 -0.3424  0.6314  1.8823
16427TIP3   OH270695   4.164   4.769  11.762 -0.3113 -0.0562 -0.3511
16427TIP3    H170696   4.175   4.855  11.720  1.1976  0.5752  1.2333
16427TIP3    H270697   4.121   4.716  11.695 -1.5802  1.9963 -1.2946
16428TIP3   OH270698   1.231   0.611  16.935 -0.5283 -0.2535 -0.7685
16428TIP3    H170699   1.244   0.659  17.017 -2.0620 -1.1025  0.0125
16428TIP3    H270700   1.307   0.552  16.930 -0.9387 -0.9463  0.6107
16429TIP3   OH270701   4.821   2.948  14.669  0.4215 -0.3806  0.1656
16429TIP3    H170702   4.770   2.867  14.665 -0.5794  0.0952  2.3586
16429TIP3    H270703   4.774   3.009  14.614 -0.8367 -0.2632  1.3304
16430TIP3   OH270704   1.998   0.178   5.983 -0.0800  0.1396  0.0900
16430TIP3    H170705   2.077   0.158   5.932  0.5512  1.8999  0.3157
16430TIP3    H270706   1.926   0.162   5.922  0.6227  1.4862 -1.1512
16431TIP3   OH270707   0.537   6.022  11.590 -0.6817 -0.3197 -0.4810
16431TIP3    H170708   0.598   6.032  11.517 -1.1598  0.5924 -0.7795
16431TIP3    H270709   0.590   5.987  11.661 -0.1662 -1.0410 -1.2068
16432TIP3   OH270710   1.368   4.096   1.649  0.5261 -0.6147 -0.1192
16432TIP3    H170711   1.328   4.113   1.564  0.8378 -1.3765 -0.4275
16432TIP3    H270712   1.461   4.083   1.629  0.6187 -0.6777  0.3518
16433TIP3   OH270713   0.195   2.736  11.343  0.5401 -0.7881 -0.2363
16433TIP3    H170714   0.185   2.699  11.430 -3.6178  0.6282  0.1303
16433TIP3    H270715   0.107   2.737  11.307  1.7654  0.6599 -3.6454
16434TIP3   OH270716   1.372   6.558  11.750  0.1360  0.2693  0.3758
16434TIP3    H170717   1.453   6.512  11.771 -0.4582 -1.2736 -0.5192
16434TIP3    H270718   1.390   6.602  11.668  0.6439  1.5183  1.1355
16435TIP3   OH270719   4.554   6.090  12.767  0.4670 -0.0490  0.4622
16435TIP3    H170720   4.515   6.057  12.686  0.3364  2.1868 -0.4778
16435TIP3    H270721   4.493   6.158  12.796  0.7238 -0.5267  2.2374
16436TIP3   OH270722   0.882   5.966   1.117 -0.1772 -0.0517 -0.5175
16436TIP3    H170723   0.914   6.039   1.170  0.0163  0.0260 -0.7377
16436TIP3    H270724   0.962   5.926   1.081 -0.3367  0.3093 -1.2959
16437TIP3   OH270725   0.203   1.519   6.078 -0.1605 -0.4505  0.2039
16437TIP3    H170726   0.203   1.528   6.173 -0.1585 -1.9200  0.3716
16437TIP3    H270727   0.141   1.447   6.061  0.0415 -0.3875 -0.8811
16438TIP3   OH270728   0.729   5.447  17.109  0.4049  0.1520 -0.2028
16438TIP3    H170729   0.687   5.439  17.194 -1.8189  2.0610 -1.0059
16438TIP3    H270730   0.674   5.395  17.050 -0.3297  1.8672 -1.0934
16439TIP3   OH270731   4.524   2.716   4.744  0.0519  0.0974  0.2849
16439TIP3    H170732   4.527   2.634   4.694  1.4025  1.1084 -1.4164
16439TIP3    H270733   4.593   2.706   4.810  0.5165 -0.0014 -0.2022
16440TIP3   OH270734   1.590   2.963  12.034 -0.0921  0.3007 -0.4453
16440TIP3    H170735   1.613   2.873  12.058  0.0351  0.1311 -1.1884
16440TIP3    H270736   1.651   2.986  11.964 -0.0941  0.9862 -0.2306
16441TIP3   OH270737   5.790   5.976  13.305  0.3020 -0.0806 -0.4146
16441TIP3    H170738   5.846   5.900  13.321  0.4445 -0.1790 -1.3329
16441TIP3    H270739   5.843   6.033  13.249 -0.0245  0.4350 -0.2035
16442TIP3   OH270740   1.761   0.086   4.678 -0.5698 -0.1978 -0.3394
16442TIP3    H170741   1.729   0.166   4.636  0.1557 -0.0795 -0.6860
16442TIP3    H270742   1.718   0.085   4.763  1.5161  2.1030  0.8727
16443TIP3   OH270743   4.097   0.322   5.583 -0.6342 -0.9344 -1.0284
16443TIP3    H170744   4.094   0.406   5.629 -2.0864 -1.4040 -0.1584
16443TIP3    H270745   4.190   0.305   5.569 -0.2160 -0.0082  0.3641
16444TIP3   OH270746   5.332   4.700   3.844 -0.2224 -0.3627 -0.9626
16444TIP3    H170747   5.343   4.605   3.834 -0.1236 -0.3725 -0.7815
16444TIP3    H270748   5.288   4.728   3.764 -2.2696 -0.8956 -0.1096
16445TIP3   OH270749   1.323   1.151  13.447  0.7271 -0.0426 -0.2133
16445TIP3    H170750   1.387   1.084  13.469 -0.1834 -0.2663  1.9106
16445TIP3    H270751   1.241   1.104  13.435  0.9321  0.1801 -3.3889
16446TIP3   OH270752   1.568   2.843  15.463  0.3784 -0.2010  0.2606
16446TIP3    H170753   1.639   2.902  15.437  1.9864 -2.7968 -1.8761
16446TIP3    H270754   1.489   2.883  15.428  1.5423  0.2265 -2.0946
16447TIP3   OH270755   2.358   4.038  17.311  0.7086  0.4223 -0.1445
16447TIP3    H170756   2.407   4.086  17.245 -0.0817  1.1385 -0.2367
16447TIP3    H270757   2.268   4.069  17.301 -0.1618 -2.2064 -1.2312
16448TIP3   OH270758   1.939   1.224  10.740  0.1715 -0.4579  0.0857
16448TIP3    H170759   2.024   1.205  10.701  0.1859 -0.6438  0.2050
16448TIP3    H270760   1.878   1.168  10.691  0.4278 -1.9871  1.4546
16449TIP3   OH270761   3.104   2.404   1.687 -0.3892 -0.0635  0.8275
16449TIP3    H170762   3.110   2.500   1.691 -1.1478 -0.0479  2.3596
16449TIP3    H270763   3.191   2.377   1.657  0.9303  1.0015  3.3772
16450TIP3   OH270764   2.238   2.103   0.613 -0.0770 -0.4512  0.6046
16450TIP3    H170765   2.273   2.019   0.584  0.7259  0.5505 -1.4900
16450TIP3    H270766   2.300   2.133   0.680  0.2939 -0.9669  0.5005
16451TIP3   OH270767   6.642   4.094  14.867  0.2642  0.0315 -0.0512
16451TIP3    H170768   6.631   4.034  14.941  2.3463 -0.9949 -0.5153
16451TIP3    H270769   6.585   4.058  14.798  0.9235 -1.0114 -0.0739
16452TIP3   OH270770   1.192   5.776   2.845  0.4905 -0.2841  0.0096
16452TIP3    H170771   1.136   5.848   2.817  0.2940  0.7798  2.7821
16452TIP3    H270772   1.131   5.706   2.866  0.5898 -0.8188 -1.3758
16453TIP3   OH270773   6.387   2.527   0.492 -0.2723  0.2959 -0.4789
16453TIP3    H170774   6.352   2.509   0.579 -1.5999 -0.2462 -1.0919
16453TIP3    H270775   6.392   2.442   0.450 -1.2017  0.7130 -1.4797
16454TIP3   OH270776   0.446   1.557   0.263 -0.1382  0.2657 -0.2796
16454TIP3    H170777   0.363   1.515   0.285  0.1187 -0.1537 -0.0960
16454TIP3    H270778   0.453   1.547   0.168 -0.1027 -0.0745 -0.2441
16455TIP3   OH270779   6.234   4.899   2.297  0.1806 -0.1763 -0.7963
16455TIP3    H170780   6.295   4.834   2.331 -1.4143 -1.6453 -0.6316
16455TIP3    H270781   6.188   4.932   2.374 -0.8348 -0.7907 -1.1191
16456TIP3   OH270782   1.594   4.967   4.697  0.3645  0.2157  0.6503
16456TIP3    H170783   1.548   4.932   4.621  1.7816  0.5847 -0.4326
16456TIP3    H270784   1.645   4.894   4.730  0.4926  0.3044  0.6503
16457TIP3   OH270785   3.237   4.820  15.799  0.0633 -0.0606  0.2352
16457TIP3    H170786   3.296   4.753  15.766  0.8779  1.7204 -2.1679
16457TIP3    H270787   3.242   4.890  15.735 -1.3992  1.9703  2.2004
16458TIP3   OH270788   4.624   5.946   1.023 -0.1470 -0.0476 -0.1013
16458TIP3    H170789   4.577   5.877   1.069  0.6795 -0.1383  0.6394
16458TIP3    H270790   4.716   5.923   1.033  0.2875  2.2559  2.0177
16459TIP3   OH270791   1.896   3.184   4.111 -0.1793 -0.3306 -0.1357
16459TIP3    H170792   1.822   3.177   4.171  1.3994  0.0059  1.9339
16459TIP3    H270793   1.865   3.140   4.031 -2.8039  0.3247  0.4135
16460TIP3   OH270794   0.987   0.620   0.551  0.8184  0.2720  1.1803
16460TIP3    H170795   0.992   0.529   0.520  1.8216  0.6999  0.0399
16460TIP3    H270796   1.037   0.670   0.487 -2.2914  2.1257 -0.0454
16461TIP3   OH270797   0.507   4.656  16.009 -0.3395  0.4943  0.7930
16461TIP3    H170798   0.470   4.692  15.928  1.1311  3.3192  1.2321
16461TIP3    H270799   0.559   4.580  15.980  0.1976  1.4761 -0.9640
16462TIP3   OH270800   2.448   6.015   6.958 -0.1794 -0.2695 -0.2568
16462TIP3    H170801   2.522   6.034   7.015 -1.3788  0.1535  1.2042
16462TIP3    H270802   2.411   5.934   6.993 -0.4135 -0.4835 -0.9844
16463TIP3   OH270803   4.936   5.457  11.111  0.1858  0.0345  0.2746
16463TIP3    H170804   4.918   5.509  11.189 -0.8784  0.0882  0.0077
16463TIP3    H270805   4.863   5.475  11.052 -0.4355 -2.0270  0.3177
16464TIP3   OH270806   4.190   3.554   4.532  0.6912 -0.0940 -0.1948
16464TIP3    H170807   4.286   3.552   4.534  0.6776 -1.8972 -0.1728
16464TIP3    H270808   4.169   3.575   4.441  1.0906  0.5106 -0.1554
16465TIP3   OH270809   3.943   5.172  13.894  0.0083  0.1443 -0.0797
16465TIP3    H170810   4.013   5.238  13.898  0.2833 -0.1076 -0.6355
16465TIP3    H270811   3.923   5.154  13.985  1.3093 -0.4553  0.1131
16466TIP3   OH270812   3.994   0.818  15.243 -0.6988 -0.2041 -0.3597
16466TIP3    H170813   4.065   0.881  15.235 -1.4422  0.7531  0.3002
16466TIP3    H270814   4.018   0.763  15.318  0.4672 -1.4534 -1.5742
16467TIP3   OH270815   2.125   4.968   2.387  0.3670  0.0547  0.1297
16467TIP3    H170816   2.086   4.907   2.325  0.3968 -1.1532  1.2641
16467TIP3    H270817   2.214   4.981   2.356  0.3228 -0.3856 -0.1802
16468TIP3   OH270818   1.706   5.647   3.920 -0.1174 -0.6427 -0.3613
16468TIP3    H170819   1.729   5.725   3.969 -1.4705 -1.7810  2.3269
16468TIP3    H270820   1.756   5.576   3.961  0.2385 -1.4078 -1.9953
16469TIP3   OH270821   1.092   4.901  15.909  0.0411  0.0167 -0.0321
16469TIP3    H170822   1.051   4.815  15.917 -1.5422  0.6944 -0.4857
16469TIP3    H270823   1.105   4.929  16.000  2.3779 -1.4571  0.1748
16470TIP3   OH270824   4.310   4.346   5.231 -0.4701  0.3497 -0.2499
16470TIP3    H170825   4.280   4.255   5.229 -1.4978  0.6504  0.9030
16470TIP3    H270826   4.399   4.341   5.268  0.2483 -0.3410 -1.9412
16471TIP3   OH270827   5.998   3.826  15.822  0.1627 -0.1837 -0.0170
16471TIP3    H170828   5.951   3.807  15.903  0.8535 -1.2208  0.1600
16471TIP3    H270829   5.995   3.921  15.814  0.9700  0.0321  1.7802
16472TIP3   OH270830   3.765   5.149   3.036 -0.0004  0.4807 -0.3226
16472TIP3    H170831   3.788   5.190   3.120 -1.6624  1.4443 -0.2912
16472TIP3    H270832   3.823   5.191   2.972  1.6571 -0.6482  0.3899
16473TIP3   OH270833   2.199   6.414  16.988  0.4244  0.1660 -0.1848
16473TIP3    H170834   2.270   6.413  17.052 -0.8811 -2.1149  1.3827
16473TIP3    H270835   2.127   6.368  17.031 -1.7550  1.6407 -2.0114
16474TIP3   OH270836   0.613   5.468   2.067  0.5624  0.3671  0.3707
16474TIP3    H170837   0.662   5.542   2.103  0.3709  0.5045  0.3495
16474TIP3    H270838   0.547   5.509   2.011 -0.8285  0.2655  1.9024
16475TIP3   OH270839   2.560   3.320   0.669 -0.1771  0.1647  0.1273
16475TIP3    H170840   2.540   3.292   0.758  1.8093  0.6011  0.7787
16475TIP3    H270841   2.558   3.240   0.617 -0.1704 -0.2899  0.8198
16476TIP3   OH270842   3.636   5.636   1.874 -0.5880  0.0784  0.5173
16476TIP3    H170843   3.570   5.698   1.842 -0.1888  1.1457  1.6823
16476TIP3    H270844   3.716   5.660   1.827 -0.4816  0.3171  0.8184
16477TIP3   OH270845   3.775   6.598   1.876 -0.1123  0.3434  0.4370
16477TIP3    H170846   3.739   6.673   1.924 -2.4689 -1.0439  1.0297
16477TIP3    H270847   3.705   6.575   1.814  0.8280 -0.9853 -0.1552
16478TIP3   OH270848   5.737   6.107   4.893  0.7755 -0.5713  0.0600
16478TIP3    H170849   5.813   6.076   4.843  1.1695 -2.1970  1.5544
16478TIP3    H270850   5.734   6.049   4.969 -0.6999  0.8448  1.1358
16479TIP3   OH270851   6.582   4.107  11.729  0.5993  0.3329 -0.3216
16479TIP3    H170852   6.661   4.142  11.687  0.7534  1.0814  0.5674
16479TIP3    H270853   6.583   4.144  11.817 -0.3365 -0.2821 -0.0395
16480TIP3   OH270854   3.275   0.165  13.648  0.5532  0.2258  0.0254
16480TIP3    H170855   3.238   0.077  13.656  0.1194  0.4667  0.7582
16480TIP3    H270856   3.320   0.165  13.563  3.7040 -1.9135  1.4959
16481TIP3   OH270857   6.514   3.315   0.793  0.1285  0.1402  0.1065
16481TIP3    H170858   6.604   3.284   0.804  0.4253  0.7683 -0.4894
16481TIP3    H270859   6.465   3.237   0.766  0.6042 -0.0876 -0.1118
16482TIP3   OH270860   0.986   3.594   1.171 -0.0766  0.3406 -0.0296
16482TIP3    H170861   0.934   3.534   1.226 -0.0400 -0.0296 -0.3925
16482TIP3    H270862   1.052   3.629   1.231  1.6130 -2.0093 -0.3620
16483TIP3   OH270863   6.005   6.163  10.769  0.1821 -0.8612  0.1219
16483TIP3    H170864   6.033   6.078  10.804  1.1611 -1.6393 -2.3109
16483TIP3    H270865   6.087   6.206  10.742 -0.3792  0.4321  0.4040
16484TIP3   OH270866   2.999   6.465   3.250 -0.4306  0.1222 -0.5751
16484TIP3    H170867   3.003   6.412   3.170 -1.2756 -3.1844  1.3673
16484TIP3    H270868   3.091   6.479   3.273 -0.1372 -1.3402 -0.7286
16485TIP3   OH270869   4.178   1.321  15.973 -0.1733  0.0612 -0.2241
16485TIP3    H170870   4.100   1.364  16.009 -0.6863 -0.5138 -0.6108
16485TIP3    H270871   4.204   1.376  15.900  0.5667  0.9564  0.6878
16486TIP3   OH270872   1.810   3.579   4.490  0.2762  0.8343 -0.2012
16486TIP3    H170873   1.729   3.603   4.536  0.2805  1.6629 -0.6085
16486TIP3    H270874   1.827   3.653   4.432  0.1996 -0.2407 -1.6321
16487TIP3   OH270875   1.010   2.589   1.911 -0.0327 -0.6814  0.4443
16487TIP3    H170876   1.070   2.594   1.837 -1.5719 -0.6347 -0.8633
16487TIP3    H270877   1.022   2.501   1.946 -1.4226 -1.8689 -1.8252
16488TIP3   OH270878   0.822   6.586   6.225 -0.3043  0.6728  0.7095
16488TIP3    H170879   0.739   6.550   6.257  1.4510 -2.0872  2.5423
16488TIP3    H270880   0.816   6.680   6.245 -3.1487  0.6884  0.2236
16489TIP3   OH270881   2.613   3.604  13.028 -0.3818  0.2488 -0.2749
16489TIP3    H170882   2.648   3.633  12.943  1.5078  2.2251  1.0823
16489TIP3    H270883   2.686   3.617  13.089 -1.9160 -0.4629  1.8055
16490TIP3   OH270884   6.527   4.928   3.386 -0.3298 -0.2017 -0.3773
16490TIP3    H170885   6.578   4.926   3.305  0.2134 -0.3583 -0.0402
16490TIP3    H270886   6.499   4.837   3.398  0.7020 -0.4545  0.2868
16491TIP3   OH270887   1.574   2.772   2.238 -0.0180  0.0278 -0.3890
16491TIP3    H170888   1.524   2.850   2.264  0.1832  0.1662 -0.4069
16491TIP3    H270889   1.649   2.808   2.190 -0.9118 -0.2721 -2.0870
16492TIP3   OH270890   3.756   2.695  11.188 -0.0073  0.0106 -0.4592
16492TIP3    H170891   3.804   2.670  11.267 -1.4498 -0.8118  0.2113
16492TIP3    H270892   3.664   2.699  11.217 -0.2744  2.6062 -1.4061
16493TIP3   OH270893   5.309   0.585   1.325  0.3881  0.2858 -0.7190
16493TIP3    H170894   5.308   0.491   1.313  0.8817  0.4133 -1.8260
16493TIP3    H270895   5.232   0.617   1.278 -0.4905  0.3452  0.6824
16494TIP3   OH270896   3.180   0.439  16.945 -0.1413  0.3396  0.1717
16494TIP3    H170897   3.098   0.451  16.994  0.0321  2.3275  0.0424
16494TIP3    H270898   3.151   0.412  16.857 -0.6636  0.8596  0.1764
16495TIP3   OH270899   5.602   5.136  12.555  0.2535  0.3161  0.2195
16495TIP3    H170900   5.665   5.065  12.569  0.5331  0.9424  2.7571
16495TIP3    H270901   5.529   5.095  12.509  0.8914 -1.3702  0.6305
16496TIP3   OH270902   3.141   1.795  14.391 -0.3894  0.2256 -0.3949
16496TIP3    H170903   3.131   1.863  14.324  0.7724  1.4857  0.6387
16496TIP3    H270904   3.055   1.754  14.398 -1.2315  1.8675 -0.8018
16497TIP3   OH270905   3.913   5.001   1.317 -0.3977  0.1111  0.0774
16497TIP3    H170906   3.887   4.909   1.305  0.4101 -0.3038  1.3251
16497TIP3    H270907   3.999   5.007   1.275 -0.0573  0.0655  0.7600
16498TIP3   OH270908   5.438   3.566  14.470 -0.3488 -0.0172  0.5521
16498TIP3    H170909   5.506   3.616  14.425 -0.6640 -1.5352 -1.8019
16498TIP3    H270910   5.478   3.539  14.553  1.4912  0.1777 -0.2264
16499TIP3   OH270911   6.594   4.636  15.499  0.1700 -0.4404  0.5309
16499TIP3    H170912   6.622   4.556  15.454  1.0954  0.4298 -0.5168
16499TIP3    H270913   6.555   4.690  15.430 -2.0719 -0.6717  1.5459
16500TIP3   OH270914   2.216   3.744   6.341  0.1736  0.7982 -0.7784
16500TIP3    H170915   2.306   3.773   6.357 -0.1997  1.7265 -0.2556
16500TIP3    H270916   2.211   3.728   6.247  0.5840  1.8477 -0.9876
16501TIP3   OH270917   5.740   0.140   5.022  0.1009  0.5335  0.5108
16501TIP3    H170918   5.780   0.224   5.044 -0.1835  0.9152 -0.3724
16501TIP3    H270919   5.702   0.154   4.935 -1.8796  0.1787  1.2604
16502TIP3   OH270920   4.404   2.251   1.983 -0.2003  0.2002 -0.2428
16502TIP3    H170921   4.362   2.326   2.024  1.0067  0.9797 -0.3974
16502TIP3    H270922   4.495   2.254   2.013  0.3518 -0.0573 -1.8040
16503TIP3   OH270923   2.904   5.389  11.103  0.4429 -0.0614 -0.9515
16503TIP3    H170924   2.922   5.453  11.034 -2.1530  0.0450 -1.6473
16503TIP3    H270925   2.840   5.330  11.064 -0.2048 -0.7139  0.9910
16504TIP3   OH270926   2.844   0.892  15.793 -0.3177 -0.3524 -0.6276
16504TIP3    H170927   2.924   0.865  15.837  0.5728  1.1505 -1.2472
16504TIP3    H270928   2.851   0.857  15.705 -1.1374 -1.6042 -0.2223
16505TIP3   OH270929   5.081   6.221  12.728  0.3218  0.6249 -0.6725
16505TIP3    H170930   5.165   6.264  12.716 -0.5965  3.0822  0.7724
16505TIP3    H270931   5.088   6.176  12.813 -0.1076  1.7381 -0.0225
16506TIP3   OH270932   1.178   2.054   4.109 -0.0232 -0.2638  0.1069
16506TIP3    H170933   1.192   1.997   4.186  0.4135 -1.4190 -0.7992
16506TIP3    H270934   1.249   2.118   4.114 -0.4119  0.1249  1.0440
16507TIP3   OH270935   5.120   1.030   7.006  0.3829  0.3317  0.5054
16507TIP3    H170936   5.063   0.985   6.943  1.4595  0.3025 -0.4816
16507TIP3    H270937   5.112   1.123   6.983 -1.8023  0.7401  2.5107
16508TIP3   OH270938   0.444   3.685  14.205  0.4592  0.4973 -0.7910
16508TIP3    H170939   0.507   3.650  14.142  1.6424  1.8522 -0.4291
16508TIP3    H270940   0.458   3.780  14.202 -0.3159  0.6780  0.6133
16509TIP3   OH270941   5.717   4.377  15.243  0.1654 -0.6518 -0.8261
16509TIP3    H170942   5.632   4.395  15.282  0.3745 -0.2973 -0.5293
16509TIP3    H270943   5.700   4.306  15.181 -0.1192 -1.3976  0.0927
16510TIP3   OH270944   1.361   4.231  16.210  0.4936  0.5096  0.0389
16510TIP3    H170945   1.275   4.189  16.204  0.5581  0.5468 -1.3000
16510TIP3    H270946   1.370   4.281  16.129  1.9907  0.0829 -0.0972
16511TIP3   OH270947   0.318   0.078   0.966  0.0429  0.0001  0.4786
16511TIP3    H170948   0.293   0.086   1.058  0.1976  2.4779  0.3579
16511TIP3    H270949   0.398   0.130   0.957 -0.1166  0.0411 -1.1158
16512TIP3   OH270950   4.211   3.684  13.651  0.6969  0.3332 -0.0284
16512TIP3    H170951   4.199   3.734  13.569 -0.0018  1.1285  0.5426
16512TIP3    H270952   4.298   3.645  13.642  2.1036  3.1105  0.2330
16513TIP3   OH270953   1.794   3.929  16.622 -0.7065  0.2038 -0.3815
16513TIP3    H170954   1.865   3.881  16.665 -1.2192 -1.3489 -1.1943
16513TIP3    H270955   1.728   3.863  16.602 -1.4891  1.2574 -1.4825
16514TIP3   OH270956   4.834   3.588   4.496 -0.7791  0.4879 -0.2027
16514TIP3    H170957   4.782   3.529   4.551  1.0089 -1.3197 -0.3262
16514TIP3    H270958   4.835   3.546   4.410  1.1581  0.2358 -0.1054
16515TIP3   OH270959   2.982   2.506   1.387 -0.4873  0.0335  0.5718
16515TIP3    H170960   3.008   2.438   1.449 -3.4802 -0.3711  1.5045
16515TIP3    H270961   2.923   2.563   1.437 -0.2887  1.6988 -0.9885
16516TIP3   OH270962   0.151   6.709  12.600 -0.0971 -0.7488 -0.4711
16516TIP3    H170963   0.134   6.788  12.652 -0.6570 -1.4155  0.3869
16516TIP3    H270964   0.166   6.640  12.665  2.3682 -0.9872 -1.1600
16517TIP3   OH270965   4.662   2.114   4.777 -0.0277  0.1398 -0.3636
16517TIP3    H170966   4.576   2.150   4.755 -0.3554  0.3204  1.1041
16517TIP3    H270967   4.646   2.020   4.789 -0.2831  0.3345  1.0085
16518TIP3   OH270968   2.252   0.271   5.301  0.1157 -0.1372 -0.2600
16518TIP3    H170969   2.216   0.214   5.369  0.9112  0.3751  0.6219
16518TIP3    H270970   2.300   0.212   5.243 -1.0880 -0.6585 -0.7477
16519TIP3   OH270971   1.929   3.707  16.216  0.1572  0.1264  0.2184
16519TIP3    H170972   1.994   3.649  16.175  0.7322  1.2873 -0.5777
16519TIP3    H270973   1.979   3.785  16.241 -1.0836  1.4707 -1.3034
16520TIP3   OH270974   4.604   4.709  16.535  0.5657 -0.2041  0.5556
16520TIP3    H170975   4.602   4.720  16.630  1.3084  0.0276  0.5513
16520TIP3    H270976   4.640   4.791  16.502  0.2775 -0.2700  0.0700
16521TIP3   OH270977   1.850   5.178  12.911 -0.0485 -0.7668  0.1134
16521TIP3    H170978   1.829   5.166  12.819 -2.1065 -0.1197  0.4443
16521TIP3    H270979   1.916   5.112  12.930  2.1245  0.5281 -2.3305
16522TIP3   OH270980   6.261   4.851   1.598 -0.7867 -0.8216 -0.1025
16522TIP3    H170981   6.196   4.836   1.530 -1.7439 -3.5069  1.2493
16522TIP3    H270982   6.226   4.806   1.675  1.2760  0.2301  1.5616
16523TIP3   OH270983   1.513   4.253  16.427  0.2622  0.5286 -0.3593
16523TIP3    H170984   1.446   4.245  16.359  1.7642  0.2633 -1.8669
16523TIP3    H270985   1.509   4.170  16.475  1.0788 -0.5073 -1.9861
16524TIP3   OH270986   6.203   2.021   0.871  0.5516  0.2542 -0.1405
16524TIP3    H170987   6.226   2.039   0.962  0.0110  0.0885  0.0279
16524TIP3    H270988   6.165   2.103   0.840 -1.7671 -0.4819  0.5815
16525TIP3   OH270989   5.765   2.275  16.389  0.0416 -0.0758 -0.3176
16525TIP3    H170990   5.679   2.315  16.385  0.1418  0.1021 -0.6833
16525TIP3    H270991   5.763   2.221  16.469 -0.5363 -0.3795 -0.5337
16526TIP3   OH270992   2.026   0.188  12.643  0.3812  0.2261  0.4481
16526TIP3    H170993   2.055   0.279  12.647 -0.2487  0.4755 -0.3389
16526TIP3    H270994   2.104   0.139  12.617  0.5677  0.6202  0.2590
16527TIP3   OH270995   1.989   6.555   5.170 -0.6866 -0.2761  0.4474
16527TIP3    H170996   2.034   6.472   5.156  0.5453  0.5075 -0.4567
16527TIP3    H270997   2.021   6.586   5.254  0.2929  0.1524 -0.0721
16528TIP3   OH270998   3.174   4.557  15.047 -0.0521 -0.1563 -0.3467
16528TIP3    H170999   3.120   4.628  15.082 -0.4276 -0.5570 -0.0955
16528TIP3    H271000   3.128   4.529  14.967  0.6231  0.5325 -0.9840
16529TIP3   OH271001   5.305   6.018   0.919  0.0729  0.0393  0.1181
16529TIP3    H171002   5.267   6.095   0.877  0.4867 -0.6797 -1.7020
16529TIP3    H271003   5.232   5.958   0.929 -0.2210  0.5853  1.4010
16530TIP3   OH271004   4.838   6.175  11.645  0.4188  0.6215 -0.0413
16530TIP3    H171005   4.810   6.189  11.735 -1.0153  1.0970 -0.5349
16530TIP3    H271006   4.925   6.136  11.653  0.6284  1.3239  1.5286
16531TIP3   OH271007   2.873   4.660   3.409  0.1762  0.3456  0.3959
16531TIP3    H171008   2.798   4.670   3.351  1.5267  0.7827 -1.3352
16531TIP3    H271009   2.924   4.740   3.397  1.0307 -0.0206  1.4092
16532TIP3   OH271010   3.643   6.528   2.914 -0.1649  0.7113 -0.2304
16532TIP3    H171011   3.719   6.578   2.944  1.0747 -1.7290  1.0469
16532TIP3    H271012   3.673   6.486   2.833  0.1166 -0.6991  0.5696
16533TIP3   OH271013   2.730   5.588   0.501  0.1196  0.3283 -0.1587
16533TIP3    H171014   2.647   5.544   0.516  0.0521  1.0436  1.7831
16533TIP3    H271015   2.708   5.681   0.493  0.7096  0.5069  0.1861
16534TIP3   OH271016   4.195   4.091  15.153  0.2678 -0.0086  0.3086
16534TIP3    H171017   4.149   4.031  15.211 -0.1201 -0.8241 -0.8105
16534TIP3    H271018   4.132   4.111  15.085  1.3207 -0.5992 -0.8778
16535TIP3   OH271019   2.702   2.131   4.554 -0.2491  0.1612  0.4627
16535TIP3    H171020   2.786   2.091   4.530 -0.3020  0.5686 -0.4251
16535TIP3    H271021   2.712   2.153   4.647  0.6700  0.3023  0.3437
16536TIP3   OH271022   0.326   1.529  12.301 -0.3831 -0.7449  0.1071
16536TIP3    H171023   0.244   1.566  12.333 -0.6737 -0.5605 -0.8139
16536TIP3    H271024   0.379   1.516  12.380  0.0397  2.3672  0.4348
16537TIP3   OH271025   2.757   5.697  14.668  0.2729  0.7858  0.0027
16537TIP3    H171026   2.785   5.758  14.736 -0.0869 -0.1584  1.0317
16537TIP3    H271027   2.790   5.612  14.697  0.0393  0.3575 -0.9642
16538TIP3   OH271028   0.788   6.332   2.103 -0.1433  0.1610  0.2289
16538TIP3    H171029   0.815   6.248   2.138 -0.4699 -0.0783 -0.0890
16538TIP3    H271030   0.790   6.320   2.008  1.6395  1.0697  0.0980
16539TIP3   OH271031   0.938   6.370   2.641 -0.3962 -0.1571 -0.1537
16539TIP3    H171032   1.015   6.322   2.670 -0.5273 -1.2448 -1.5538
16539TIP3    H271033   0.964   6.411   2.559 -1.4328 -0.8896 -0.8619
16540TIP3   OH271034   3.835   2.074  13.365 -0.0635 -0.1782  0.4041
16540TIP3    H171035   3.926   2.075  13.338  0.8411 -1.4991  3.0504
16540TIP3    H271036   3.836   2.109  13.454 -2.0711 -0.5628  0.6260
16541TIP3   OH271037   0.140   5.448  11.449  0.0957 -0.2429  0.8830
16541TIP3    H171038   0.055   5.418  11.480 -1.0029 -0.1933 -1.8206
16541TIP3    H271039   0.131   5.543  11.443  0.0811 -0.2916 -0.0331
16542TIP3   OH271040   5.236   1.181  13.309 -0.7865  0.1613 -0.7690
16542TIP3    H171041   5.266   1.168  13.219  1.4654 -0.3626 -0.0136
16542TIP3    H271042   5.198   1.269  13.309  0.8184  0.9160 -1.8616
16543TIP3   OH271043   3.776   5.568   2.409  0.1330  0.3869  0.4925
16543TIP3    H171044   3.714   5.497   2.388 -0.3174  0.6440  0.9466
16543TIP3    H271045   3.787   5.614   2.326 -1.1577  1.0146  0.6437
16544TIP3   OH271046   6.397   0.338   1.176  0.2631  0.3299  0.1396
16544TIP3    H171047   6.366   0.353   1.265 -0.4901  1.3069 -0.2645
16544TIP3    H271048   6.487   0.306   1.186 -0.0821 -0.3201  1.2664
16545TIP3   OH271049   2.933   2.415   0.232 -0.1319  0.0770  0.2030
16545TIP3    H171050   2.865   2.377   0.287 -1.7996  2.8076  0.2224
16545TIP3    H271051   2.887   2.442   0.152  1.7451 -1.5114 -1.5281
16546TIP3   OH271052   6.083   3.327   3.745  0.2380  0.7117 -0.2584
16546TIP3    H171053   6.015   3.261   3.757  1.8094 -1.5458 -2.5998
16546TIP3    H271054   6.057   3.373   3.665 -0.0240  1.8997  0.4885
16547TIP3   OH271055   1.093   6.516   5.867  0.2525  0.1023  0.1607
16547TIP3    H171056   1.061   6.428   5.883 -0.6265  0.1091 -1.3587
16547TIP3    H271057   1.172   6.524   5.921  1.6246 -2.3841 -1.3092
16548TIP3   OH271058   5.776   1.820  11.309 -0.0219 -0.5905 -0.8061
16548TIP3    H171059   5.736   1.859  11.386  1.0517  0.3607 -0.7193
16548TIP3    H271060   5.702   1.801  11.251 -0.5212  3.0765 -1.5676
16549TIP3   OH271061   1.875   4.838  10.736 -0.5044  0.4352 -0.0410
16549TIP3    H171062   1.863   4.896  10.811 -0.7758  1.6750 -1.0080
16549TIP3    H271063   1.941   4.882  10.682 -0.8449 -0.0625 -0.8801
16550TIP3   OH271064   6.512   4.585  15.157 -0.0126 -0.6156 -0.1952
16550TIP3    H171065   6.543   4.503  15.196  0.8711 -0.7008 -1.0427
16550TIP3    H271066   6.421   4.565  15.132  0.4780 -1.6799 -1.2625
16551TIP3   OH271067   1.935   3.456  15.884  0.0252 -0.2397 -0.2517
16551TIP3    H171068   1.897   3.374  15.915 -0.5373 -0.3932 -1.2826
16551TIP3    H271069   1.861   3.505  15.847  0.3226  0.8108  0.4795
16552TIP3   OH271070   6.627   1.551   0.396  0.4656  0.4034 -0.2488
16552TIP3    H171071   6.654   1.522   0.483  0.0624  0.6825 -0.0297
16552TIP3    H271072   6.653   1.479   0.338 -0.6102 -0.4611  0.3007
16553TIP3   OH271073   3.429   3.453  13.958 -0.1205  0.1578 -0.3850
16553TIP3    H171074   3.437   3.541  13.923  0.5043 -0.0323 -0.7458
16553TIP3    H271075   3.499   3.447  14.024 -0.5023  0.1059  0.0253
16554TIP3   OH271076   1.090   2.947  15.572  0.0967 -0.2681  0.6044
16554TIP3    H171077   1.069   3.040  15.583 -2.0288 -0.3555 -1.7853
16554TIP3    H271078   1.176   2.946  15.530 -1.3704  0.8804 -2.6763
16555TIP3   OH271079   3.770   5.344   3.245 -0.2027  0.0007 -0.0475
16555TIP3    H171080   3.720   5.381   3.319  0.7885 -0.8576  1.0854
16555TIP3    H271081   3.730   5.384   3.168 -1.9996  0.1146  0.8658
16556TIP3   OH271082   0.241   4.978  12.707 -0.4553 -0.1122 -0.2214
16556TIP3    H171083   0.241   4.992  12.802  0.2677  0.6142 -0.3216
16556TIP3    H271084   0.330   4.950  12.687  0.2507  2.4853 -1.0555
16557TIP3   OH271085   4.969   3.588  14.145 -0.3257  0.7085 -0.4948
16557TIP3    H171086   4.982   3.493  14.133 -0.4354  0.7294 -0.8019
16557TIP3    H271087   4.910   3.594  14.220 -1.1139  0.4865 -1.0799
16558TIP3   OH271088   2.879   0.642  15.616  0.5444  0.0582 -0.0724
16558TIP3    H171089   2.930   0.714  15.580  0.7494 -0.0282  0.0434
16558TIP3    H271090   2.874   0.578  15.544  0.0001  0.3656 -0.3187
16559TIP3   OH271091   1.940   4.857  14.481 -0.1561 -0.0746  0.7691
16559TIP3    H171092   1.959   4.887  14.569 -0.5869  0.8660  0.5547
16559TIP3    H271093   1.845   4.865  14.473 -0.0936  0.0673  0.1395
16560TIP3   OH271094   2.080   3.940   5.919  0.2241  0.1082  0.1911
16560TIP3    H171095   2.173   3.959   5.928 -0.3165  3.0525  0.5981
16560TIP3    H271096   2.060   3.963   5.828 -0.0409 -0.8307  0.0091
16561TIP3   OH271097   6.486   1.925  12.741  0.6688 -0.5280  0.1992
16561TIP3    H171098   6.510   1.867  12.813 -0.6572  0.1788  1.2528
16561TIP3    H271099   6.399   1.895  12.714  0.1755  0.6476  0.4315
16562TIP3   OH271100   5.402   4.360   4.999  0.0274  0.0422 -0.1968
16562TIP3    H171101   5.427   4.280   4.953  1.1790 -0.2056  0.8292
16562TIP3    H271102   5.345   4.406   4.937 -1.0725 -1.7796 -0.6414
16563TIP3   OH271103   2.846   4.690  16.025 -0.1089 -0.2124 -0.0407
16563TIP3    H171104   2.838   4.601  16.061  1.4082  0.0578  1.0728
16563TIP3    H271105   2.882   4.741  16.097 -1.1238  1.3748 -0.6109
16564TIP3   OH271106   4.982   1.993  11.691 -0.1806  0.3467 -0.0362
16564TIP3    H171107   5.076   1.978  11.674  0.1792  1.1114  1.1453
16564TIP3    H271108   4.948   1.906  11.714 -0.0997 -0.2056 -1.7904
16565TIP3   OH271109   4.938   6.506  12.732 -0.2180 -0.6111 -0.1394
16565TIP3    H171110   4.856   6.497  12.682 -0.4592 -1.3308  0.3692
16565TIP3    H271111   4.915   6.478  12.820  0.4249 -0.1928  0.1630
16566TIP3   OH271112   2.489   4.726  14.857  0.1226 -0.2776 -0.1527
16566TIP3    H171113   2.397   4.751  14.862 -0.2896 -0.9996 -2.8049
16566TIP3    H271114   2.521   4.769  14.778  1.4488 -1.8286 -0.5123
16567TIP3   OH271115   3.001   4.247   1.269  0.3151 -0.3701  0.0052
16567TIP3    H171116   3.091   4.213   1.263  0.2928 -0.4478  0.1093
16567TIP3    H271117   2.975   4.229   1.359 -0.6600 -2.4640 -0.6243
16568TIP3   OH271118   2.275   5.654   2.350  0.3660  0.2134  0.0599
16568TIP3    H171119   2.203   5.685   2.404 -0.0286 -1.7374  0.7342
16568TIP3    H271120   2.236   5.591   2.290  1.8004 -2.9020  2.1816
16569TIP3   OH271121   4.594   2.571   2.884  0.0012 -0.0811 -0.5181
16569TIP3    H171122   4.552   2.505   2.828  0.2820 -2.0654  1.4512
16569TIP3    H271123   4.683   2.579   2.849 -0.0447 -0.7798 -0.8185
16570TIP3   OH271124   2.454   5.388  17.332  0.2222  0.1055  0.2702
16570TIP3    H171125   2.498   5.466  17.366  1.5790 -0.9266  0.9962
16570TIP3    H271126   2.421   5.344  17.410 -0.0409 -0.3230 -0.0813
16571TIP3   OH271127   4.092   6.007   0.140  0.4556  0.5042 -0.3972
16571TIP3    H171128   4.157   6.014   0.069 -3.1888  0.8973 -4.1274
16571TIP3    H271129   4.064   5.916   0.137  0.7559  0.3542  1.1041
16572TIP3   OH271130   5.417   4.356   1.876 -0.2081  0.2329 -0.6159
16572TIP3    H171131   5.497   4.354   1.823 -0.7269 -0.6433 -1.3861
16572TIP3    H271132   5.447   4.386   1.962  1.0869 -0.7620 -0.6865
16573TIP3   OH271133   1.664   3.021  16.131  0.2927  0.0789  0.0572
16573TIP3    H171134   1.613   2.944  16.106 -0.7984  0.8234 -0.0448
16573TIP3    H271135   1.605   3.074  16.183  1.8115 -0.3178  2.3586
16574TIP3   OH271136   4.903   4.121   4.114 -0.1896  0.5129  0.2792
16574TIP3    H171137   4.991   4.095   4.087 -0.2334 -1.4577  1.8390
16574TIP3    H271138   4.845   4.056   4.075 -0.7151  0.4374  1.1620
16575TIP3   OH271139   5.690   4.585  10.697 -0.3559  0.4296  0.0267
16575TIP3    H171140   5.693   4.624  10.785 -0.4775  1.2741 -0.3364
16575TIP3    H271141   5.761   4.628  10.649 -0.1976 -0.1319 -0.2499
16576TIP3   OH271142   6.178   6.108  14.101 -0.0029  0.6203 -0.0209
16576TIP3    H171143   6.256   6.062  14.130 -0.0641 -1.0359 -2.2288
16576TIP3    H271144   6.111   6.040  14.095 -0.6124  1.3049 -1.5668
16577TIP3   OH271145   0.918   2.873  12.472  0.4586 -0.7129 -0.0264
16577TIP3    H171146   0.905   2.967  12.480 -0.7622 -0.6480 -2.0620
16577TIP3    H271147   0.971   2.849  12.548  0.2269  1.4874  0.8865
16578TIP3   OH271148   6.464   4.729   5.104 -0.0969 -0.1343  0.2257
16578TIP3    H171149   6.544   4.717   5.156  1.1513  2.6247 -0.8550
16578TIP3    H271150   6.492   4.780   5.028 -2.5636 -0.8245 -1.2627
16579TIP3   OH271151   4.168   2.080   5.546  0.4934  0.3290 -0.5283
16579TIP3    H171152   4.100   2.090   5.613  0.7476  2.0699 -0.4803
16579TIP3    H271153   4.149   1.996   5.505 -0.5473 -0.0892  0.7542
16580TIP3   OH271154   2.912   4.564   4.409 -0.4357  0.0183  0.2175
16580TIP3    H171155   2.950   4.476   4.399 -1.9943 -0.8881  1.7761
16580TIP3    H271156   2.818   4.549   4.414 -0.8124  1.9058 -0.3717
16581TIP3   OH271157   5.886   3.983  14.041 -0.4382 -0.2380  0.5485
16581TIP3    H171158   5.855   4.017  14.125  0.2454 -1.3630  1.3020
16581TIP3    H271159   5.818   4.006  13.978 -2.1839 -1.5052  1.8822
16582TIP3   OH271160   4.380   6.465  11.986 -0.0641 -0.0493  0.5667
16582TIP3    H171161   4.344   6.546  11.950  2.1207  0.0730 -1.5766
16582TIP3    H271162   4.434   6.494  12.060 -1.0741  0.1578  1.2524
16583TIP3   OH271163   6.489   0.013   0.343 -0.8465  0.1616  0.4121
16583TIP3    H171164   6.559  -0.032   0.297 -1.8107 -0.2015 -0.7348
16583TIP3    H271165   6.485  -0.030   0.429  0.4200  0.2999  0.5596
16584TIP3   OH271166   0.772   3.282  15.365  0.2768  0.1996  0.0825
16584TIP3    H171167   0.824   3.217  15.319 -0.0436 -1.3255  1.7421
16584TIP3    H271168   0.830   3.358  15.375  1.0171 -0.2097 -0.9830
16585TIP3   OH271169   5.264   2.859   5.136 -0.0363 -0.6349 -0.3125
16585TIP3    H171170   5.191   2.802   5.114 -0.7592  0.8151 -1.8754
16585TIP3    H271171   5.245   2.889   5.225 -0.9472 -0.8713 -0.4231
16586TIP3   OH271172   5.424   5.138  15.404 -0.3476 -0.0668 -0.9636
16586TIP3    H171173   5.394   5.173  15.320  0.8896  1.2305 -0.9027
16586TIP3    H271174   5.482   5.206  15.439  2.1751 -2.1065 -0.8395
16587TIP3   OH271175   2.810   3.977   1.750  0.7559 -0.4854 -0.5896
16587TIP3    H171176   2.733   3.921   1.744  0.2134  0.1806  0.0352
16587TIP3    H271177   2.884   3.918   1.735  0.1272 -1.1068 -1.3191
16588TIP3   OH271178   2.879   5.261  16.566  0.0933  0.3191  0.3097
16588TIP3    H171179   2.949   5.196  16.558 -0.5171 -0.3023 -0.1681
16588TIP3    H271180   2.921   5.338  16.604  0.7879 -0.4480  1.1573
16589TIP3   OH271181   3.329   1.676  11.760 -0.0785  0.3817  0.1999
16589TIP3    H171182   3.316   1.648  11.669  0.7885 -1.8357  0.6691
16589TIP3    H271183   3.270   1.750  11.772 -0.3329  0.6179 -2.1104
16590TIP3   OH271184   3.545   5.414   3.848  0.1442 -0.4401  0.1812
16590TIP3    H171185   3.480   5.411   3.919  0.8962 -1.1250  0.8694
16590TIP3    H271186   3.521   5.342   3.790 -0.6251  0.2805 -0.4152
16591TIP3   OH271187   2.894   2.712  16.968 -0.2755  0.0066  0.0439
16591TIP3    H171188   2.982   2.712  16.931 -0.6953 -0.1204 -0.9959
16591TIP3    H271189   2.849   2.640  16.924  0.2280 -2.6547  3.4670
16592TIP3   OH271190   5.441   1.228  11.140  0.2669 -0.0205 -0.3648
16592TIP3    H171191   5.453   1.158  11.076  0.7461 -0.1806 -0.1074
16592TIP3    H271192   5.518   1.221  11.197 -0.2502 -0.0228  0.3525
16593TIP3   OH271193   6.731   4.510  15.717 -0.6917  0.1117 -0.0137
16593TIP3    H171194   6.714   4.423  15.753  0.8523 -0.5977 -0.8629
16593TIP3    H271195   6.699   4.506  15.628  1.6288 -0.5015 -0.8949
16594TIP3   OH271196   0.620   3.251   5.798 -0.3511 -0.0310  0.3102
16594TIP3    H171197   0.652   3.340   5.813  1.9243 -0.8183  0.4466
16594TIP3    H271198   0.615   3.243   5.703 -1.0608  0.3861  0.3053
16595TIP3   OH271199   2.818   0.880   0.248 -0.2916  0.1252  0.3085
16595TIP3    H171200   2.869   0.880   0.168 -0.7190 -0.4174  0.0248
16595TIP3    H271201   2.742   0.824   0.229  0.5317 -1.5661  1.6505
16596TIP3   OH271202   2.934   3.554  10.722  0.2927  0.0773 -0.3223
16596TIP3    H171203   3.016   3.537  10.767  1.2153 -1.0504 -2.2939
16596TIP3    H271204   2.930   3.649  10.713 -0.4016  0.4691  2.8024
16597TIP3   OH271205   5.661   5.052  13.663 -0.8048 -0.9445  0.3284
16597TIP3    H171206   5.687   5.124  13.605 -1.5762  1.0755  2.3213
16597TIP3    H271207   5.719   5.060  13.739 -1.4080 -1.9558  0.9206
16598TIP3   OH271208   2.424   6.575  10.730 -0.0724  0.1152  0.0156
16598TIP3    H171209   2.344   6.627  10.727 -0.1637 -0.0483 -0.7858
16598TIP3    H271210   2.426   6.540  10.819 -0.8259  0.2247  0.0907
16599TIP3   OH271211   2.059   1.085  10.929 -0.8097 -0.0657  0.4363
16599TIP3    H171212   2.119   1.020  10.893 -0.2085  0.7636 -0.0818
16599TIP3    H271213   1.972   1.054  10.903 -0.5062 -0.4986 -0.0839
16600TIP3   OH271214   4.544   6.584   5.243  0.1715  0.3259  0.0197
16600TIP3    H171215   4.558   6.569   5.337  1.4661 -1.1920 -0.3758
16600TIP3    H271216   4.475   6.650   5.240 -1.9839 -1.6391  2.0317
16601TIP3   OH271217   6.482   0.197  13.873 -0.1314  0.0003 -1.0106
16601TIP3    H171218   6.565   0.236  13.846  0.8272  0.0367  1.6867
16601TIP3    H271219   6.440   0.264  13.926 -0.5392 -1.0512  0.0287
16602TIP3   OH271220   3.106   3.008  16.119  0.0171  0.2055 -0.3374
16602TIP3    H171221   3.099   2.949  16.194 -0.3445  2.5394  1.5798
16602TIP3    H271222   3.095   2.951  16.042  0.6040 -2.3099  1.3262
16603TIP3   OH271223   0.754   3.689  14.746  0.2891 -0.1863  0.2412
16603TIP3    H171224   0.830   3.695  14.805 -0.1180  2.4077  0.5888
16603TIP3    H271225   0.680   3.719  14.798 -0.0852  2.2106 -1.4981
16604TIP3   OH271226   2.340   6.529  13.739 -0.6039  0.5924  0.5043
16604TIP3    H171227   2.402   6.592  13.775 -1.1958  0.2640  2.2236
16604TIP3    H271228   2.395   6.460  13.701  0.1111  0.3707  1.8813
16605TIP3   OH271229   3.291   2.795   2.859  0.1004 -0.3203 -0.7191
16605TIP3    H171230   3.319   2.820   2.771  2.8188 -1.5801 -0.3152
16605TIP3    H271231   3.317   2.704   2.868 -0.5388 -0.3582  1.2590
16606TIP3   OH271232   6.566   6.099  13.512 -0.3767  0.5578  0.2481
16606TIP3    H171233   6.510   6.176  13.505 -2.6626 -0.5392  3.5939
16606TIP3    H271234   6.510   6.026  13.488  0.8587 -0.3124 -0.0899
16607TIP3   OH271235   3.359   0.751   1.738 -0.0345 -0.9023 -0.1546
16607TIP3    H171236   3.268   0.725   1.753 -0.7133  1.0523 -0.5064
16607TIP3    H271237   3.390   0.782   1.824 -0.5746  0.7584 -0.5075
16608TIP3   OH271238   3.787   0.643  11.804  0.0490 -0.3148 -0.4288
16608TIP3    H171239   3.750   0.670  11.888 -1.7745 -0.8005 -1.0460
16608TIP3    H271240   3.776   0.548  11.802  0.9219 -0.4161 -0.8371
16609TIP3   OH271241   2.420   6.112  11.074 -0.0213  0.1150 -0.3468
16609TIP3    H171242   2.328   6.132  11.056 -0.3871  1.7303  2.6018
16609TIP3    H271243   2.469   6.166  11.013 -1.0602  0.9666 -0.4574
16610TIP3   OH271244   0.216   1.677  14.226  0.7395 -0.3178 -0.4713
16610TIP3    H171245   0.276   1.749  14.207  0.2553 -0.1790 -1.5591
16610TIP3    H271246   0.235   1.653  14.317  0.4924  1.5854  0.1293
16611TIP3   OH271247   1.628   6.006   0.664  0.5822 -0.5425  0.4268
16611TIP3    H171248   1.568   5.974   0.732  0.2412 -0.7377  0.0436
16611TIP3    H271249   1.570   6.035   0.593  0.9558 -2.3560 -0.6740
16612TIP3   OH271250   0.784   4.977  15.747  0.1652  0.0871 -0.2941
16612TIP3    H171251   0.790   4.958  15.840  0.3434  1.6855  0.0456
16612TIP3    H271252   0.861   4.936  15.708  0.5355  0.1323  0.3879
16613TIP3   OH271253   2.768   1.369  15.279  0.1251 -0.1520 -0.1011
16613TIP3    H171254   2.712   1.369  15.201  1.9146  0.1673 -1.4404
16613TIP3    H271255   2.725   1.308  15.339 -1.0872 -0.7286 -1.4969
16614TIP3   OH271256   1.619   1.768  12.779 -0.9077  0.2487  0.1398
16614TIP3    H171257   1.676   1.773  12.702 -0.2109  0.3650  0.6556
16614TIP3    H271258   1.595   1.676  12.784  0.6733 -0.1510  0.9275
16615TIP3   OH271259   5.426   0.245  10.828  0.1052 -0.0674  0.3395
16615TIP3    H171260   5.370   0.172  10.802 -0.5900  0.2011  1.0520
16615TIP3    H271261   5.479   0.209  10.900  2.8280 -1.1622 -2.0209
16616TIP3   OH271262   5.358   3.936  16.123 -0.0961  0.0799 -0.0331
16616TIP3    H171263   5.369   4.031  16.121 -0.6584  0.1506 -0.0176
16616TIP3    H271264   5.429   3.905  16.178  0.1644  0.4820 -0.1372
16617TIP3   OH271265   0.096   2.312   3.567  0.1231 -0.4398  0.3117
16617TIP3    H171266   0.050   2.389   3.601 -1.7016  0.0099 -2.7882
16617TIP3    H271267   0.046   2.237   3.600  0.2678 -0.1992  1.1043
16618TIP3   OH271268   4.795   3.110  12.869 -0.1747  0.1567  0.1161
16618TIP3    H171269   4.764   3.146  12.952 -0.5263  0.2981 -0.0729
16618TIP3    H271270   4.877   3.156  12.852  0.2310 -0.3407  0.7072
16619TIP3   OH271271   2.691   4.315   2.447  0.2145  0.2417  0.1507
16619TIP3    H171272   2.620   4.354   2.497 -0.8706  3.0402 -3.1498
16619TIP3    H271273   2.759   4.296   2.512 -1.8754  1.4616  2.8917
16620TIP3   OH271274   4.139   3.548  14.110  0.1697 -0.2214 -0.1397
16620TIP3    H171275   4.184   3.582  14.033  0.1493  3.0563  1.1362
16620TIP3    H271276   4.046   3.568  14.095  0.1525  0.3732  0.6501
16621TIP3   OH271277   6.179   6.576  17.127  0.4076  0.0946  0.5470
16621TIP3    H171278   6.126   6.561  17.206 -2.1333 -1.8445 -1.3276
16621TIP3    H271279   6.228   6.494  17.116 -1.8128 -1.0841 -1.5432
16622TIP3   OH271280   3.074   6.292   1.447 -0.3586  0.0913  1.3221
16622TIP3    H171281   3.118   6.229   1.504 -0.3539  0.5504  1.8388
16622TIP3    H271282   3.032   6.239   1.380 -0.6522 -0.4883  1.9533
16623TIP3   OH271283   3.333   1.901  14.848  0.2057 -0.2232  0.5355
16623TIP3    H171284   3.425   1.912  14.825  0.5724 -0.2429  1.9227
16623TIP3    H271285   3.315   1.970  14.911 -0.9679  0.2786 -0.3083
16624TIP3   OH271286   1.242   0.765   0.503  0.1288  0.1031  0.2717
16624TIP3    H171287   1.233   0.722   0.588 -1.7432 -1.6331 -0.7458
16624TIP3    H271288   1.297   0.705   0.451  0.2120  0.5398 -0.1542
16625TIP3   OH271289   0.256   0.384  17.251  0.3108  0.2002  0.1851
16625TIP3    H171290   0.259   0.479  17.240 -1.8282  0.5239  1.7660
16625TIP3    H271291   0.171   0.359  17.216  0.8732 -1.1805 -0.2532
16626TIP3   OH271292   2.085   4.606  13.413 -0.3195 -0.2608 -0.5261
16626TIP3    H171293   1.994   4.632  13.398  0.3080  2.1541 -0.6947
16626TIP3    H271294   2.137   4.672  13.366  1.5312 -2.0657 -1.1412
16627TIP3   OH271295   5.203   0.637  16.627  0.2863  0.7199 -0.1845
16627TIP3    H171296   5.135   0.667  16.687 -0.5839  0.2399 -0.9212
16627TIP3    H271297   5.280   0.690  16.650  0.2496 -0.0725  1.9603
16628TIP3   OH271298   1.395   2.927   2.879 -0.1825 -0.5706 -0.5670
16628TIP3    H171299   1.313   2.893   2.914 -0.5908  1.5018  0.6803
16628TIP3    H271300   1.368   3.002   2.826  0.9308  0.6868  0.5729
16629TIP3   OH271301   3.975   5.751   1.894  0.4170 -0.5085  0.0888
16629TIP3    H171302   4.012   5.837   1.911 -2.1890  0.5820  0.6411
16629TIP3    H271303   3.938   5.757   1.806  1.3136 -1.5248 -0.3875
16630TIP3   OH271304   5.095   2.537  16.064  0.3559  0.1342 -0.4603
16630TIP3    H171305   5.173   2.592  16.063 -0.3336  1.1430 -1.8860
16630TIP3    H271306   5.113   2.469  15.999  1.8016 -2.3401  2.2685
16631TIP3   OH271307   0.433   4.643  14.435  0.2620  0.0139  1.1219
16631TIP3    H171308   0.373   4.570  14.452 -0.9895 -0.2472 -3.3020
16631TIP3    H271309   0.376   4.713  14.403  1.9871  0.9939  0.0741
16632TIP3   OH271310   3.884   5.720  15.840  0.6469  0.1103 -0.6425
16632TIP3    H171311   3.965   5.721  15.891  0.6243 -0.7984 -0.5606
16632TIP3    H271312   3.818   5.755  15.899  0.1679 -2.9058  0.8238
16633TIP3   OH271313   1.063   5.663   1.905 -0.2768  0.3263  0.3449
16633TIP3    H171314   1.144   5.695   1.865  0.7560  1.5514  3.1748
16633TIP3    H271315   1.079   5.569   1.919  0.3234  0.3941  0.1367
16634TIP3   OH271316   6.630   5.232  11.973 -0.0892  0.8107  0.4822
16634TIP3    H171317   6.585   5.191  11.900  1.2432  0.2062 -0.0251
16634TIP3    H271318   6.650   5.159  12.033 -0.7568  1.2332  1.2514
16635TIP3   OH271319   3.415   4.093   5.300 -0.3702 -0.0174  0.2125
16635TIP3    H171320   3.381   4.048   5.223 -1.3658  0.8813  0.0917
16635TIP3    H271321   3.488   4.146   5.268 -0.5111  0.0250 -0.0378
16636TIP3   OH271322   3.324   2.684   1.737 -0.3211  0.5870  0.0134
16636TIP3    H171323   3.400   2.700   1.793  0.0237 -0.3087 -0.1880
16636TIP3    H271324   3.255   2.659   1.799 -0.6541  2.0509  0.2578
16637TIP3   OH271325   0.534   1.917  10.894 -0.0680  0.0480  0.3531
16637TIP3    H171326   0.613   1.922  10.840 -0.0315 -0.8824  0.3168
16637TIP3    H271327   0.476   1.984  10.858 -0.2889 -0.9594 -1.2414
16638TIP3   OH271328   6.351   2.787  15.722  0.1033 -0.4232  0.0010
16638TIP3    H171329   6.425   2.735  15.693 -0.4297 -0.8232 -0.6709
16638TIP3    H271330   6.379   2.878  15.709  0.2601 -0.5791 -0.8028
16639TIP3   OH271331   5.846   5.535  14.564 -0.3746  0.0632  0.2203
16639TIP3    H171332   5.771   5.579  14.524 -0.6054 -0.3331  0.2175
16639TIP3    H271333   5.892   5.496  14.490 -0.7969 -0.6632  0.3344
16640TIP3   OH271334   3.496   0.121   2.786  0.3686 -0.0285  0.6066
16640TIP3    H171335   3.578   0.121   2.835  1.2062 -1.4336 -0.7251
16640TIP3    H271336   3.505   0.051   2.722 -1.9142 -0.2737  0.4501
16641TIP3   OH271337   5.372   1.031   3.307 -0.2140  0.2386 -0.6162
16641TIP3    H171338   5.465   1.036   3.330 -0.6933 -0.3094  1.6950
16641TIP3    H271339   5.370   1.049   3.213  2.5699 -3.0875 -1.5308
16642TIP3   OH271340   1.446   6.095  13.071  0.0562  0.2766  0.3920
16642TIP3    H171341   1.522   6.107  13.013 -0.0483 -0.7967  0.0251
16642TIP3    H271342   1.408   6.012  13.045 -1.7242  1.1509  0.0490
16643TIP3   OH271343   3.747   3.847   0.089 -0.1845 -0.3861 -0.4619
16643TIP3    H171344   3.661   3.887   0.100  0.0280  0.1786 -0.7873
16643TIP3    H271345   3.737   3.757   0.120 -0.8786 -0.3095 -0.4676
16644TIP3   OH271346   2.348   2.724  15.382  0.1893 -0.0999 -0.0307
16644TIP3    H171347   2.310   2.638  15.366  1.8868 -0.9730  0.3415
16644TIP3    H271348   2.287   2.786  15.341 -0.3524 -1.5658 -1.5635
16645TIP3   OH271349   1.749   4.847   3.803 -0.5422 -0.5435 -0.3225
16645TIP3    H171350   1.803   4.770   3.785 -0.5634 -0.4933 -0.5999
16645TIP3    H271351   1.665   4.812   3.831 -0.1797 -0.6323  0.7349
16646TIP3   OH271352   6.611   0.297  12.545 -0.0226 -0.5251  0.0224
16646TIP3    H171353   6.520   0.267  12.553 -0.2749  0.4128  0.9236
16646TIP3    H271354   6.614   0.339  12.459 -0.4996 -0.4040  0.0602
16647TIP3   OH271355   3.774   3.838   2.993 -0.1435  0.1308  0.1641
16647TIP3    H171356   3.835   3.881   3.053  1.3866 -0.6396 -0.7588
16647TIP3    H271357   3.748   3.757   3.038 -0.2220  0.2987  0.4213
16648TIP3   OH271358   3.124   5.590  17.083  0.1834  0.0709  0.1085
16648TIP3    H171359   3.180   5.527  17.038  0.4460  0.1160  0.3717
16648TIP3    H271360   3.036   5.553  17.077  0.5619 -1.1917  1.7539
16649TIP3   OH271361   4.216   1.186  12.602  0.2839  0.0138  0.4032
16649TIP3    H171362   4.269   1.210  12.526 -0.0899  0.8150  0.3858
16649TIP3    H271363   4.251   1.102  12.630  0.6507 -0.1290 -0.4502
16650TIP3   OH271364   3.273   1.283  10.859  0.0641  0.1329 -0.0155
16650TIP3    H171365   3.191   1.331  10.872  0.0456  0.0185  0.2877
16650TIP3    H271366   3.337   1.327  10.915  0.3521  0.5746 -0.6769
16651TIP3   OH271367   2.803   1.803   4.486 -0.1784  0.4136  0.5656
16651TIP3    H171368   2.847   1.754   4.555  2.6992  0.3529 -1.1802
16651TIP3    H271369   2.854   1.883   4.477  0.3859 -0.1930 -2.3816
16652TIP3   OH271370   3.851   3.159  15.929 -0.1453  0.0627  0.0527
16652TIP3    H171371   3.877   3.227  15.992 -0.9313  1.6393 -1.2703
16652TIP3    H271372   3.771   3.192  15.889  1.0581 -0.1780 -2.7938
16653TIP3   OH271373   1.184   3.621   2.156  0.0432  0.4216 -0.0629
16653TIP3    H171374   1.275   3.641   2.176 -0.2813  1.1180  0.8568
16653TIP3    H271375   1.137   3.641   2.238 -0.8928 -0.1580 -0.4389
16654TIP3   OH271376   2.179   5.119  10.743 -0.2589 -0.4757  0.1335
16654TIP3    H171377   2.130   5.069  10.808  0.0098  0.5910  1.2045
16654TIP3    H271378   2.136   5.100  10.660 -0.3252 -2.2404  0.5471
16655TIP3   OH271379   5.397   6.685   1.391 -0.0251 -0.5153  0.0569
16655TIP3    H171380   5.400   6.615   1.326  1.2604 -0.2608 -0.1806
16655TIP3    H271381   5.397   6.639   1.475 -0.6163 -0.8202 -0.1032
16656TIP3   OH271382   0.539   1.211  16.562 -0.5763  0.0550 -0.0145
16656TIP3    H171383   0.542   1.305  16.543 -0.3360 -0.0788 -0.6716
16656TIP3    H271384   0.628   1.181  16.546 -0.6385 -0.2720  0.2596
16657TIP3   OH271385   5.976   4.727   4.028  0.0588 -0.1306 -0.3485
16657TIP3    H171386   5.955   4.714   3.936  0.7145  0.3684 -0.5763
16657TIP3    H271387   6.001   4.819   4.035 -0.5864 -0.0026  0.4507
16658TIP3   OH271388   5.991   2.767   0.608 -0.3066 -0.1730  0.4627
16658TIP3    H171389   5.949   2.830   0.666  1.7429 -0.7859  2.7233
16658TIP3    H271390   5.918   2.724   0.564 -1.8823  1.3018  1.4911
16659TIP3   OH271391   6.677   4.002   1.294  0.2093 -0.9160  0.0323
16659TIP3    H171392   6.753   4.053   1.323 -0.2603 -0.5931  0.7386
16659TIP3    H271393   6.682   4.004   1.198  0.3714  0.2139  0.0463
16660TIP3   OH271394   6.640   3.860   1.680 -0.1994 -0.6181  0.2762
16660TIP3    H171395   6.704   3.845   1.749 -0.1532 -1.1302  0.1251
16660TIP3    H271396   6.638   3.956   1.669 -0.0175 -0.5510  0.7998
16661TIP3   OH271397   3.540   4.977  16.470 -0.0211  0.0492 -0.0291
16661TIP3    H171398   3.595   4.900  16.455 -0.1111 -0.0789  0.2900
16661TIP3    H271399   3.564   5.007  16.557 -0.3755  0.0602  0.0684
16662TIP3   OH271400   4.435   1.325  17.338 -0.0191  0.1889  0.3949
16662TIP3    H171401   4.465   1.389  17.274 -0.0246  0.0138  0.2203
16662TIP3    H271402   4.341   1.315  17.321  0.0812 -0.2372  0.1035
16663TIP3   OH271403   0.755   4.252  14.151  0.1547  0.0513 -0.3955
16663TIP3    H171404   0.703   4.265  14.072 -0.1235 -0.7610 -0.3545
16663TIP3    H271405   0.712   4.179  14.197 -0.4692  1.3419  1.1672
16664TIP3   OH271406   5.074   2.529  12.271  0.0350 -0.0671 -0.1711
16664TIP3    H171407   5.106   2.618  12.288  0.2718 -0.0355 -0.7559
16664TIP3    H271408   5.147   2.472  12.294 -0.4609 -0.2023  1.2065
16665TIP3   OH271409   4.933   2.423   1.294  0.1277 -0.1763  0.5980
16665TIP3    H171410   5.018   2.433   1.336  0.2340 -0.1050  0.3668
16665TIP3    H271411   4.911   2.330   1.307  1.8110 -1.1345 -2.2541
16666TIP3   OH271412   4.086   3.183  14.300 -0.7643  0.2518 -0.1005
16666TIP3    H171413   4.046   3.110  14.252  1.1338 -1.1463  0.3416
16666TIP3    H271414   4.012   3.240  14.322 -2.2682 -1.3444 -0.7553
16667TIP3   OH271415   6.319   4.323  15.405 -1.0504 -0.4580 -0.0991
16667TIP3    H171416   6.278   4.393  15.457  0.5067  1.4454 -1.2867
16667TIP3    H271417   6.288   4.339  15.316  0.6767 -0.1535 -0.6848
16668TIP3   OH271418   2.035   3.964   4.947 -0.4087 -0.3912  0.6101
16668TIP3    H171419   1.982   3.886   4.928 -1.3225  0.3520  0.0362
16668TIP3    H271420   2.069   3.991   4.862 -0.9143  0.4040  0.6501
16669TIP3   OH271421   4.369   1.732  13.943  0.3979 -0.4014 -0.3601
16669TIP3    H171422   4.359   1.680  14.023  0.6770  0.0950  0.0020
16669TIP3    H271423   4.363   1.823  13.972  2.5567 -0.1391 -0.5824
16670TIP3   OH271424   2.088   0.895   4.672  0.6048 -0.7246 -0.0689
16670TIP3    H171425   2.173   0.867   4.706  0.1987 -0.2392  1.4161
16670TIP3    H271426   2.109   0.948   4.595  1.8501  1.5642  1.7299
16671TIP3   OH271427   0.557   1.837  14.689  0.1689 -0.3389 -0.0353
16671TIP3    H171428   0.568   1.908  14.625 -1.6648  1.3570  1.4280
16671TIP3    H271429   0.551   1.758  14.635  1.5935  0.6629 -1.7628
16672TIP3   OH271430   5.273   0.070  14.385  0.1558 -0.3245  0.5135
16672TIP3    H171431   5.216   0.067  14.461 -0.4634 -0.1740  0.0654
16672TIP3    H271432   5.361   0.057  14.420  0.0656  1.2625  1.4552
16673TIP3   OH271433   2.778   5.355   2.866 -0.6583  0.1132 -0.5063
16673TIP3    H171434   2.836   5.280   2.855 -0.3741  0.4456 -1.3121
16673TIP3    H271435   2.691   5.317   2.876 -0.3355 -0.3831  0.6222
16674TIP3   OH271436   0.110   6.265   0.360 -0.3723  0.0827  0.1703
16674TIP3    H171437   0.054   6.341   0.371  0.1976  0.3764  1.0725
16674TIP3    H271438   0.059   6.192   0.395 -2.0135 -0.4872 -3.0099
16675TIP3   OH271439   1.617   2.008   0.031 -0.6609  0.2879  0.4903
16675TIP3    H171440   1.572   2.038  -0.048  1.7782 -0.0477 -1.1379
16675TIP3    H271441   1.555   1.949   0.073 -1.8887  0.1528 -1.4156
16676TIP3   OH271442   5.566   4.733   5.159 -0.2630 -0.0573 -0.0621
16676TIP3    H171443   5.577   4.719   5.253  0.2871  0.8687  0.0279
16676TIP3    H271444   5.596   4.652   5.118 -1.1796 -0.7346  0.5855
16677TIP3   OH271445   4.208   2.037  12.285  0.6814 -0.5202  0.0581
16677TIP3    H171446   4.266   1.990  12.344 -0.4589  0.3798  1.9852
16677TIP3    H271447   4.143   2.077  12.342 -1.1383 -0.4975 -1.9102
16678TIP3   OH271448   4.660   2.804   5.922  0.5820 -0.3439 -0.4627
16678TIP3    H171449   4.640   2.897   5.931 -1.7172 -0.6834 -1.2988
16678TIP3    H271450   4.704   2.797   5.837 -0.6415 -0.1790 -1.1284
16679TIP3   OH271451   5.969   0.032  12.409  0.3305 -0.4359  0.1403
16679TIP3    H171452   5.947   0.050  12.318  0.9049 -1.8734 -0.3217
16679TIP3    H271453   5.884   0.021  12.453  0.0166  1.4775  0.0875
16680TIP3   OH271454   6.246   3.049   1.536  0.3093 -0.6232 -0.1332
16680TIP3    H171455   6.299   2.971   1.520  1.3603 -0.1633  0.9170
16680TIP3    H271456   6.277   3.082   1.620  1.2417  1.9958 -1.3884
16681TIP3   OH271457   6.491   2.739  17.321 -0.2264  0.2821 -0.0108
16681TIP3    H171458   6.581   2.720  17.292 -0.2988 -2.7203  1.4035
16681TIP3    H271459   6.436   2.694  17.256 -0.6238  0.1454  0.4202
16682TIP3   OH271460   2.872   2.498   1.147  0.3320 -0.8420 -0.5100
16682TIP3    H171461   2.916   2.437   1.088 -0.6295 -2.2468  0.1552
16682TIP3    H271462   2.916   2.487   1.231 -0.2332 -1.0714 -0.2389
16683TIP3   OH271463   4.208   6.525   4.004 -0.1710  0.0226 -0.5199
16683TIP3    H171464   4.258   6.443   4.012 -0.4348  0.0394  2.0440
16683TIP3    H271465   4.122   6.504   4.042 -0.9585  0.9530 -1.7307
16684TIP3   OH271466   3.343   6.750  12.012  0.5515 -0.7120 -0.2001
16684TIP3    H171467   3.309   6.839  12.018  0.8615 -0.6876  2.0218
16684TIP3    H271468   3.267   6.694  12.028  0.8287 -0.7469  1.1083
16685TIP3   OH271469   4.010   1.405  11.701 -0.3959 -0.6336  0.2399
16685TIP3    H171470   4.075   1.347  11.661  0.1145  0.0911 -0.0219
16685TIP3    H271471   4.024   1.489  11.657 -2.3653 -0.7619 -0.7236
16686TIP3   OH271472   3.011   5.376  14.242  0.3616 -0.6221 -0.3452
16686TIP3    H171473   3.039   5.327  14.319  0.0754 -0.0945  0.1011
16686TIP3    H271474   2.953   5.444  14.276  0.1214 -0.4647 -1.0408
16687TIP3   OH271475   3.859   0.449   6.348 -0.2746 -0.2351  0.2159
16687TIP3    H171476   3.822   0.404   6.425  1.3986 -0.5366  0.8834
16687TIP3    H271477   3.952   0.460   6.369 -0.5820  3.8358  0.2602
16688TIP3   OH271478   4.452   5.263   3.631  0.1228 -0.7477  0.1566
16688TIP3    H171479   4.361   5.287   3.617 -0.2112 -2.3486 -0.7104
16688TIP3    H271480   4.495   5.281   3.547  0.3568 -0.9947  0.2215
16689TIP3   OH271481   0.213   6.290  12.359  0.2666  0.9255  0.0284
16689TIP3    H171482   0.119   6.296  12.342 -0.0422 -0.0974  1.2264
16689TIP3    H271483   0.239   6.380  12.380 -0.6543  1.0623  0.6550
16690TIP3   OH271484   5.758   0.362  13.560  0.3406  0.3107 -0.4773
16690TIP3    H171485   5.782   0.423  13.491  2.2749 -0.7372 -0.7949
16690TIP3    H271486   5.840   0.342  13.605 -0.3767 -1.3010  0.2243
16691TIP3   OH271487   1.842   5.298  10.806 -0.9268  0.0649  0.1212
16691TIP3    H171488   1.834   5.380  10.854 -0.0610  0.6589 -0.7140
16691TIP3    H271489   1.928   5.302  10.765 -1.5850 -0.4615 -1.3970
16692TIP3   OH271490   1.211   4.057   6.322 -0.2543 -0.2945 -0.0223
16692TIP3    H171491   1.128   4.073   6.366  0.1086 -1.9628  1.4081
16692TIP3    H271492   1.276   4.055   6.393  0.9418  0.5383 -1.0574
16693TIP3   OH271493   3.823   3.778   2.395 -0.0532 -0.2820 -0.7456
16693TIP3    H171494   3.835   3.866   2.429  0.8563 -0.3820 -0.8015
16693TIP3    H271495   3.756   3.788   2.327 -0.2148  0.2978 -0.5103
16694TIP3   OH271496   1.802   5.726   0.792 -0.2864 -0.0433  0.6309
16694TIP3    H171497   1.878   5.688   0.749  0.6742  0.3126  1.9605
16694TIP3    H271498   1.740   5.653   0.800  1.0705 -1.0971  2.1004
16695TIP3   OH271499   3.828   0.314  13.416  0.4953  0.4764 -0.7363
16695TIP3    H171500   3.753   0.375  13.422 -0.1935 -0.3836 -0.4201
16695TIP3    H271501   3.811   0.263  13.337  1.6850  1.4594 -1.6735
16696TIP3   OH271502   2.142   3.213   5.813  0.2873  0.1839 -0.1491
16696TIP3    H171503   2.198   3.207   5.890  0.4235  0.6815 -0.2027
16696TIP3    H271504   2.122   3.307   5.805 -1.6619 -0.1227  0.6634
16697TIP3   OH271505   0.279   0.159  15.621 -0.3295 -0.2301  0.0852
16697TIP3    H171506   0.233   0.128  15.543  1.2895 -0.1676 -0.9395
16697TIP3    H271507   0.327   0.236  15.592 -0.3379  0.2793  1.3629
16698TIP3   OH271508   2.339   1.715   4.026  0.7213 -0.2888 -0.3872
16698TIP3    H171509   2.340   1.625   4.059  2.8373 -0.4708 -0.8059
16698TIP3    H271510   2.299   1.766   4.096  2.9031 -1.0144  1.5001
16699TIP3   OH271511   3.304   6.320   2.740 -0.2380  0.0707  0.1920
16699TIP3    H171512   3.344   6.401   2.708 -1.1188  0.5806  0.3204
16699TIP3    H271513   3.360   6.250   2.708 -0.3219  0.6470 -1.2766
16700TIP3   OH271514   0.850   1.838  16.259  0.2597 -0.4569  0.2386
16700TIP3    H171515   0.840   1.933  16.259  0.5068 -0.4278  0.3184
16700TIP3    H271516   0.893   1.818  16.176  0.0016 -0.5233  0.1211
16701TIP3   OH271517   3.864   4.640  12.128 -0.3182 -0.3220  0.3377
16701TIP3    H171518   3.783   4.647  12.078  0.3706 -0.3095 -0.8089
16701TIP3    H271519   3.885   4.547  12.127  0.6096 -0.1151 -0.9085
16702TIP3   OH271520   3.645   4.588  17.149  0.9344 -0.0366  0.0038
16702TIP3    H171521   3.668   4.547  17.233  4.7945  0.2700 -0.7343
16702TIP3    H271522   3.646   4.682  17.168 -2.6258  0.0379  0.4754
16703TIP3   OH271523   1.543   2.569  12.915 -0.2726 -0.2271  0.3791
16703TIP3    H171524   1.541   2.491  12.970 -1.2248 -1.5468 -1.4452
16703TIP3    H271525   1.454   2.602  12.916  0.1231  0.8881  1.1427
16704TIP3   OH271526   4.379   1.952   1.578 -0.5012 -0.0508  1.3856
16704TIP3    H171527   4.365   1.903   1.659 -0.2393 -0.7872  0.9930
16704TIP3    H271528   4.474   1.950   1.565 -0.4973  0.4863  1.3187
16705TIP3   OH271529   2.098   4.521   5.193 -0.4361 -1.1076  0.0205
16705TIP3    H171530   2.024   4.582   5.206 -0.4788 -1.3897  1.1573
16705TIP3    H271531   2.175   4.577   5.197 -0.5466 -0.9197 -0.4088
16706TIP3   OH271532   4.364   6.173   1.278  0.4807 -0.6492 -0.3856
16706TIP3    H171533   4.460   6.167   1.287  1.0845  4.5698 -0.6160
16706TIP3    H271534   4.335   6.222   1.354 -1.7826 -0.6402 -1.1786
16707TIP3   OH271535   1.723   2.199   4.892  0.0476 -0.6366 -0.1332
16707TIP3    H171536   1.760   2.275   4.935  0.8139 -0.0794 -1.7202
16707TIP3    H271537   1.799   2.149   4.861 -0.4713 -0.8133 -1.1675
16708TIP3   OH271538   5.607   3.014  11.900 -0.4704  0.3399  0.1763
16708TIP3    H171539   5.602   2.935  11.846 -1.4985  0.6396 -0.1841
16708TIP3    H271540   5.626   2.981  11.988 -0.7811 -0.3033  0.0080
16709TIP3   OH271541   5.677   4.458  14.492  0.3325 -0.6638  0.6961
16709TIP3    H171542   5.769   4.484  14.495  0.5100 -1.2676  0.5997
16709TIP3    H271543   5.633   4.529  14.446  0.5942  0.0746  1.5391
16710TIP3   OH271544   6.579   2.384   2.089 -0.1516 -0.7789  0.3788
16710TIP3    H171545   6.579   2.352   2.180  1.7788  0.0358  0.6986
16710TIP3    H271546   6.602   2.476   2.097 -0.6349 -0.5313 -0.9211
16711TIP3   OH271547   2.117   3.455  15.220 -0.4924  0.2674 -0.0089
16711TIP3    H171548   2.111   3.463  15.125 -0.4823  0.9686  0.0441
16711TIP3    H271549   2.208   3.478  15.241 -0.7649  1.1540  0.2580
16712TIP3   OH271550   0.407   0.480   2.291 -0.3244 -1.0606  0.6271
16712TIP3    H171551   0.426   0.387   2.283 -2.5596 -1.4291 -1.3586
16712TIP3    H271552   0.325   0.484   2.339 -2.3527 -0.4683 -2.5845
16713TIP3   OH271553   1.678   5.717  13.224 -0.3491  0.0989  0.2570
16713TIP3    H171554   1.678   5.693  13.131 -0.7013 -1.1314  0.5587
16713TIP3    H271555   1.724   5.801  13.227  0.7809 -0.4492 -0.8739
16714TIP3   OH271556   6.068   2.301   5.728  0.4211 -0.0733  0.1826
16714TIP3    H171557   6.024   2.259   5.653  0.5831 -0.1815  0.1473
16714TIP3    H271558   6.150   2.252   5.738  2.0509  2.0574 -1.7139
16715TIP3   OH271559   4.734   0.803  14.907  0.5168  0.2633  0.0636
16715TIP3    H171560   4.815   0.854  14.906  0.5364  0.2349  0.1925
16715TIP3    H271561   4.680   0.844  14.974  0.8690 -0.4061  0.7727
16716TIP3   OH271562   4.861   0.746  15.478 -0.2716  0.0125 -0.1751
16716TIP3    H171563   4.776   0.712  15.507 -0.5066  1.8979  1.5346
16716TIP3    H271564   4.920   0.731  15.552  1.0941 -1.7628 -1.5388
16717TIP3   OH271565   5.258   4.581   4.866  0.3324 -0.0883  0.3164
16717TIP3    H171566   5.167   4.561   4.841  0.5539  0.1735 -0.7419
16717TIP3    H271567   5.260   4.676   4.875  1.0324  0.1927 -2.0453
16718TIP3   OH271568   5.871   0.953   2.967  0.0406 -0.0132  0.4476
16718TIP3    H171569   5.813   0.926   2.896  1.2782  0.1268 -0.6540
16718TIP3    H271570   5.957   0.917   2.944  0.9697  1.8924  0.6866
16719TIP3   OH271571   4.309   4.562  16.772  0.1144  0.4887 -0.5984
16719TIP3    H171572   4.313   4.489  16.834  2.2462  0.4858 -0.6747
16719TIP3    H271573   4.224   4.553  16.730 -0.4229 -0.8734  0.6739
16720TIP3   OH271574   4.804   6.017  13.199 -0.2115 -0.4629 -0.3031
16720TIP3    H171575   4.880   5.965  13.226  0.9896  1.1143 -0.4271
16720TIP3    H271576   4.764   6.045  13.282  0.7815  0.6322 -0.1568
16721TIP3   OH271577   0.265   1.089   6.444  0.4842 -0.3031 -0.2891
16721TIP3    H171578   0.309   1.065   6.525 -0.7656 -0.2225  0.4280
16721TIP3    H271579   0.318   1.048   6.375  2.5900  1.0910  0.3933
16722TIP3   OH271580   6.032   0.644   3.254  0.5218 -0.7004 -0.0823
16722TIP3    H171581   6.070   0.688   3.178 -1.4608 -1.2745 -1.4925
16722TIP3    H271582   6.106   0.633   3.314  2.2752 -0.5330 -2.0512
16723TIP3   OH271583   4.391   1.023  12.285  0.5160  0.5166 -0.1132
16723TIP3    H171584   4.425   1.113  12.287  1.1356  0.2707  0.9583
16723TIP3    H271585   4.329   1.023  12.212  0.8971  1.6733 -0.4643
16724TIP3   OH271586   0.112   5.085   4.011 -0.0709 -0.1481 -0.2713
16724TIP3    H171587   0.031   5.054   4.052 -0.0593  1.4368  1.0450
16724TIP3    H271588   0.159   5.005   3.986  0.1209 -1.2674  3.1908
16725TIP3   OH271589   3.204   2.812  13.609  0.4277  0.2041  0.0426
16725TIP3    H171590   3.276   2.866  13.642  1.6661 -0.1829 -1.8984
16725TIP3    H271591   3.245   2.753  13.546 -1.3665 -1.0824  0.0057
16726TIP3   OH271592   1.580   3.199  12.157 -0.5685  0.3905 -0.7408
16726TIP3    H171593   1.622   3.252  12.089 -0.6308  0.5484 -0.6563
16726TIP3    H271594   1.580   3.110  12.121  1.3488  0.0696 -0.0649
16727TIP3   OH271595   5.461   5.384   5.837 -0.1261  0.3143  0.2760
16727TIP3    H171596   5.533   5.321   5.847  0.7585  1.4253  1.2182
16727TIP3    H271597   5.412   5.377   5.919  0.3748  1.3018  0.6727
16728TIP3   OH271598   6.532   5.898   1.595  0.2996 -0.4599  0.3966
16728TIP3    H171599   6.593   5.927   1.662  0.6391 -0.0365 -0.0892
16728TIP3    H271600   6.449   5.886   1.641  0.7619 -1.1178  1.0749
16729TIP3   OH271601   2.730   1.258   1.561  0.0114  0.5843  0.7310
16729TIP3    H171602   2.704   1.326   1.624  0.1827  0.1793  1.2457
16729TIP3    H271603   2.732   1.177   1.612 -0.9746  0.0469 -0.0589
16730TIP3   OH271604   4.352   3.955   4.374 -0.5198 -0.2591 -0.3877
16730TIP3    H171605   4.297   3.961   4.296  0.8721  1.5458 -1.3027
16730TIP3    H271606   4.383   4.045   4.389 -0.2272 -0.6672  1.8775
16731TIP3   OH271607   0.112   0.583   3.831  0.6056  0.0399  0.3673
16731TIP3    H171608   0.140   0.623   3.913 -1.9187  2.0637  0.3804
16731TIP3    H271609   0.128   0.650   3.764  0.6217 -0.7412 -0.4371
16732TIP3   OH271610   0.589   6.534  16.226  0.6291 -0.1008 -0.5612
16732TIP3    H171611   0.583   6.584  16.307  0.6667 -0.0015 -0.6190
16732TIP3    H271612   0.530   6.459  16.239 -1.7328  1.4429 -1.5427
16733TIP3   OH271613   4.056   2.908   6.201  0.0824  0.6209 -0.5370
16733TIP3    H171614   4.076   2.934   6.291 -0.9725  2.4960 -0.7681
16733TIP3    H271615   4.061   2.990   6.151 -2.4324  0.2472 -1.5717
16734TIP3   OH271616   6.566   0.609  15.044  0.9541 -0.1748  0.2507
16734TIP3    H171617   6.648   0.651  15.070  0.1016 -0.1965  3.2884
16734TIP3    H271618   6.507   0.682  15.024  1.1477 -0.1189 -0.1363
16735TIP3   OH271619   5.070   6.037  11.709 -0.3767  0.3709 -0.2301
16735TIP3    H171620   5.143   5.979  11.689 -1.6013 -0.7575 -1.6310
16735TIP3    H271621   5.042   6.010  11.797 -0.6009 -0.8483 -0.6547
16736TIP3   OH271622   5.805   3.985   1.102  0.1654  0.1756 -0.1573
16736TIP3    H171623   5.743   3.966   1.172 -1.2198 -2.1464 -1.8824
16736TIP3    H271624   5.776   4.070   1.068 -2.1270 -0.8052 -0.8644
16737TIP3   OH271625   1.387   5.352  11.308 -0.7020  0.2443  0.6149
16737TIP3    H171626   1.409   5.392  11.392  0.8276  1.9572 -0.5034
16737TIP3    H271627   1.426   5.411  11.243 -1.1093 -1.4522 -1.2730
16738TIP3   OH271628   6.482   0.996   2.359 -0.0024  0.2724 -0.0050
16738TIP3    H171629   6.439   1.081   2.366  0.1618  0.4534 -1.0176
16738TIP3    H271630   6.533   1.002   2.279 -0.3962 -0.9615 -0.3682
16739TIP3   OH271631   5.701   0.879  11.961 -0.1822  0.2517 -0.4269
16739TIP3    H171632   5.704   0.792  11.921 -0.2253  0.2848 -0.5030
16739TIP3    H271633   5.623   0.879  12.015  1.2076 -0.6798  1.7007
16740TIP3   OH271634   0.832   0.581   2.934  0.5510 -0.0869 -0.0429
16740TIP3    H171635   0.920   0.612   2.952 -0.2757  2.0776  0.6258
16740TIP3    H271636   0.818   0.600   2.842  0.3961  0.6523  0.1283
16741TIP3   OH271637   3.742   1.515  13.286 -0.1094  0.2678 -0.7127
16741TIP3    H171638   3.786   1.575  13.347 -0.2869  0.5034 -0.8116
16741TIP3    H271639   3.651   1.514  13.316 -0.1202  0.0987 -0.7530
16742TIP3   OH271640   5.491   0.207  16.330  0.2791 -0.1372  0.6580
16742TIP3    H171641   5.445   0.125  16.313  0.5282 -0.0765 -0.3748
16742TIP3    H271642   5.569   0.203  16.274 -0.6697  1.6100 -0.9179
16743TIP3   OH271643   1.855   6.284  12.105  0.1075  0.0757  0.4019
16743TIP3    H171644   1.808   6.367  12.117 -0.5437 -0.2634  0.2616
16743TIP3    H271645   1.834   6.258  12.015  1.7259  0.6249 -0.1555
16744TIP3   OH271646   3.851   3.552  16.291  0.2567  0.3480 -0.3094
16744TIP3    H171647   3.856   3.458  16.272 -0.2007  0.0422  0.9561
16744TIP3    H271648   3.840   3.593  16.206 -2.5479 -1.0030 -0.7118
16745TIP3   OH271649   3.901   5.582   4.388 -0.1675 -0.0445  0.6978
16745TIP3    H171650   3.941   5.668   4.401 -1.3950  0.5772  0.5603
16745TIP3    H271651   3.817   5.588   4.433 -0.9908 -0.6054 -0.6984
16746TIP3   OH271652   2.762   0.265  11.411  0.5158 -0.1887 -0.2399
16746TIP3    H171653   2.674   0.257  11.448 -0.1746  1.8720 -1.2487
16746TIP3    H271654   2.765   0.197  11.344 -0.3698 -0.2462 -0.2407
16747TIP3   OH271655   5.071   2.758   3.672 -0.0105 -0.0449 -0.2418
16747TIP3    H171656   5.145   2.809   3.705 -0.1579 -0.7998  1.3034
16747TIP3    H271657   5.002   2.770   3.736 -0.6813 -0.6951 -0.8140
16748TIP3   OH271658   1.797   1.691  16.908  0.2092 -0.4470  0.6876
16748TIP3    H171659   1.734   1.745  16.956 -0.3141 -0.4273 -0.0021
16748TIP3    H271660   1.786   1.603  16.946 -2.2055 -1.0750 -1.1706
16749TIP3   OH271661   4.093   1.901   5.843  0.0889  0.5165 -0.3392
16749TIP3    H171662   4.124   1.830   5.786 -2.4137 -2.5308  1.7286
16749TIP3    H271663   4.030   1.949   5.790 -0.1439 -0.4822 -0.9951
16750TIP3   OH271664   5.505   3.519   0.004 -0.4399 -0.2620 -0.1270
16750TIP3    H171665   5.575   3.490  -0.054  1.4733 -1.8638  2.7576
16750TIP3    H271666   5.442   3.446   0.003  0.1117 -0.7518  0.5976
16751TIP3   OH271667   2.982   2.188  14.114  0.6503 -0.3840 -0.3074
16751TIP3    H171668   2.977   2.112  14.057  1.5071 -0.6047 -0.0960
16751TIP3    H271669   2.933   2.163  14.192 -1.5772  0.3450 -1.3675
16752TIP3   OH271670   4.647   4.900   0.702 -0.1042  0.2133  0.0156
16752TIP3    H171671   4.623   4.841   0.630  1.8045  0.6787 -1.0546
16752TIP3    H271672   4.725   4.861   0.740 -0.1003  0.8993  0.7437
16753TIP3   OH271673   6.162   0.637   1.143 -0.1900 -1.0400 -0.6779
16753TIP3    H171674   6.158   0.719   1.193 -1.0362 -0.4093 -1.7371
16753TIP3    H271675   6.173   0.569   1.210  0.6378 -0.0656  0.2180
16754TIP3   OH271676   0.161   2.396  14.698 -0.6365  0.2469  0.5221
16754TIP3    H171677   0.136   2.483  14.728 -1.8854 -0.1860  0.8000
16754TIP3    H271678   0.186   2.349  14.777  0.8757  0.5911  0.2766
16755TIP3   OH271679   2.082   1.902   6.098  0.2943  0.6455 -0.1130
16755TIP3    H171680   2.177   1.899   6.102  0.2958 -0.5719 -0.5569
16755TIP3    H271681   2.055   1.810   6.097 -0.9023  0.9726  0.3230
16756TIP3   OH271682   1.127   5.782  17.015 -0.2685  0.8324 -0.3971
16756TIP3    H171683   1.056   5.719  17.025 -1.0580  2.0572  2.6737
16756TIP3    H271684   1.098   5.841  16.945 -0.3295 -1.0122 -2.0173
16757TIP3   OH271685   2.098   4.898  16.975  0.5237  0.6137 -0.2724
16757TIP3    H171686   2.165   4.888  16.908  1.6002  1.2379  0.6839
16757TIP3    H271687   2.033   4.956  16.936  0.4953 -0.0263 -1.2211
16758TIP3   OH271688   1.332   5.604  14.372 -0.0042  0.6065  0.6451
16758TIP3    H171689   1.285   5.595  14.455  0.1472 -0.0376  0.6718
16758TIP3    H271690   1.263   5.615  14.306 -0.1356  0.8949  0.8309
16759TIP3   OH271691   3.661   3.658  16.780 -0.2045  0.3951 -0.3939
16759TIP3    H171692   3.741   3.646  16.727 -0.3616  0.6776 -0.7000
16759TIP3    H271693   3.611   3.578  16.765  0.6802 -0.4486  0.9730
16760TIP3   OH271694   2.917   2.763   2.855  0.4980 -0.1286 -0.0799
16760TIP3    H171695   2.970   2.833   2.817  1.6697  0.4800  2.4523
16760TIP3    H271696   2.827   2.787   2.833  0.8682  2.2043  0.6071
16761TIP3   OH271697   5.228   1.067  12.315  0.0464 -0.0545 -0.5598
16761TIP3    H171698   5.195   1.003  12.378 -1.9399  1.5959  0.1879
16761TIP3    H271699   5.211   1.028  12.230  2.4078 -2.1435 -0.2141
16762TIP3   OH271700   0.419   4.858   5.221  0.2660 -0.3915 -0.0600
16762TIP3    H171701   0.477   4.786   5.196 -0.1485 -0.8961  0.4049
16762TIP3    H271702   0.472   4.937   5.209  1.3809 -0.9007  1.2773
16763TIP3   OH271703   2.998   4.936  16.802 -0.4252  0.0107 -0.2417
16763TIP3    H171704   2.990   4.941  16.897  1.2917  1.0146 -0.1106
16763TIP3    H271705   2.945   5.008  16.769 -0.5510  0.0169 -0.0232
16764TIP3   OH271706   2.500   6.452   1.218 -0.2231  0.3399 -0.5638
16764TIP3    H171707   2.408   6.454   1.242 -0.2477  0.3530 -0.6576
16764TIP3    H271708   2.509   6.375   1.162 -0.5313  1.2664 -1.9467
16765TIP3   OH271709   0.325   2.766  12.743 -0.1348  0.1266  0.1279
16765TIP3    H171710   0.322   2.839  12.680  0.1881  0.7619  0.8314
16765TIP3    H271711   0.276   2.797  12.819  0.8802  0.0240  0.8466
16766TIP3   OH271712   0.960   6.511  11.996  0.2708 -0.5943 -0.6256
16766TIP3    H171713   1.021   6.565  11.945  1.2786  0.5028  1.6160
16766TIP3    H271714   0.904   6.574  12.041  1.9673 -1.2101  2.6514
16767TIP3   OH271715   1.188   6.426   0.789  0.0606 -0.4958  0.3707
16767TIP3    H171716   1.273   6.441   0.747 -0.9959  0.4497 -1.5168
16767TIP3    H271717   1.128   6.486   0.746 -1.0655  0.9123  3.6000
16768TIP3   OH271718   4.980   4.638   2.934 -0.4686  0.3861  0.4210
16768TIP3    H171719   4.944   4.602   3.015  0.4257  0.4022  0.8350
16768TIP3    H271720   5.068   4.666   2.958 -0.7104  1.7304 -0.1966
16769TIP3   OH271721   4.889   3.529  14.883  0.6342  0.0276  0.0323
16769TIP3    H171722   4.900   3.531  14.788 -0.7405  0.7261 -0.1267
16769TIP3    H271723   4.927   3.445  14.909 -0.5272 -0.9662 -1.3438
16770TIP3   OH271724   3.087   2.733  15.432 -0.2386 -0.1989 -0.2783
16770TIP3    H171725   3.004   2.706  15.472  0.3029 -0.0534  0.9972
16770TIP3    H271726   3.131   2.783  15.500 -0.6725  3.0209 -2.1180
16771TIP3   OH271727   6.522   3.094   3.868 -0.4509  0.4806  0.3574
16771TIP3    H171728   6.586   3.157   3.836  0.8537 -1.6585 -1.5015
16771TIP3    H271729   6.439   3.121   3.828 -0.4155  2.2164  1.3526
16772TIP3   OH271730   3.878   6.575  15.290  0.5029 -0.2577 -0.1083
16772TIP3    H171731   3.933   6.510  15.247 -1.4286 -1.8304 -0.3509
16772TIP3    H271732   3.866   6.643  15.224  0.4584 -0.9300 -0.8140
16773TIP3   OH271733   5.292   3.608   4.990 -0.5102  0.1785 -0.6543
16773TIP3    H171734   5.275   3.624   5.083  1.4693 -0.6989 -0.0919
16773TIP3    H271735   5.292   3.513   4.981 -0.2137  0.2440 -1.4580
16774TIP3   OH271736   3.226   3.587   2.949  0.2399  0.3459  0.4657
16774TIP3    H171737   3.254   3.674   2.922 -0.9474  1.1224  1.5821
16774TIP3    H271738   3.170   3.557   2.878  0.4391  0.6106  0.1963
16775TIP3   OH271739   4.618   5.326   0.560 -0.1610  0.0463  0.3068
16775TIP3    H171740   4.545   5.265   0.546  0.1502  0.0664 -1.6840
16775TIP3    H271741   4.689   5.272   0.593 -0.6533 -0.2096  0.9647
16776TIP3   OH271742   6.114   3.595   1.592 -0.1349  0.2119  0.2502
16776TIP3    H171743   6.208   3.592   1.574 -0.2667 -0.2783 -0.3745
16776TIP3    H271744   6.080   3.658   1.529 -0.4371 -0.7104 -0.5301
16777TIP3   OH271745   2.080   3.695   4.241  0.3993  0.9078 -0.0162
16777TIP3    H171746   2.072   3.646   4.158 -3.6363 -1.1954  1.3551
16777TIP3    H271747   2.110   3.629   4.304  2.2678  2.1930  0.5053
16778TIP3   OH271748   5.871   0.029  14.882  0.4655 -0.8882 -0.0683
16778TIP3    H171749   5.796   0.088  14.874  0.8785 -0.2259  0.8551
16778TIP3    H271750   5.906   0.022  14.793 -0.5965 -1.0940 -0.4830
16779TIP3   OH271751   5.626   3.008  14.287 -0.4224 -0.3061 -0.7106
16779TIP3    H171752   5.656   2.918  14.278 -0.4272 -0.0984 -3.6672
16779TIP3    H271753   5.699   3.061  14.254 -1.3331  0.6070 -1.3138
16780TIP3   OH271754   5.578   6.726  15.665  0.1193  0.6629 -0.2342
16780TIP3    H171755   5.530   6.768  15.737 -0.2073  1.5112 -0.9289
16780TIP3    H271756   5.566   6.785  15.590 -0.9297 -0.9847 -1.4371
16781TIP3   OH271757   6.059   0.249  11.070  0.1847  0.7827  0.0755
16781TIP3    H171758   6.099   0.198  11.141  0.2110 -0.4623 -0.7859
16781TIP3    H271759   6.089   0.205  10.991  1.1293  2.8724 -0.7734
16782TIP3   OH271760   0.361   1.179  10.472  0.5840 -0.0761 -0.2547
16782TIP3    H171761   0.306   1.131  10.534  0.4850 -4.7673 -3.4665
16782TIP3    H271762   0.301   1.237  10.426 -0.3507 -0.3487  0.5892
16783TIP3   OH271763   4.996   2.995   4.498 -0.4252  0.2094 -0.3657
16783TIP3    H171764   4.971   2.992   4.590  2.1443 -0.4110  0.3974
16783TIP3    H271765   4.999   3.088   4.476 -0.1275  0.3933  0.4454
16784TIP3   OH271766   5.015   2.919  14.320  0.1878  0.3816  0.1159
16784TIP3    H171767   4.973   2.987  14.373 -2.0241 -2.9261  3.0149
16784TIP3    H271768   5.051   2.858  14.384 -0.1334 -2.4700 -2.2426
16785TIP3   OH271769   5.479   4.080  13.421 -0.0113  0.0276 -0.1612
16785TIP3    H171770   5.406   4.140  13.406 -0.0728  0.3067  1.1345
16785TIP3    H271771   5.445   3.994  13.395  0.1732  0.5544 -2.2855
16786TIP3   OH271772   4.556   4.695  13.565  0.3701 -0.0072  0.2748
16786TIP3    H171773   4.518   4.644  13.637  2.6927 -0.6308  1.1585
16786TIP3    H271774   4.585   4.777  13.607 -0.2936  0.5998 -0.4372
16787TIP3   OH271775   4.324   0.358   1.578  0.4417  0.1727  0.6579
16787TIP3    H171776   4.355   0.273   1.611  0.2435 -0.9071 -1.7405
16787TIP3    H271777   4.238   0.370   1.619 -0.9174 -2.3213 -1.1833
16788TIP3   OH271778   3.939   0.414   4.996 -0.2446 -0.0170 -0.1166
16788TIP3    H171779   4.032   0.394   5.002 -0.0938  0.9652  2.1543
16788TIP3    H271780   3.935   0.498   4.951  0.1294  0.6463  1.0406
16789TIP3   OH271781   4.288   1.225   1.166 -0.3320 -0.2342 -0.4353
16789TIP3    H171782   4.306   1.311   1.204  3.2355 -0.7931 -0.4958
16789TIP3    H271783   4.235   1.243   1.089 -0.9083  1.7128  0.3524
16790TIP3   OH271784   2.604   0.455   0.423 -0.2503  0.3870 -0.2961
16790TIP3    H171785   2.554   0.388   0.376 -1.4392  1.0190  0.0327
16790TIP3    H271786   2.608   0.528   0.362 -0.2278  0.5535 -0.0938
16791TIP3   OH271787   4.250   5.104  11.141 -0.0581  0.1536 -0.4778
16791TIP3    H171788   4.177   5.043  11.134 -0.4452  0.6084 -0.4784
16791TIP3    H271789   4.223   5.179  11.087  0.7398  0.0070 -1.1034
16792TIP3   OH271790   6.371   3.114   0.692  0.1849  0.0576 -0.0696
16792TIP3    H171791   6.278   3.089   0.695 -0.5104  2.4751  0.4157
16792TIP3    H271792   6.410   3.071   0.768 -0.8507  0.1146  0.5101
16793TIP3   OH271793   1.088   5.287  14.610  0.4042 -0.2586 -0.8631
16793TIP3    H171794   1.121   5.236  14.684 -1.2545 -1.4705 -0.9086
16793TIP3    H271795   1.074   5.223  14.541 -1.2680  0.3115 -1.0842
16794TIP3   OH271796   4.216   0.889  12.628  0.3320  0.3050  0.0207
16794TIP3    H171797   4.151   0.901  12.559  0.3830 -0.5000 -0.1737
16794TIP3    H271798   4.200   0.800  12.661  2.0001 -0.3345 -0.7545
16795TIP3   OH271799   6.579   4.854  10.531 -0.0387 -0.2341  0.0963
16795TIP3    H171800   6.536   4.855  10.445 -1.6751  0.2324  0.8887
16795TIP3    H271801   6.650   4.918  10.523 -0.2110 -0.1501 -0.8870
16796TIP3   OH271802   1.818   2.372  16.863 -0.0774  0.1791  0.7273
16796TIP3    H171803   1.745   2.431  16.883 -0.6533  0.3451 -1.5789
16796TIP3    H271804   1.779   2.303  16.810  1.5474  0.8543 -1.5130
16797TIP3   OH271805   1.873   6.586   3.880  0.5072 -0.1165  0.2346
16797TIP3    H171806   1.922   6.606   3.800  0.0219 -1.8638 -0.5327
16797TIP3    H271807   1.785   6.621   3.864  0.1871 -1.1578 -0.3369
16798TIP3   OH271808   1.630   1.370  12.650 -0.7000 -0.1465  0.1196
16798TIP3    H171809   1.538   1.388  12.671 -0.7919  0.4321 -0.7052
16798TIP3    H271810   1.631   1.359  12.555 -0.0647 -1.1411  0.2347
16799TIP3   OH271811   4.264   6.433  11.418  0.8280 -0.3879  0.1155
16799TIP3    H171812   4.311   6.465  11.341 -0.8131 -0.5279 -0.9778
16799TIP3    H271813   4.314   6.468  11.492  1.2023  1.6009 -1.0154
16800TIP3   OH271814   6.532   2.005  13.542  0.9869 -0.1294  0.0408
16800TIP3    H171815   6.456   2.031  13.594 -1.7493  0.9773 -4.0000
16800TIP3    H271816   6.596   2.075  13.556 -0.7041  1.5045  0.0316
16801TIP3   OH271817   2.870   5.869   3.898 -0.1355 -0.4426  0.6851
16801TIP3    H171818   2.857   5.922   3.976 -0.0575 -0.8782  0.9973
16801TIP3    H271819   2.819   5.914   3.830  1.6163  1.2117  0.3968
16802TIP3   OH271820   4.562   3.107   1.968 -0.8473  0.0337 -0.4737
16802TIP3    H171821   4.567   3.150   1.882 -1.6703  1.6123  0.2235
16802TIP3    H271822   4.475   3.067   1.970 -1.9340  2.2697  0.5738
16803TIP3   OH271823   4.593   5.788  11.910  0.3089  0.5264  0.1325
16803TIP3    H171824   4.670   5.841  11.932  0.6379  1.2237 -2.3543
16803TIP3    H271825   4.519   5.849  11.918  0.3659  0.6379 -0.1761
16804TIP3   OH271826   3.586   0.553  16.804  0.6020  0.1380  0.2651
16804TIP3    H171827   3.651   0.581  16.740  0.4181  1.4602  0.6110
16804TIP3    H271828   3.631   0.560  16.888  0.4977 -0.4864  0.3713
16805TIP3   OH271829   1.088   2.167   4.440 -0.6563 -0.2730  0.5979
16805TIP3    H171830   1.027   2.199   4.506 -0.0292  2.3310  0.0275
16805TIP3    H271831   1.172   2.206   4.464  0.4626 -2.3602  0.3720
16806TIP3   OH271832   2.844   1.631   6.213 -0.0560  0.6719  0.4534
16806TIP3    H171833   2.843   1.570   6.287 -0.8994  0.8477  0.5875
16806TIP3    H271834   2.858   1.575   6.137  0.8550  0.4915  0.7304
16807TIP3   OH271835   4.610   3.274   2.170  0.1056  0.3703 -0.0451
16807TIP3    H171836   4.586   3.210   2.103 -1.1288 -0.1107  0.8116
16807TIP3    H271837   4.642   3.350   2.120  1.4886 -0.8394 -1.0738
16808TIP3   OH271838   5.949   2.941  16.500  0.2460  0.4886  0.8042
16808TIP3    H171839   5.872   2.973  16.454  0.3069 -0.1951  0.2150
16808TIP3    H271840   6.001   2.896  16.433  0.2340 -0.7082  1.5573
16809TIP3   OH271841   4.846   3.399  11.083  0.2776 -0.2676 -0.0732
16809TIP3    H171842   4.868   3.339  11.012  0.9229  0.9933 -0.9791
16809TIP3    H271843   4.891   3.364  11.160  0.6989 -0.8957 -0.6013
16810TIP3   OH271844   1.840   0.727  12.967 -0.3484 -0.1751 -0.4096
16810TIP3    H171845   1.930   0.755  12.954  0.0246 -1.5917 -1.0821
16810TIP3    H271846   1.809   0.779  13.041  0.2727  1.9668 -1.5425
16811TIP3   OH271847   0.142   3.035  17.220  0.0588  0.6130 -0.1997
16811TIP3    H171848   0.176   3.006  17.305  1.2247 -0.8488 -1.1202
16811TIP3    H271849   0.146   3.131  17.224  1.0573  0.5461  1.0042
16812TIP3   OH271850   2.609   1.219  16.151  0.3324 -0.4827  0.2218
16812TIP3    H171851   2.637   1.302  16.190  0.4137 -0.8835  1.0329
16812TIP3    H271852   2.664   1.210  16.073 -0.3348  0.6865 -0.4157
16813TIP3   OH271853   4.109   4.461  13.272 -0.2344 -0.3157 -0.5423
16813TIP3    H171854   4.197   4.456  13.234  0.6414  0.3791  1.2473
16813TIP3    H271855   4.057   4.400  13.220  1.8849 -2.6432 -0.1772
16814TIP3   OH271856   1.673   3.617   0.239 -0.0535 -0.7395 -0.3464
16814TIP3    H171857   1.623   3.567   0.304 -0.5053  1.7649  1.3523
16814TIP3    H271858   1.756   3.636   0.282 -0.0221  0.2251 -0.8029
16815TIP3   OH271859   4.632   0.343   5.338 -0.9514  0.1710 -0.2543
16815TIP3    H171860   4.685   0.423   5.336 -0.0871 -0.3470  0.7994
16815TIP3    H271861   4.600   0.334   5.248 -0.8046  1.5227 -0.4704
16816TIP3   OH271862   4.947   6.139  17.276  0.5939 -0.1976  0.1221
16816TIP3    H171863   4.976   6.088  17.200 -0.2793 -0.3506 -0.1099
16816TIP3    H271864   4.951   6.077  17.349  1.5340 -0.0221  0.2367
16817TIP3   OH271865   4.686   3.044   0.345 -0.3105  0.0181 -0.1650
16817TIP3    H171866   4.753   2.997   0.296 -1.3086 -1.9307  0.2417
16817TIP3    H271867   4.723   3.131   0.358  1.2010 -0.3081 -1.8314
16818TIP3   OH271868   2.295   4.941  12.032 -0.7273 -0.0311 -0.2249
16818TIP3    H171869   2.315   4.849  12.015 -1.0954  0.2342 -2.2909
16818TIP3    H271870   2.232   4.938  12.104 -0.4332 -1.3641  0.0082
16819TIP3   OH271871   2.665   1.097   3.130 -0.2187  0.1304  0.5541
16819TIP3    H171872   2.698   1.187   3.133  0.3084 -0.0880  1.6991
16819TIP3    H271873   2.738   1.046   3.095 -1.4378  0.5008 -2.8927
16820TIP3   OH271874   5.253   4.253   6.238  0.3592 -0.3846 -0.0230
16820TIP3    H171875   5.298   4.274   6.156 -1.0873  0.0034 -0.7622
16820TIP3    H271876   5.267   4.159   6.250 -0.1335 -0.6232 -1.1966
16821TIP3   OH271877   6.383   1.280  14.624 -0.0208 -0.4332  0.5295
16821TIP3    H171878   6.385   1.252  14.533 -1.1308 -0.1573  0.4055
16821TIP3    H271879   6.448   1.349  14.630 -2.1448  1.8537 -0.8734
16822TIP3   OH271880   6.138   1.927   1.221  0.1037  0.0612 -0.2951
16822TIP3    H171881   6.153   1.847   1.171  0.4745  0.0574 -0.1748
16822TIP3    H271882   6.206   1.987   1.193  1.7228 -0.6725  1.7859
16823TIP3   OH271883   5.795   2.903  16.085  0.1166 -0.0270  0.3357
16823TIP3    H171884   5.836   2.828  16.129 -1.7604 -0.3663  1.6215
16823TIP3    H271885   5.759   2.956  16.156 -0.4764  0.9564 -0.6680
16824TIP3   OH271886   6.561   2.587   2.679  0.2673 -0.0202  0.1775
16824TIP3    H171887   6.555   2.675   2.641 -0.3035 -0.3066 -0.3996
16824TIP3    H271888   6.550   2.601   2.773 -1.1011  0.3930 -0.0246
16825TIP3   OH271889   1.333   6.316  14.920 -0.0934 -0.2719 -0.1439
16825TIP3    H171890   1.344   6.245  14.856 -1.1724 -1.0092  0.4480
16825TIP3    H271891   1.249   6.298  14.961  0.7315 -0.0324  1.7589
16826TIP3   OH271892   1.068   6.767   1.762 -0.1606  0.2971  0.3363
16826TIP3    H171893   1.081   6.856   1.727 -0.8290  0.0359 -0.6031
16826TIP3    H271894   1.013   6.724   1.697 -1.2861 -0.2753  1.6427
16827TIP3   OH271895   3.028   4.903  11.122 -0.7736  0.0848  0.1992
16827TIP3    H171896   2.944   4.868  11.154 -2.2736  0.6130 -2.7742
16827TIP3    H271897   3.004   4.980  11.071  1.4198 -0.2418 -1.4838
16828TIP3   OH271898   6.703   6.303  15.030 -0.0719  0.1577  0.1570
16828TIP3    H171899   6.658   6.384  15.053  0.8550  1.0309 -0.9973
16828TIP3    H271900   6.670   6.280  14.944 -1.1136 -1.3182  0.8969
16829TIP3   OH271901   4.133   1.623   3.804 -0.1530 -0.3093  0.4497
16829TIP3    H171902   4.085   1.689   3.853 -0.6522 -1.1220  1.0849
16829TIP3    H271903   4.213   1.608   3.854  0.8954  1.1644 -0.6948
16830TIP3   OH271904   4.546   0.314  13.595  0.0383  0.2878 -0.0182
16830TIP3    H171905   4.636   0.329  13.623 -0.0761  2.6302 -0.6645
16830TIP3    H271906   4.546   0.334  13.501 -1.6088  3.2003  0.4581
16831TIP3   OH271907   6.649   3.924  16.467  0.4292 -0.3325 -0.2610
16831TIP3    H171908   6.557   3.950  16.469 -0.1549 -1.9856 -2.4988
16831TIP3    H271909   6.666   3.891  16.556 -0.0568  3.1134  1.2935
16832TIP3   OH271910   4.894   2.584  16.240 -0.1458  0.6481  0.8653
16832TIP3    H171911   4.942   2.630  16.309  0.6701  0.2948  0.5421
16832TIP3    H271912   4.959   2.568  16.172 -0.9765  1.1153 -0.0551
16833TIP3   OH271913   3.555   3.098  13.089  0.6309 -0.0516 -0.7545
16833TIP3    H171914   3.594   3.116  13.174 -0.0813  0.8593 -0.6077
16833TIP3    H271915   3.589   3.012  13.064  1.7245  0.1733 -0.0677
16834TIP3   OH271916   0.590   1.593   5.980  0.0024  0.0739 -0.0054
16834TIP3    H171917   0.665   1.627   6.028 -0.6094 -0.0034  1.0467
16834TIP3    H271918   0.593   1.638   5.895  0.0969  1.6065  0.7742
16835TIP3   OH271919   6.246   4.767  15.195  0.1769 -0.5419 -0.0823
16835TIP3    H171920   6.156   4.795  15.212 -0.2149 -1.0266 -1.2123
16835TIP3    H271921   6.298   4.808  15.264 -0.7428  0.7385 -0.1076
16836TIP3   OH271922   3.069   6.443   4.472 -0.5677  0.1533  0.5077
16836TIP3    H171923   3.094   6.492   4.393  1.2141  2.1405  2.1601
16836TIP3    H271924   3.150   6.436   4.522 -2.0565  1.2519  3.3136
16837TIP3   OH271925   3.412   3.942  16.251 -0.2184 -0.0475 -0.0950
16837TIP3    H171926   3.455   3.939  16.166  0.9605  1.2069  0.4203
16837TIP3    H271927   3.482   3.967  16.312 -0.9027 -1.4265  1.3370
16838TIP3   OH271928   5.444   2.880   0.415  0.2096  0.2747  0.2304
16838TIP3    H171929   5.412   2.859   0.503  0.2777 -2.4679 -0.3250
16838TIP3    H271930   5.537   2.900   0.427  0.3301 -0.5402  0.7404
16839TIP3   OH271931   4.493   2.160   2.563 -0.1578  0.3832 -0.2174
16839TIP3    H171932   4.549   2.178   2.487  1.7984 -0.2582  0.9990
16839TIP3    H271933   4.414   2.121   2.526  1.5275 -1.7256 -1.8485
16840TIP3   OH271934   0.704   5.068   4.389 -0.3942  0.4818  0.1826
16840TIP3    H171935   0.788   5.099   4.355  0.2586  0.9993  2.1137
16840TIP3    H271936   0.640   5.132   4.358  0.2708  1.2920  0.4335
16841TIP3   OH271937   3.380   0.215  15.539  0.1656  1.1229 -0.4237
16841TIP3    H171938   3.450   0.266  15.581  0.1276 -0.5992  1.9334
16841TIP3    H271939   3.299   0.259  15.564  0.2653  2.4975 -2.2751
16842TIP3   OH271940   5.239   5.110  13.967 -0.3689  0.1068 -0.4948
16842TIP3    H171941   5.333   5.093  13.958 -0.3704 -0.1736 -0.0157
16842TIP3    H271942   5.221   5.181  13.905  0.2233  0.3897 -0.3509
16843TIP3   OH271943   1.637   2.984   2.713 -0.3766 -0.2426 -0.3874
16843TIP3    H171944   1.604   2.940   2.792 -0.6331  1.1343  0.3134
16843TIP3    H271945   1.722   2.944   2.697  0.3033  0.3564  1.4116
16844TIP3   OH271946   3.584   0.176  14.281 -0.0413 -0.1218  0.1916
16844TIP3    H171947   3.615   0.085  14.278 -1.6953 -0.7030 -0.4184
16844TIP3    H271948   3.506   0.176  14.225  0.1690  1.7780 -0.1442
16845TIP3   OH271949   2.213   1.033  13.554 -0.5161  0.2063 -0.1971
16845TIP3    H171950   2.184   0.964  13.494  0.3298  1.3086 -1.9673
16845TIP3    H271951   2.281   1.079  13.506 -1.0067  2.2428  0.9507
16846TIP3   OH271952   5.463   3.732   2.772 -0.3238 -0.0415  0.3501
16846TIP3    H171953   5.446   3.673   2.845  0.2300 -1.1997 -0.4184
16846TIP3    H271954   5.391   3.795   2.774 -0.9136 -0.7276  1.2137
16847TIP3   OH271955   3.136   2.146   5.149 -0.0169 -0.0947  0.1217
16847TIP3    H171956   3.136   2.168   5.056  0.2063 -0.2300  0.0910
16847TIP3    H271957   3.130   2.231   5.193 -1.8981 -0.1136 -0.0347
16848TIP3   OH271958   4.426   1.804   1.163 -0.1544  0.1845  0.3662
16848TIP3    H171959   4.388   1.867   1.224  0.8256  0.3841  0.7825
16848TIP3    H271960   4.508   1.845   1.135 -0.3377 -0.1381 -0.6842
16849TIP3   OH271961   2.156   1.341   5.668  0.5692 -0.0735  0.3545
16849TIP3    H171962   2.230   1.343   5.728  1.6440 -0.1203 -0.9451
16849TIP3    H271963   2.156   1.427   5.626 -1.2830  0.6420  1.6848
16850TIP3   OH271964   3.935   4.266   1.415  0.0455 -0.6309 -0.0688
16850TIP3    H171965   3.920   4.303   1.328 -0.0802 -2.4495 -0.8643
16850TIP3    H271966   4.029   4.277   1.430  0.1562 -0.7323 -0.6530
16851TIP3   OH271967   6.492   0.915   5.380  0.5769  0.5705 -0.1429
16851TIP3    H171968   6.584   0.931   5.361  0.6803 -0.1997 -0.3090
16851TIP3    H271969   6.449   0.998   5.359  1.2554  1.0119  0.1612
16852TIP3   OH271970   5.627   2.595  13.724 -0.1296  0.1655  0.2451
16852TIP3    H171971   5.590   2.507  13.733  0.6282 -0.2392 -0.4517
16852TIP3    H271972   5.595   2.642  13.801 -1.7847 -0.2585 -0.1343
16853TIP3   OH271973   3.850   1.719  13.469 -0.0330  0.4698 -0.4070
16853TIP3    H171974   3.841   1.815  13.475  0.7150  0.4927  0.3624
16853TIP3    H271975   3.931   1.706  13.421  1.2089  0.2287  1.6815
16854TIP3   OH271976   2.816   4.785   5.651  0.1416  1.0379 -0.1352
16854TIP3    H171977   2.763   4.794   5.572 -0.3404  1.0503  0.1859
16854TIP3    H271978   2.896   4.834   5.631  0.0559  0.9792 -0.6410
16855TIP3   OH271979   5.630   0.461  13.922  0.5399 -0.2542 -1.1711
16855TIP3    H171980   5.697   0.475  13.990  1.9851 -1.4401 -2.2607
16855TIP3    H271981   5.620   0.546  13.880 -2.8219  1.4225  2.4932
16856TIP3   OH271982   3.960   4.970  10.975 -0.2848 -0.0308  0.4932
16856TIP3    H171983   3.998   5.056  10.957  0.3117 -0.5019 -0.5906
16856TIP3    H271984   3.867   4.980  10.954 -0.0326  0.0839 -0.6128
16857TIP3   OH271985   0.058   2.882  11.686  0.0463  0.3743  0.8330
16857TIP3    H171986  -0.027   2.866  11.725  0.1889 -0.9760  0.6175
16857TIP3    H271987   0.080   2.971  11.713 -0.8121  0.2455  2.0207
16858TIP3   OH271988   3.707   1.175  14.394 -0.3426  0.4183  0.3153
16858TIP3    H171989   3.740   1.214  14.475  0.2304 -0.1708  0.3748
16858TIP3    H271990   3.636   1.117  14.423  1.7638 -2.1397  0.8273
16859TIP3   OH271991   2.631   4.884   2.861 -0.3736 -0.1191 -0.9829
16859TIP3    H171992   2.725   4.871   2.851 -0.0506 -0.7542  1.9221
16859TIP3    H271993   2.595   4.795   2.859 -0.8791  0.0918 -1.5704
16860TIP3   OH271994   0.412   4.084  10.561 -0.1449  0.3189  0.0264
16860TIP3    H171995   0.370   4.106  10.478 -0.1623 -0.7471 -0.2720
16860TIP3    H271996   0.351   4.116  10.628 -1.3586 -0.9832 -0.3931
16861TIP3   OH271997   4.522   0.528   3.805  0.0391  0.3610  0.1367
16861TIP3    H171998   4.611   0.563   3.816 -0.3342  1.1031  0.9198
16861TIP3    H271999   4.479   0.591   3.746 -0.4369  0.8877  1.0286
16862TIP3   OH272000   4.726   4.881   0.304  0.0247 -0.4582 -0.2239
16862TIP3    H172001   4.714   4.809   0.366 -0.6814 -0.4507 -0.3484
16862TIP3    H272002   4.820   4.884   0.289  0.5133  0.8142  2.3734
16863TIP3   OH272003   4.796   5.359   4.594 -0.3043 -0.4563  0.1180
16863TIP3    H172004   4.788   5.265   4.610  1.4905 -0.1939  3.2026
16863TIP3    H272005   4.878   5.368   4.546  0.6527 -0.3563  1.7204
16864TIP3   OH272006   0.296   3.056  14.777  0.1548 -0.4923  0.0752
16864TIP3    H172007   0.325   2.972  14.811 -1.4206  0.1654  3.4328
16864TIP3    H272008   0.356   3.075  14.705  3.0822 -2.6474  1.7397
16865TIP3   OH272009   3.596   3.256  15.808 -0.4464 -0.4209  0.3062
16865TIP3    H172010   3.567   3.229  15.895  0.1548 -0.0852  0.6209
16865TIP3    H272011   3.537   3.211  15.748 -0.2696 -1.4292  0.8591
16866TIP3   OH272012   1.003   6.238   5.856 -0.0334  0.3507 -0.3130
16866TIP3    H172013   0.946   6.180   5.805  1.2043 -0.4732 -0.8223
16866TIP3    H272014   1.009   6.197   5.942  2.2714 -1.3721 -1.1908
16867TIP3   OH272015   4.663   3.502  15.741 -0.1179 -0.2633  0.1007
16867TIP3    H172016   4.670   3.541  15.828 -0.5292  2.9160 -1.1660
16867TIP3    H272017   4.754   3.487  15.714  0.3118  2.7992 -0.5073
16868TIP3   OH272018   3.694   5.443  12.873  0.0349 -0.4021 -0.4991
16868TIP3    H172019   3.744   5.387  12.933  0.8397 -1.8573 -2.4387
16868TIP3    H272020   3.745   5.524  12.869 -1.4814  0.9219  2.8501
16869TIP3   OH272021   6.675   3.940   3.479 -0.5657 -0.0388 -0.0685
16869TIP3    H172022   6.629   4.012   3.522 -0.3461 -0.3852  0.7677
16869TIP3    H272023   6.607   3.894   3.429 -0.4655  1.5424 -1.7670
16870TIP3   OH272024   4.654   1.441  15.578 -0.0868 -1.2054 -0.4317
16870TIP3    H172025   4.611   1.502  15.517  0.2870  1.2549  1.5946
16870TIP3    H272026   4.744   1.472  15.583  0.2596 -2.2931  0.2629
16871TIP3   OH272027   0.514   1.195  16.839  0.5420 -0.3421 -0.9396
16871TIP3    H172028   0.490   1.112  16.878  2.5823  0.0374  1.3242
16871TIP3    H272029   0.535   1.174  16.748 -0.9971 -1.8906 -0.9709
16872TIP3   OH272030   3.526   6.480  15.301  0.0119 -0.1122  0.6122
16872TIP3    H172031   3.551   6.389  15.319  0.1583 -0.2989 -0.4811
16872TIP3    H272032   3.609   6.527  15.293 -0.0157 -0.2550 -0.6378
16873TIP3   OH272033   1.763   1.658   5.647  0.4219 -0.0458  0.0651
16873TIP3    H172034   1.715   1.738   5.627 -0.4357 -0.6027 -0.1217
16873TIP3    H272035   1.773   1.660   5.743 -2.4841 -1.2885  0.4888
16874TIP3   OH272036   0.969   6.424   6.510  0.1370 -0.8070 -0.0758
16874TIP3    H172037   0.906   6.364   6.549 -0.4375  0.0318  0.3225
16874TIP3    H272038   1.054   6.387   6.532 -0.1999 -1.2564  0.5197
16875TIP3   OH272039   5.370   0.973   3.038  0.6652 -0.4430 -0.3741
16875TIP3    H172040   5.352   0.882   3.058  2.3784 -1.5890 -3.4172
16875TIP3    H272041   5.464   0.984   3.056  0.8411  0.2094 -1.5922
16876TIP3   OH272042   4.272   4.457   3.506  0.2219 -0.0847  0.2691
16876TIP3    H172043   4.192   4.416   3.475  0.8917 -0.3037 -1.2646
16876TIP3    H272044   4.265   4.548   3.476  0.9730 -0.3529 -0.7892
16877TIP3   OH272045   0.324   3.798   5.868  0.2853  0.4174 -0.3975
16877TIP3    H172046   0.296   3.857   5.798 -1.1727  2.8156  2.0070
16877TIP3    H272047   0.419   3.810   5.873  0.4178  0.2170 -1.8597
16878TIP3   OH272048   1.428   1.156   0.903  0.2109  0.0373 -0.7447
16878TIP3    H172049   1.441   1.231   0.961  0.2798  0.8455 -1.7851
16878TIP3    H272050   1.513   1.112   0.902  0.0181 -0.4025  0.3049
16879TIP3   OH272051   4.820   4.174  12.652  0.3355  0.2265 -0.5357
16879TIP3    H172052   4.830   4.079  12.651 -1.5386 -0.0464  1.0417
16879TIP3    H272053   4.895   4.206  12.701  0.5565 -0.5212 -0.3803
16880TIP3   OH272054   5.530   6.413  14.028  0.0950 -0.0260 -0.2681
16880TIP3    H172055   5.544   6.415  14.123  1.7355 -1.3114 -0.4506
16880TIP3    H272056   5.443   6.451  14.017  0.5755  1.8647  1.5892
16881TIP3   OH272057   5.095   5.986  14.459  0.6013  0.0748 -0.1403
16881TIP3    H172058   5.045   5.905  14.449  0.1091  0.2020  1.0466
16881TIP3    H272059   5.081   6.033  14.377  0.8458 -1.0114 -0.8178
16882TIP3   OH272060   6.189   1.536   2.313 -0.3444  0.2129 -0.2406
16882TIP3    H172061   6.269   1.567   2.355 -1.3193  2.0820  0.3508
16882TIP3    H272062   6.201   1.557   2.220  0.8234 -1.7703 -0.6015
16883TIP3   OH272063   1.531   0.129   0.549 -0.3543  0.1773  0.0604
16883TIP3    H172064   1.587   0.141   0.626 -1.1044 -0.0976  0.6579
16883TIP3    H272065   1.533   0.214   0.504  1.9121 -0.2980 -0.8930
16884TIP3   OH272066   2.001   2.687  15.102 -0.0628  0.3820 -0.3729
16884TIP3    H172067   1.993   2.628  15.026  3.4127  1.4800 -1.7744
16884TIP3    H272068   1.947   2.762  15.079 -1.2234 -0.4449 -0.4547
16885TIP3   OH272069   1.324   3.515   1.071 -0.4966 -0.1195  0.0003
16885TIP3    H172070   1.272   3.572   1.128  0.4193 -0.0825  0.8278
16885TIP3    H272071   1.342   3.437   1.124 -1.1590 -0.8979 -0.8844
16886TIP3   OH272072   1.355   3.324  14.209  0.0571 -0.0406 -0.3979
16886TIP3    H172073   1.284   3.337  14.271  0.9022  1.1115  0.3565
16886TIP3    H272074   1.395   3.410  14.199 -1.3701  0.3820 -4.2512
16887TIP3   OH272075   0.312   2.096   3.927 -0.4460  0.0193  0.2344
16887TIP3    H172076   0.223   2.099   3.963 -0.6749 -0.1227 -0.3123
16887TIP3    H272077   0.368   2.116   4.002 -0.9511  0.4066  0.5170
16888TIP3   OH272078   0.632   4.537   1.832 -0.2768 -0.5241 -0.2975
16888TIP3    H172079   0.666   4.599   1.896 -0.5149  0.0696 -0.7358
16888TIP3    H272080   0.546   4.572   1.807 -0.3815 -0.9839 -0.6167
16889TIP3   OH272081   1.736   4.691   0.310  0.3809 -0.5584  0.0058
16889TIP3    H172082   1.651   4.675   0.269 -0.0595  1.0397  0.2288
16889TIP3    H272083   1.743   4.625   0.378 -1.5022  0.3724  1.1666
16890TIP3   OH272084   5.053   6.284   4.920 -0.1218  0.4200  0.1712
16890TIP3    H172085   5.047   6.288   4.824  1.8587 -1.7058 -0.1293
16890TIP3    H272086   5.085   6.370   4.946  0.8222  0.5285 -1.2546
16891TIP3   OH272087   3.309   6.381  12.287  0.1287 -0.3852  0.6329
16891TIP3    H172088   3.312   6.356  12.194 -1.0109 -0.2390  0.5464
16891TIP3    H272089   3.220   6.359  12.315  0.1916  0.3849  1.4718
16892TIP3   OH272090   4.553   2.105  13.077 -0.4755 -0.5203  0.1405
16892TIP3    H172091   4.621   2.109  13.010 -0.9061  2.5503 -0.2706
16892TIP3    H272092   4.484   2.052  13.037  0.2752 -0.8139 -0.8149
16893TIP3   OH272093   0.819   0.054   1.544 -0.3953  0.4713  0.0657
16893TIP3    H172094   0.756  -0.008   1.580  0.7633 -0.9380 -0.2414
16893TIP3    H272095   0.799   0.056   1.450  0.4310 -0.5303 -0.1519
16894TIP3   OH272096   2.526   3.865  16.205 -0.7477  0.2248  0.5248
16894TIP3    H172097   2.525   3.848  16.299  0.3231 -1.5950  0.2776
16894TIP3    H272098   2.478   3.791  16.167 -0.3163  0.4026 -0.3990
16895TIP3   OH272099   3.431   2.011   3.623  0.7277  0.1347 -0.6212
16895TIP3    H172100   3.462   1.921   3.615 -0.3334 -0.3405  0.3064
16895TIP3    H272101   3.475   2.058   3.553  3.6159 -0.4330  0.6814
16896TIP3   OH272102   3.794   4.305  17.291 -0.8391 -0.7966  0.2364
16896TIP3    H172103   3.774   4.335  17.380 -1.1836 -0.5965  0.0910
16896TIP3    H272104   3.848   4.374  17.254 -1.3954 -0.4812 -0.0000
16897TIP3   OH272105   0.299   1.770  17.103  0.3416  0.1601 -0.1194
16897TIP3    H172106   0.350   1.763  17.022  0.9449 -2.9144  0.3828
16897TIP3    H272107   0.228   1.706  17.092 -0.1278  0.3934  1.3955
16898TIP3   OH272108   2.672   6.246   0.104  0.3288  0.0756  0.0910
16898TIP3    H172109   2.660   6.335   0.070  0.8584  0.5864  1.1798
16898TIP3    H272110   2.621   6.191   0.046 -0.4272  1.1606 -0.3061
16899TIP3   OH272111   0.977   0.600  14.591  0.1050  0.5474 -0.0682
16899TIP3    H172112   1.062   0.557  14.580 -0.3603  0.0670 -2.1815
16899TIP3    H272113   0.988   0.687  14.552  0.4159  1.6069  2.2528
16900TIP3   OH272114   5.357   5.373   6.079  0.4169 -0.4469  0.4445
16900TIP3    H172115   5.379   5.330   6.162  4.8366  0.9210  0.2040
16900TIP3    H272116   5.324   5.459   6.105 -1.0819 -1.0649  0.7334
16901TIP3   OH272117   6.548   5.382   2.501  0.0457  0.1108 -0.5696
16901TIP3    H172118   6.553   5.478   2.500 -0.3945  0.1448 -0.0713
16901TIP3    H272119   6.455   5.363   2.489 -0.0222 -0.2230  0.4050
16902TIP3   OH272120   2.204   5.008   3.503  0.0122  0.1860  0.7030
16902TIP3    H172121   2.250   4.943   3.556  0.6844  0.1676  0.1029
16902TIP3    H272122   2.111   4.983   3.509  0.4552 -2.8744 -2.1429
16903TIP3   OH272123   4.300   1.962  17.275 -0.5048  0.4815  0.1775
16903TIP3    H172124   4.305   1.992  17.184 -1.4700 -0.5861 -0.2520
16903TIP3    H272125   4.391   1.964  17.305 -0.0585  0.1139 -1.0618
16904TIP3   OH272126   2.300   5.555  14.457 -0.1816 -0.0566 -0.0634
16904TIP3    H172127   2.376   5.514  14.498  1.3894 -1.3273 -3.8216
16904TIP3    H272128   2.337   5.623  14.401 -2.0474  0.8064 -0.3219
16905TIP3   OH272129   0.050   4.303  12.775 -0.2689 -0.3700 -0.0191
16905TIP3    H172130   0.053   4.361  12.851  0.4227  1.5177 -1.3955
16905TIP3    H272131  -0.042   4.279  12.767 -0.7017  1.0695  0.2655
16906TIP3   OH272132   2.295   4.781  10.526  0.1249 -0.2473  0.1403
16906TIP3    H172133   2.384   4.746  10.521 -0.4295 -1.5466 -1.3423
16906TIP3    H272134   2.271   4.772  10.618  0.9306 -1.4728  0.2583
16907TIP3   OH272135   0.993   1.703  16.025 -0.6867 -0.8749  0.8159
16907TIP3    H172136   0.972   1.614  15.998  0.3860 -1.6053  2.2568
16907TIP3    H272137   1.043   1.693  16.106 -1.2339  1.0690  1.4609
16908TIP3   OH272138   2.280   3.871  16.623  0.6422  0.3967  0.2525
16908TIP3    H172139   2.329   3.905  16.548 -0.3939 -0.7452 -1.0010
16908TIP3    H272140   2.266   3.779  16.603  0.3560  0.0550  1.8864
16909TIP3   OH272141   4.302   5.399  13.593 -0.4964  0.1248 -0.5805
16909TIP3    H172142   4.388   5.371  13.561 -0.7501  0.2996 -1.4505
16909TIP3    H272143   4.314   5.410  13.687 -0.1661 -2.0822 -0.3111
16910TIP3   OH272144   5.307   2.834  12.038  0.0405  0.0072 -0.1917
16910TIP3    H172145   5.261   2.901  11.988  2.0284  0.7197 -1.1647
16910TIP3    H272146   5.311   2.869  12.127  1.7606  1.6866 -0.8423
16911TIP3   OH272147   6.765   2.876   0.580 -0.3190  0.5685 -0.1628
16911TIP3    H172148   6.676   2.840   0.572  0.1195 -0.1634 -2.3310
16911TIP3    H272149   6.751   2.969   0.600 -1.4763 -0.2960  4.0941
16912TIP3   OH272150   5.897   3.253  12.407  0.2095 -0.5882 -0.2708
16912TIP3    H172151   5.970   3.206  12.449 -0.3125 -1.0025  0.1889
16912TIP3    H272152   5.924   3.262  12.316  1.0380 -0.3360 -0.0103
16913TIP3   OH272153   6.300   4.210   2.742 -0.3523  0.2902  0.1887
16913TIP3    H172154   6.212   4.246   2.729  0.0246  1.1709  0.0036
16913TIP3    H272155   6.342   4.270   2.804  0.1762 -0.0334  0.1543
16914TIP3   OH272156   5.926   6.089   3.841 -0.0464  0.1959 -0.2205
16914TIP3    H172157   5.986   6.155   3.805  0.4097  0.1418  0.4258
16914TIP3    H272158   5.892   6.044   3.764  0.4128  0.5126 -0.6187
16915TIP3   OH272159   2.931   0.668   3.327  0.0524 -0.4782 -0.2525
16915TIP3    H172160   2.836   0.659   3.333  0.2127 -2.6523 -0.1615
16915TIP3    H272161   2.950   0.754   3.365 -1.8138 -0.2509  0.2473
16916TIP3   OH272162   2.441   6.315  13.595  0.2630  0.1703 -0.4900
16916TIP3    H172163   2.535   6.321  13.613 -0.0463  2.0021  0.8273
16916TIP3    H272164   2.436   6.273  13.509  2.2883  0.1335 -0.6443
16917TIP3   OH272165   6.034   3.083  15.078  0.1677 -0.2591 -0.4313
16917TIP3    H172166   6.059   3.175  15.070  0.3514  0.0579  2.7428
16917TIP3    H272167   6.113   3.035  15.051  0.4521  0.5173 -1.0263
16918TIP3   OH272168   1.303   4.655   1.770 -0.2644  0.5336  0.4459
16918TIP3    H172169   1.210   4.665   1.747 -0.7113  0.3064  2.0244
16918TIP3    H272170   1.308   4.684   1.861  1.4631  1.7320  0.0242
16919TIP3   OH272171   5.472   2.819  13.822 -0.7535 -0.3602 -0.2961
16919TIP3    H172172   5.411   2.854  13.888 -0.3252 -1.2562  0.6084
16919TIP3    H272173   5.558   2.849  13.852 -0.8068  2.5637 -2.6141
16920TIP3   OH272174   4.008   5.140  15.387  0.5796 -0.7669  0.3916
16920TIP3    H172175   3.948   5.088  15.441 -2.7735  0.8157 -1.4798
16920TIP3    H272176   3.987   5.231  15.408  0.5309 -0.1343 -2.0998
16921TIP3   OH272177   1.015   1.658  15.213 -0.1025  0.3261  0.0460
16921TIP3    H172178   1.032   1.592  15.280  0.7820  1.2077  0.7020
16921TIP3    H272179   0.922   1.647  15.192 -0.2673 -0.3056  1.0328
16922TIP3   OH272180   0.783   0.948  14.473  0.0920  0.6107  0.3197
16922TIP3    H172181   0.813   0.951  14.563  0.4688  2.3496  0.1738
16922TIP3    H272182   0.862   0.962  14.421 -0.2196  0.2606 -0.2594
16923TIP3   OH272183   5.182   1.220   0.074  0.1218  0.3446  0.1371
16923TIP3    H172184   5.237   1.298   0.076  0.8502 -0.1554  2.1235
16923TIP3    H272185   5.096   1.252   0.047  0.2643  1.9614  1.4695
16924TIP3   OH272186   1.819   5.200   4.277 -0.2391  0.4761  0.0322
16924TIP3    H172187   1.773   5.128   4.321 -0.2753  0.2138 -0.4323
16924TIP3    H272188   1.773   5.211   4.194 -0.8070  1.6436  0.4750
16925TIP3   OH272189   2.143   6.103  13.074  0.1525 -0.3506  0.5025
16925TIP3    H172190   2.139   6.058  13.158  1.3008  0.0226  0.7860
16925TIP3    H272191   2.059   6.148  13.065 -0.6872 -1.8587  0.5907
16926TIP3   OH272192   0.621   2.001  14.475  0.2949  0.0359  0.5959
16926TIP3    H172193   0.597   1.925  14.421  2.4680 -0.9901  0.9515
16926TIP3    H272194   0.564   2.071  14.444 -1.6948 -1.6662  0.1342
16927TIP3   OH272195   5.914   4.110   5.851 -0.2234 -0.6512  0.3517
16927TIP3    H172196   5.943   4.198   5.826 -1.4146 -0.4631 -0.4648
16927TIP3    H272197   5.822   4.107   5.825 -0.1626 -2.1957  0.2281
16928TIP3   OH272198   2.282   2.671   3.917  0.4542 -0.2625 -0.1417
16928TIP3    H172199   2.370   2.698   3.944  0.4332  0.4930 -0.7860
16928TIP3    H272200   2.292   2.636   3.829  0.6080 -3.2468  0.9628
16929TIP3   OH272201   6.471   6.607  14.266  0.1530  0.0369 -0.2575
16929TIP3    H172202   6.504   6.520  14.242 -0.8166  0.0580 -1.7990
16929TIP3    H272203   6.496   6.663  14.192 -2.6212  0.2046 -1.1783
16930TIP3   OH272204   3.956   0.755  15.821  0.0434 -0.2160 -0.3370
16930TIP3    H172205   3.911   0.707  15.890 -0.5949 -1.4368 -1.5557
16930TIP3    H272206   3.972   0.841  15.859 -2.0393 -0.1929  0.6794
16931TIP3   OH272207   1.886   6.332   5.678 -0.6058 -0.0214  0.0015
16931TIP3    H172208   1.903   6.247   5.638 -2.8547 -0.0889 -0.9472
16931TIP3    H272209   1.897   6.395   5.606 -1.3930  0.2057  0.0656
16932TIP3   OH272210   4.860   0.682   0.227  0.5458  0.2604  0.6235
16932TIP3    H172211   4.924   0.747   0.200  0.6003  0.1178  0.4046
16932TIP3    H272212   4.798   0.730   0.282  0.3915  0.5743  0.1851
16933TIP3   OH272213   2.028   5.609   1.772 -0.0156 -0.0494  0.2372
16933TIP3    H172214   2.036   5.653   1.857  2.1536  0.2939 -0.0840
16933TIP3    H272215   2.053   5.518   1.790  2.1645  0.3912 -0.2780
16934TIP3   OH272216   3.206   0.627   0.343  0.2501  0.5351 -0.0822
16934TIP3    H172217   3.278   0.662   0.395  1.1620 -0.0590 -0.8879
16934TIP3    H272218   3.224   0.533   0.338 -0.9404  0.2772  0.2275
16935TIP3   OH272219   0.940   0.282  16.206  0.1917 -0.3884  0.5337
16935TIP3    H172220   1.026   0.250  16.234 -0.2395 -1.3254  0.8504
16935TIP3    H272221   0.945   0.285  16.111  0.7774  0.1749  0.5747
16936TIP3   OH272222   5.658   0.230   4.456 -0.3481  0.0919  0.3040
16936TIP3    H172223   5.743   0.243   4.414 -0.4095 -0.9687 -0.1933
16936TIP3    H272224   5.617   0.316   4.455  0.2902  0.3955 -0.4171
16937TIP3   OH272225   1.910   0.251  12.209 -0.1797  0.3588 -1.0230
16937TIP3    H172226   1.842   0.209  12.262  1.0799  0.3966  0.7000
16937TIP3    H272227   1.898   0.214  12.122 -2.1463  0.0713 -0.6834
16938TIP3   OH272228   1.363   2.126   3.572 -0.1035  0.5820  0.2297
16938TIP3    H172229   1.453   2.139   3.601  0.2245 -0.0964 -0.4260
16938TIP3    H272230   1.309   2.151   3.647  0.6689  0.0188  0.9971
16939TIP3   OH272231   3.586   1.121  16.179 -0.1650 -0.1823  0.5924
16939TIP3    H172232   3.639   1.050  16.143  0.3698 -0.0933  1.1907
16939TIP3    H272233   3.589   1.189  16.111  0.6162 -0.1219  0.6793
16940TIP3   OH272234   3.864   2.617  17.282 -0.2029 -0.3834 -0.3565
16940TIP3    H172235   3.775   2.651  17.295 -0.5695 -1.6223  0.5476
16940TIP3    H272236   3.871   2.602  17.188 -1.6803 -2.0834 -0.2507
16941TIP3   OH272237   2.470   1.761  14.552 -0.2721 -0.7506 -0.3605
16941TIP3    H172238   2.499   1.682  14.599  2.5133 -1.4664 -2.9489
16941TIP3    H272239   2.463   1.828  14.620  1.7584 -2.1469  1.3716
16942TIP3   OH272240   4.146   5.768  16.816 -0.0265 -0.2097 -0.3516
16942TIP3    H172241   4.144   5.720  16.733  1.1653 -1.9164  0.5392
16942TIP3    H272242   4.229   5.816  16.815  0.0057 -0.2588 -0.1453
16943TIP3   OH272243   0.262   5.448   4.951 -0.1509  0.3017 -0.2799
16943TIP3    H172244   0.169   5.467   4.960 -0.2923 -0.3702 -0.2328
16943TIP3    H272245   0.265   5.358   4.918  0.4952 -0.4284  1.6227
16944TIP3   OH272246   5.024   2.180   2.281  0.5480  0.0230 -0.1280
16944TIP3    H172247   5.079   2.105   2.303 -0.1233  0.1967  2.4252
16944TIP3    H272248   4.969   2.149   2.209  2.3132 -0.9158 -1.1308
16945TIP3   OH272249   4.470   2.427  15.612  0.0257  0.0359 -0.1214
16945TIP3    H172250   4.375   2.412  15.612  0.1625 -0.9340 -0.0645
16945TIP3    H272251   4.482   2.506  15.663 -0.8298  0.6945 -0.9075
16946TIP3   OH272252   2.411   1.549  14.794  0.1071 -0.0485 -0.2864
16946TIP3    H172253   2.329   1.568  14.748  0.3334 -0.6770 -0.9596
16946TIP3    H272254   2.434   1.632  14.837 -0.9169  0.1112 -0.0239
16947TIP3   OH272255   6.613   2.719   2.908 -0.0322  0.1067 -1.0188
16947TIP3    H172256   6.622   2.777   2.833 -0.4836  0.8539 -0.5098
16947TIP3    H272257   6.699   2.678   2.917 -0.6340 -1.8621 -3.3972
16948TIP3   OH272258   1.893   4.605  12.544 -0.0085 -0.2696  0.0539
16948TIP3    H172259   1.825   4.538  12.541 -0.0907 -0.1735 -0.3077
16948TIP3    H272260   1.953   4.583  12.472  0.0765 -0.0787  0.0632
16949TIP3   OH272261   6.578   1.950  12.241  0.2468  0.2946 -0.1593
16949TIP3    H172262   6.519   1.979  12.310  0.4432 -0.5253  0.3808
16949TIP3    H272263   6.525   1.892  12.187 -0.2820  1.9897 -1.5210
16950TIP3   OH272264   1.287   4.969   2.408 -0.0915 -0.3333 -0.0552
16950TIP3    H172265   1.191   4.963   2.412 -0.2149  0.4180 -1.5071
16950TIP3    H272266   1.304   5.060   2.385  1.0945  0.2329  2.5991
16951TIP3   OH272267   5.726   5.119  13.083 -0.1003  0.2640  0.1788
16951TIP3    H172268   5.645   5.146  13.039  0.3084 -1.6484 -1.9670
16951TIP3    H272269   5.787   5.191  13.069 -0.8380  0.9092  0.1777
16952TIP3   OH272270   4.895   3.960   0.661  0.1453  0.3764 -0.2449
16952TIP3    H172271   4.988   3.979   0.646  1.1153 -3.3846 -0.0067
16952TIP3    H272272   4.871   3.901   0.590 -1.7296  0.2405  0.4558
16953TIP3   OH272273   2.323   2.414  14.438  0.2138  0.0749  0.7201
16953TIP3    H172274   2.384   2.345  14.413 -1.3539 -1.1392  0.0598
16953TIP3    H272275   2.236   2.373  14.434 -0.7666  2.0137  0.5039
16954TIP3   OH272276   2.423   3.185  14.300 -0.1229  0.0492  0.3026
16954TIP3    H172277   2.464   3.263  14.264  0.1527 -0.2208  0.0202
16954TIP3    H272278   2.405   3.206  14.391 -0.7460  0.7140  0.0293
16955TIP3   OH272279   1.292   3.818   6.596  0.2228  0.2255 -0.1926
16955TIP3    H172280   1.200   3.840   6.608  0.6068  0.6174  2.8865
16955TIP3    H272281   1.336   3.902   6.582  0.2559  0.1492 -0.5610
16956TIP3   OH272282   2.837   1.455  11.876  1.1801  0.2424  0.0966
16956TIP3    H172283   2.848   1.456  11.780 -1.2027  1.5698 -0.2328
16956TIP3    H272284   2.834   1.548  11.900  0.6739 -0.0808  1.3244
16957TIP3   OH272285   0.058   1.205   5.209 -0.4247  0.6298  0.2696
16957TIP3    H172286   0.097   1.260   5.140  0.4602  2.1561  1.8866
16957TIP3    H272287   0.077   1.252   5.290  0.2328 -2.0352  1.7761
16958TIP3   OH272288   3.139   2.932  16.577  0.1510 -0.3408  0.2629
16958TIP3    H172289   3.119   2.864  16.513  1.2273 -1.7888  1.3855
16958TIP3    H272290   3.062   2.937  16.633 -0.8327  0.9969 -1.1363
16959TIP3   OH272291   2.248   3.890  11.331  0.0827  0.9064  0.5369
16959TIP3    H172292   2.305   3.858  11.261 -2.4517 -0.8694 -0.8701
16959TIP3    H272293   2.297   3.872  11.411  1.1900 -1.3178 -0.5403
16960TIP3   OH272294   1.716   2.279  16.348 -1.3043 -0.2763 -0.0974
16960TIP3    H172295   1.635   2.273  16.399 -0.8959  2.9326  1.1815
16960TIP3    H272296   1.717   2.369  16.316  2.5953  0.4583  1.5647
16961TIP3   OH272297   2.182   2.058   1.384 -0.1714  0.1452  0.5607
16961TIP3    H172298   2.172   2.153   1.376 -2.9874  0.1205  2.2149
16961TIP3    H272299   2.266   2.046   1.428  0.6387  1.7868 -0.4346
16962TIP3   OH272300   2.264   6.272  16.393  0.4926 -0.1491 -0.4606
16962TIP3    H172301   2.319   6.347  16.411 -0.3221  0.7608 -1.5766
16962TIP3    H272302   2.223   6.250  16.477 -0.5149  1.7014 -0.4264
16963TIP3   OH272303   0.312   5.310   5.766 -0.1464 -0.2358 -0.0550
16963TIP3    H172304   0.360   5.392   5.778 -0.1622 -0.3288  0.7012
16963TIP3    H272305   0.307   5.300   5.671  0.3366  0.3552 -0.1583
16964TIP3   OH272306   1.729   5.813   1.240  0.0241  0.8069 -0.0558
16964TIP3    H172307   1.720   5.774   1.327  0.3225 -0.5947 -0.6235
16964TIP3    H272308   1.778   5.894   1.255  0.4872  0.3480  1.0170
16965TIP3   OH272309   2.111   3.389   1.909 -0.0731  0.3114  0.2508
16965TIP3    H172310   2.108   3.393   1.813  0.2631 -0.0045  0.2264
16965TIP3    H272311   2.203   3.400   1.931 -0.4114  2.9276  0.6744
16966TIP3   OH272312   2.962   1.442  16.013  0.0092 -0.1409 -0.3286
16966TIP3    H172313   3.003   1.377  16.071  0.3517 -0.4800 -0.9463
16966TIP3    H272314   2.989   1.526  16.050  0.5410 -0.3551 -0.2141
16967TIP3   OH272315   5.951   1.193  12.336 -0.0332  0.1220  0.2139
16967TIP3    H172316   5.902   1.116  12.364  1.1582 -0.2510  1.3375
16967TIP3    H272317   5.887   1.246  12.289 -1.0202 -1.2652 -0.0698
16968TIP3   OH272318   4.801   5.646  11.261 -0.5020 -0.2119 -0.4566
16968TIP3    H172319   4.713   5.609  11.253 -0.4896 -0.1131 -1.0938
16968TIP3    H272320   4.800   5.722  11.202 -0.4461  0.6612  0.6390
16969TIP3   OH272321   6.216   1.120   1.889  0.1125 -0.0486  0.6063
16969TIP3    H172322   6.151   1.177   1.930  1.1412  0.2361  1.9389
16969TIP3    H272323   6.216   1.041   1.943 -0.3001 -0.7398 -0.3820
16970TIP3   OH272324   5.673   2.256  11.234  0.1858  0.3727  0.1305
16970TIP3    H172325   5.709   2.326  11.179 -2.7059  1.1092 -1.0230
16970TIP3    H272326   5.578   2.264  11.224 -0.4661 -0.6923  3.7844
16971TIP3   OH272327   5.814   2.457  11.106 -0.0459 -0.0687 -0.1087
16971TIP3    H172328   5.868   2.432  11.030 -1.1129 -0.4650 -0.7547
16971TIP3    H272329   5.730   2.484  11.068  0.5247  3.2285  0.6367
16972TIP3   OH272330   2.154   1.138   1.966 -0.1778 -0.2563  0.3166
16972TIP3    H172331   2.134   1.210   1.906  0.4687 -2.1304 -2.3258
16972TIP3    H272332   2.249   1.145   1.980  0.0750 -1.0976 -0.7756
16973TIP3   OH272333   6.287   2.612   2.180 -0.4436  0.5328 -0.0413
16973TIP3    H172334   6.353   2.673   2.148  0.3643 -1.2976 -2.1454
16973TIP3    H272335   6.317   2.589   2.268  3.0397 -1.7108 -1.5754
16974TIP3   OH272336   3.157   4.337  11.283  0.0467 -0.0931 -0.6112
16974TIP3    H172337   3.120   4.420  11.314  2.9285  0.4689  1.8232
16974TIP3    H272338   3.159   4.346  11.188 -1.4930  1.7638 -0.5475
16975TIP3   OH272339   2.033   4.415  15.018  0.4042 -0.6691 -0.3297
16975TIP3    H172340   1.966   4.366  15.067 -0.0483 -1.1867 -1.4303
16975TIP3    H272341   2.025   4.383  14.928 -0.3183  1.8554 -1.2429
16976TIP3   OH272342   1.176   2.998   3.303 -0.0161  0.9004  0.1895
16976TIP3    H172343   1.270   2.982   3.312 -0.1469 -0.2784 -0.3894
16976TIP3    H272344   1.138   2.961   3.382 -0.0365  0.9297  0.1932
16977TIP3   OH272345   0.784   0.997  15.218  0.1126  0.0065  0.2263
16977TIP3    H172346   0.733   1.019  15.296 -0.2408  0.5559 -0.1535
16977TIP3    H272347   0.738   1.040  15.146  0.4360 -0.4957 -0.2893
16978TIP3   OH272348   4.825   3.534   3.461  0.2978  0.2225  0.3455
16978TIP3    H172349   4.819   3.471   3.389 -1.0844  0.4382  0.2440
16978TIP3    H272350   4.847   3.481   3.538 -0.5409 -0.3549  0.2029
16979TIP3   OH272351   5.798   5.334   0.050 -0.3350  0.0285 -0.0776
16979TIP3    H172352   5.889   5.359   0.033 -0.5865  1.8012  0.9551
16979TIP3    H272353   5.751   5.359  -0.029 -0.3313  1.5320  0.3737
16980TIP3   OH272354   3.409   0.453   1.594 -0.0339  0.4976  0.1952
16980TIP3    H172355   3.461   0.473   1.517  2.4895  1.2482  1.9782
16980TIP3    H272356   3.386   0.538   1.632 -0.3043  0.1369  0.8723
16981TIP3   OH272357   0.942   6.610  14.948 -0.1494 -0.1763 -0.3821
16981TIP3    H172358   0.923   6.569  15.033 -0.2356  0.2801 -0.1747
16981TIP3    H272359   1.036   6.630  14.953 -0.4767  1.3696  0.3001
16982TIP3   OH272360   3.163   2.267  16.575 -0.6030  0.2680  0.2490
16982TIP3    H172361   3.253   2.237  16.582 -0.5972  0.2582  0.1464
16982TIP3    H272362   3.111   2.196  16.613 -0.5601  0.3243  0.4128
16983TIP3   OH272363   2.099   5.784  16.014 -0.5016 -0.2238 -0.6134
16983TIP3    H172364   2.149   5.719  16.063  1.2232  1.1401 -0.4997
16983TIP3    H272365   2.008   5.756  16.025  0.0774 -1.8096  0.6061
16984TIP3   OH272366   4.702   4.823  11.007 -0.8043 -0.4312 -0.2208
16984TIP3    H172367   4.718   4.903  10.957 -1.2762 -0.7266 -0.8530
16984TIP3    H272368   4.753   4.755  10.962  0.0174 -0.3992  0.6168
16985TIP3   OH272369   1.548   4.969   3.033 -0.4285 -0.9419  0.4537
16985TIP3    H172370   1.617   5.029   3.059 -1.8458  0.2909  1.5873
16985TIP3    H272371   1.567   4.948   2.941  0.0230  1.3972 -0.0482
16986TIP3   OH272372   5.540   2.740  14.727  0.1807  0.2534  0.1771
16986TIP3    H172373   5.499   2.678  14.667 -0.1889  0.0465  0.6349
16986TIP3    H272374   5.563   2.815  14.672  2.7568 -1.1773 -0.8648
16987TIP3   OH272375   0.487   5.997  13.797  0.1572 -0.9309 -0.6597
16987TIP3    H172376   0.528   5.911  13.806 -0.4461 -1.3273 -1.5506
16987TIP3    H272377   0.395   5.983  13.820  0.4449 -0.0763  1.2020
16988TIP3   OH272378   6.773   4.067   4.422 -0.0593 -0.4011 -0.5873
16988TIP3    H172379   6.784   3.985   4.374 -2.0053  0.0327 -1.9016
16988TIP3    H272380   6.773   4.135   4.354 -0.0722  0.5322  0.3130
16989TIP3   OH272381   0.952   3.398  14.850  0.3855 -0.0528  1.0103
16989TIP3    H172382   0.892   3.449  14.903 -0.3962  0.3336 -0.1968
16989TIP3    H272383   1.027   3.456  14.837 -0.0248  0.3883  0.5575
16990TIP3   OH272384   5.924   6.401   4.196 -0.6528  0.2831 -0.2079
16990TIP3    H172385   6.010   6.435   4.173 -0.9552  1.1106 -0.1607
16990TIP3    H272386   5.886   6.373   4.113  1.0086 -3.4974  0.1040
16991TIP3   OH272387   0.030   2.280   5.767 -0.3003  0.2642  0.3015
16991TIP3    H172388   0.038   2.316   5.856  1.3923  0.1956  0.2139
16991TIP3    H272389   0.115   2.240   5.750 -1.2961 -1.5805 -0.5832
16992TIP3   OH272390   2.136   0.471  15.811 -0.4655 -0.0316  0.3713
16992TIP3    H172391   2.130   0.392  15.757  0.6112  0.0115  0.1692
16992TIP3    H272392   2.075   0.533  15.770  0.4325  0.0472 -0.8891
16993TIP3   OH272393   5.791   0.614   3.529  0.9891  0.6685 -0.2298
16993TIP3    H172394   5.737   0.650   3.458 -1.2056 -1.2684  0.3290
16993TIP3    H272395   5.764   0.522   3.536  2.0613  0.4511  2.2433
16994TIP3   OH272396   1.579   4.651   3.062 -0.0957 -0.1130  0.1148
16994TIP3    H172397   1.552   4.689   2.979  2.7030  0.8867 -0.4653
16994TIP3    H272398   1.619   4.567   3.039  0.4975  0.0679  0.4530
16995TIP3   OH272399   2.167   4.334   1.985  0.7312 -0.0290 -0.1325
16995TIP3    H172400   2.194   4.264   2.044  1.2490  0.4434  0.1949
16995TIP3    H272401   2.230   4.330   1.913  0.2937 -0.3953 -0.5064
16996TIP3   OH272402   5.866   5.844  16.972 -0.2391  0.0031  0.7706
16996TIP3    H172403   5.910   5.926  16.951 -0.4752  0.1008  0.6446
16996TIP3    H272404   5.929   5.794  17.024 -0.1115  0.2814  0.8805
16997TIP3   OH272405   3.710   4.093  14.144  0.3079  0.4871 -0.3761
16997TIP3    H172406   3.784   4.041  14.112 -0.0688  0.0876 -0.6167
16997TIP3    H272407   3.644   4.086  14.075 -1.3450 -2.1087  1.2825
16998TIP3   OH272408   6.390   4.881  13.384 -0.1978  0.4767 -0.1260
16998TIP3    H172409   6.384   4.837  13.299  0.1593  1.0021 -0.4303
16998TIP3    H272410   6.484   4.894  13.397 -0.2803  0.8172  0.1284
16999TIP3   OH272411   4.604   1.991   3.620 -0.2068  0.4113 -0.7206
16999TIP3    H172412   4.640   1.992   3.708 -0.8736 -2.2357 -0.3431
16999TIP3    H272413   4.588   2.083   3.600  2.4229  1.3036  0.8376
17000TIP3   OH272414   0.424   2.922   1.137 -0.9249  0.2943 -0.2451
17000TIP3    H172415   0.458   2.926   1.048 -0.1128  1.0487  0.0894
17000TIP3    H272416   0.496   2.886   1.189 -0.4560  2.1823  0.5205
17001TIP3   OH272417   1.652   5.233   2.743  0.2542  0.3308 -0.1058
17001TIP3    H172418   1.645   5.149   2.697  1.9558  0.1800 -0.1521
17001TIP3    H272419   1.740   5.264   2.723  0.5087  0.9796  1.8352
17002TIP3   OH272420   1.795   4.732   0.747 -0.1532  0.4288 -0.8784
17002TIP3    H172421   1.788   4.827   0.759  0.9121  0.6220 -1.6412
17002TIP3    H272422   1.829   4.721   0.658 -0.0899 -0.6673 -0.7378
17003TIP3   OH272423   2.689   3.060   2.468  0.1816  0.0899 -0.4197
17003TIP3    H172424   2.679   3.107   2.550  0.8449  0.6770 -0.6622
17003TIP3    H272425   2.773   3.016   2.475  0.9276  1.2921 -1.3170
17004TIP3   OH272426   4.215   4.485   6.277 -0.2575  0.4385  0.1718
17004TIP3    H172427   4.253   4.473   6.364  1.2839  0.2654 -0.4865
17004TIP3    H272428   4.291   4.489   6.219 -1.2972 -0.8896 -1.3518
17005TIP3   OH272429   2.505   3.807  12.813  0.2402 -0.3983  0.0594
17005TIP3    H172430   2.522   3.854  12.731 -0.8241  2.9106  1.5634
17005TIP3    H272431   2.585   3.756  12.827  2.1289  1.9935 -1.1248
17006TIP3   OH272432   4.277   0.083  16.246  0.8835 -0.0786 -0.2159
17006TIP3    H172433   4.199   0.049  16.289  1.4048  0.8618  1.5651
17006TIP3    H272434   4.264   0.178  16.242  1.7013  0.0430 -0.3536
17007TIP3   OH272435   2.095   4.388   4.879 -0.7099  0.0140 -0.1137
17007TIP3    H172436   2.182   4.398   4.916 -1.6159 -0.2344  2.2822
17007TIP3    H272437   2.100   4.430   4.793  1.5721  0.5394  0.2109
17008TIP3   OH272438   5.540   4.238   1.362  0.2434 -0.2634  0.2523
17008TIP3    H172439   5.601   4.197   1.423 -0.0565 -0.0668  0.6837
17008TIP3    H272440   5.538   4.330   1.389 -0.1532 -0.2469  0.1615
17009TIP3   OH272441   5.811   1.335  13.171  0.4650 -0.3048 -0.5483
17009TIP3    H172442   5.836   1.344  13.079 -0.1422  0.0230 -0.6852
17009TIP3    H272443   5.892   1.312  13.216  1.2793  1.8464 -0.8066
17010TIP3   OH272444   5.388   3.648  11.119  0.3726  0.1678  0.6225
17010TIP3    H172445   5.420   3.706  11.050 -0.2163 -1.4208 -1.0864
17010TIP3    H272446   5.324   3.701  11.167  0.1342  1.0607 -0.6210
17011TIP3   OH272447   6.732   6.464   2.173 -0.2203 -0.2359  0.8976
17011TIP3    H172448   6.640   6.475   2.150 -0.3417  0.8860  1.8008
17011TIP3    H272449   6.755   6.546   2.217  0.7955 -1.0834  2.0060
17012TIP3   OH272450   3.995   6.762   1.740 -0.4019 -0.4998 -0.0588
17012TIP3    H172451   3.952   6.683   1.774 -0.6211  0.0047  0.8625
17012TIP3    H272452   4.086   6.753   1.769 -0.4557 -0.3531  0.1558
17013TIP3   OH272453   2.717   3.923  15.917 -0.9477 -0.1995 -0.3876
17013TIP3    H172454   2.751   3.938  16.005 -0.5926 -2.0326 -0.1695
17013TIP3    H272455   2.649   3.989  15.905 -1.3846 -0.2727  1.4777
17014TIP3   OH272456   4.368   6.477  14.003  0.2853 -0.4978  0.3746
17014TIP3    H172457   4.407   6.524  14.077 -0.9500  1.4703 -0.1467
17014TIP3    H272458   4.336   6.395  14.040  1.3710 -0.3926  1.6069
17015TIP3   OH272459   1.386   0.678  14.860 -0.1629 -0.3170 -0.1820
17015TIP3    H172460   1.437   0.627  14.922 -1.0552 -1.5523 -0.4342
17015TIP3    H272461   1.443   0.752  14.838  0.6055 -0.4508  1.2361
17016TIP3   OH272462   5.009   0.270   0.685  0.3096  0.0698 -0.4889
17016TIP3    H172463   5.028   0.183   0.652  1.0562  0.0497 -0.0184
17016TIP3    H272464   5.067   0.328   0.635  0.5900  0.1713 -0.0506
17017TIP3   OH272465   1.690   2.152   3.132 -0.2499 -0.8763 -0.0155
17017TIP3    H172466   1.606   2.149   3.179  0.8608  0.9058  2.3243
17017TIP3    H272467   1.753   2.112   3.192  0.8100 -1.0358 -1.1902
17018TIP3   OH272468   4.546   5.677  13.681 -0.0888 -0.3549  0.0710
17018TIP3    H172469   4.503   5.734  13.745 -0.2542 -1.2558  0.7814
17018TIP3    H272470   4.492   5.683  13.603  0.6464  1.5163 -0.3401
17019TIP3   OH272471   3.125   5.546   3.901 -0.3052  0.2069  0.7001
17019TIP3    H172472   3.152   5.604   3.973  0.0657 -1.1180  1.6675
17019TIP3    H272473   3.081   5.604   3.839 -0.3880  1.4367  1.8625
17020TIP3   OH272474   3.097   4.797   3.312 -0.2231  1.0599  0.6284
17020TIP3    H172475   3.122   4.885   3.341  0.2034  1.4906 -0.9696
17020TIP3    H272476   3.176   4.762   3.272 -1.5392  1.7913 -3.0070
17021TIP3   OH272477   2.095   6.233   3.445  0.5123  0.3139 -0.5152
17021TIP3    H172478   2.115   6.155   3.496  1.5057  0.6379 -0.3810
17021TIP3    H272479   2.025   6.276   3.494 -0.4666 -0.7798 -0.9084
17022TIP3   OH272480   4.527   1.808   5.351 -0.2410 -0.8040 -0.1807
17022TIP3    H172481   4.432   1.795   5.352 -0.3947  0.1994 -0.7868
17022TIP3    H272482   4.540   1.890   5.304  0.9113 -0.7482  0.2004
17023TIP3   OH272483   1.165   3.696  15.616 -0.7597 -0.8396 -0.5661
17023TIP3    H172484   1.217   3.761  15.569  0.1903 -1.0484  0.1675
17023TIP3    H272485   1.080   3.737  15.628 -0.4723 -0.1161 -0.9645
17024TIP3   OH272486   4.525   2.237  16.194 -0.7669  0.4326 -0.1326
17024TIP3    H172487   4.575   2.216  16.115  0.2593 -1.1564  0.8563
17024TIP3    H272488   4.575   2.308  16.235 -0.7006  0.5223 -0.3648
17025TIP3   OH272489   3.160   5.272  16.192  0.5521  0.3244 -0.3758
17025TIP3    H172490   3.066   5.255  16.196  0.1872  2.2841  0.5336
17025TIP3    H272491   3.195   5.203  16.136 -1.0579 -1.8565  1.1413
17026TIP3   OH272492   3.921   1.386  16.447  1.1088 -0.0150  0.1601
17026TIP3    H172493   3.907   1.439  16.369 -0.3931 -1.2351 -0.4516
17026TIP3    H272494   3.990   1.431  16.495  0.8610  1.7012 -1.0180
17027TIP3   OH272495   4.744   6.319  12.924 -0.1006 -0.0492  0.0273
17027TIP3    H172496   4.726   6.261  12.850  0.7530 -0.3491  0.0426
17027TIP3    H272497   4.831   6.292  12.955 -0.3468  0.2345  0.9834
17028TIP3   OH272498   3.700   2.838  15.424 -0.0376 -0.2008  0.5218
17028TIP3    H172499   3.620   2.818  15.472  0.3223  0.8022  1.5910
17028TIP3    H272500   3.687   2.799  15.338 -2.1058  0.7984  0.3214
17029TIP3   OH272501   0.197   0.699   2.959 -0.2956  0.0202  0.1849
17029TIP3    H172502   0.167   0.625   2.906 -2.9164  0.8678  0.3232
17029TIP3    H272503   0.239   0.758   2.897 -0.0625 -0.6104 -0.2761
17030TIP3   OH272504   0.008   0.144  13.481 -0.0161 -0.0395  0.1397
17030TIP3    H172505   0.001   0.050  13.499 -3.0397  0.2453  0.8952
17030TIP3    H272506  -0.015   0.152  13.388 -0.3416  0.0153  0.2254
17031TIP3   OH272507   3.912   0.559   3.843  0.4846 -0.0196 -0.0818
17031TIP3    H172508   3.906   0.463   3.840 -0.6021  0.0455 -0.3165
17031TIP3    H272509   3.822   0.588   3.854  0.5559  1.0389 -1.9294
17032TIP3   OH272510   4.282   3.345   6.198  0.5060 -0.3321  0.7184
17032TIP3    H172511   4.267   3.413   6.133  1.0791 -0.1559  0.7668
17032TIP3    H272512   4.202   3.344   6.251  0.5369  0.3711  0.7821
17033TIP3   OH272513   0.232   6.433  11.339 -0.0219 -0.1281  0.4084
17033TIP3    H172514   0.185   6.471  11.265  0.3872 -1.1704 -0.4114
17033TIP3    H272515   0.165   6.390  11.391 -0.4959  1.6571  1.3566
17034TIP3   OH272516   0.681   5.722  13.151  0.5717 -0.0095 -0.2425
17034TIP3    H172517   0.602   5.671  13.134 -0.3928  1.1981  0.4068
17034TIP3    H272518   0.745   5.691  13.086 -0.8838 -0.0308 -1.7199
17035TIP3   OH272519   0.335   2.545   6.655  0.1629 -0.0800  0.9798
17035TIP3    H172520   0.427   2.521   6.639 -0.3847 -0.6450 -1.7846
17035TIP3    H272521   0.298   2.469   6.698 -0.0283 -1.8413 -2.0495
17036TIP3   OH272522   0.408   3.696  15.723  0.5433 -0.4130 -0.2345
17036TIP3    H172523   0.376   3.726  15.639  0.4908 -0.7321 -0.3278
17036TIP3    H272524   0.456   3.771  15.759 -1.3698  0.5292  0.4940
17037TIP3   OH272525   1.823   0.533  11.417 -0.3131  0.2399 -0.6443
17037TIP3    H172526   1.892   0.512  11.354  0.7622 -1.1002  0.8750
17037TIP3    H272527   1.866   0.589  11.482 -0.8175 -0.0995 -0.0059
17038TIP3   OH272528   0.015   3.606  15.707  0.6716  0.4570  0.7350
17038TIP3    H172529   0.058   3.687  15.736  0.4818  0.9357 -0.3054
17038TIP3    H272530  -0.058   3.635  15.653  1.2215 -0.4094 -0.5181
17039TIP3   OH272531   0.952   5.879  14.255  0.1013  0.0421 -0.8240
17039TIP3    H172532   0.901   5.879  14.174 -0.2052 -0.5891 -0.6355
17039TIP3    H272533   0.952   5.971  14.283  1.0718  0.4541 -2.0616
17040TIP3   OH272534   4.226   4.296   1.351  0.1079 -0.3754  0.3190
17040TIP3    H172535   4.255   4.342   1.429  0.5317 -0.6449  0.3235
17040TIP3    H272536   4.250   4.353   1.278 -0.9291  0.2099  0.4155
17041TIP3   OH272537   4.688   3.781  13.962 -0.1236  0.7580  0.5365
17041TIP3    H172538   4.614   3.808  14.017 -1.0375  0.2828 -0.4233
17041TIP3    H272539   4.764   3.786  14.020 -1.3592 -2.1284  2.7034
17042TIP3   OH272540   5.049   0.928  12.482  0.1502 -0.6719 -0.4086
17042TIP3    H172541   5.014   0.908  12.569 -0.2503  1.6915  0.0378
17042TIP3    H272542   4.991   0.881  12.422 -2.1655  0.8933  0.4537
17043TIP3   OH272543   1.492   4.950   1.794  0.7750  0.4234 -0.3109
17043TIP3    H172544   1.444   4.952   1.711 -0.4011  0.3992  0.3511
17043TIP3    H272545   1.483   5.039   1.830 -0.9595 -0.2198  0.9967
17044TIP3   OH272546   0.218   2.513   0.815  0.3679 -0.3612  0.3293
17044TIP3    H172547   0.304   2.549   0.835 -0.0790  0.1657  1.4459
17044TIP3    H272548   0.187   2.478   0.899 -0.8123  0.1616  0.1404
17045TIP3   OH272549   0.873   5.313   3.039  0.0811  0.2119  0.5302
17045TIP3    H172550   0.804   5.290   3.101 -0.8136  0.8603 -0.1869
17045TIP3    H272551   0.950   5.330   3.093 -0.2320 -0.8173  1.3241
17046TIP3   OH272552   3.159   3.581   4.568 -0.0721 -0.5374 -0.0375
17046TIP3    H172553   3.119   3.496   4.588 -0.1495 -0.0061  2.2873
17046TIP3    H272554   3.206   3.566   4.486  0.7997 -3.1431  0.8282
17047TIP3   OH272555   4.867   2.074  11.455 -0.0586  0.4656  0.0959
17047TIP3    H172556   4.810   2.002  11.430  0.5117  0.0003  0.1014
17047TIP3    H272557   4.918   2.039  11.529 -1.6139  1.7538  1.8658
17048TIP3   OH272558   1.490   3.797  16.260 -0.3043  0.3216 -0.0282
17048TIP3    H172559   1.446   3.794  16.345 -0.2547  1.2244  0.0347
17048TIP3    H272560   1.418   3.801  16.196 -0.3275  1.0450  0.0398
17049TIP3   OH272561   2.493   0.859  13.080 -0.0305 -0.0986  0.2801
17049TIP3    H172562   2.440   0.797  13.029 -0.2068 -0.4845  0.9240
17049TIP3    H272563   2.471   0.945  13.044  0.9365 -0.4638 -1.2800
17050TIP3   OH272564   5.597   2.291   0.968  0.0083  0.4080 -0.0727
17050TIP3    H172565   5.549   2.327   0.894 -1.3737 -0.0718  0.5551
17050TIP3    H272566   5.539   2.303   1.043  1.5227  1.2250  1.0332
17051TIP3   OH272567   3.455   3.460  12.118  0.2897 -0.1391  0.5308
17051TIP3    H172568   3.472   3.442  12.026 -0.6979 -0.4079  0.3912
17051TIP3    H272569   3.499   3.389  12.165 -0.0094 -0.5353  0.2152
17052TIP3   OH272570   3.292   3.807  16.002 -0.2051  0.0805  0.5251
17052TIP3    H172571   3.371   3.860  15.992 -0.1907  0.0210  0.3071
17052TIP3    H272572   3.281   3.796  16.096 -0.1330  0.3580  0.5658
17053TIP3   OH272573   6.581   1.534   1.696 -0.4221 -0.9034 -0.3482
17053TIP3    H172574   6.588   1.629   1.709 -0.8946 -0.7215 -1.2769
17053TIP3    H272575   6.488   1.520   1.675 -0.4816 -1.6604  0.3871
17054TIP3   OH272576   5.440   5.002  13.518  0.7674 -0.2559  0.7922
17054TIP3    H172577   5.514   5.022  13.576 -0.3153  2.5148  1.3895
17054TIP3    H272578   5.363   5.031  13.567 -0.2017  2.5231 -2.0300
17055TIP3   OH272579   1.154   6.415  10.988  0.2724  0.0922 -0.5425
17055TIP3    H172580   1.128   6.396  10.898  0.5526 -0.6144 -0.4807
17055TIP3    H272581   1.125   6.505  11.003  0.3102  0.2513 -1.3716
17056TIP3   OH272582   1.491   1.825  13.606 -0.0024 -1.1355  0.5087
17056TIP3    H172583   1.554   1.770  13.653  0.4025 -0.9949  0.1405
17056TIP3    H272584   1.452   1.766  13.541 -0.9491 -1.4694  1.3490
17057TIP3   OH272585   5.116   6.416   2.201 -0.1648  0.3388  0.4870
17057TIP3    H172586   5.131   6.500   2.156 -1.5153  1.4315  1.9340
17057TIP3    H272587   5.197   6.399   2.249  0.5213  0.2319 -0.6953
17058TIP3   OH272588   2.855   3.728  11.273  0.3500  0.1188  0.3752
17058TIP3    H172589   2.931   3.769  11.232 -0.6949  3.0679  1.1565
17058TIP3    H272590   2.889   3.645  11.307  2.5994  0.2208 -1.3762
17059TIP3   OH272591   2.376   0.154  13.450  0.3957  0.3741  0.1356
17059TIP3    H172592   2.420   0.074  13.419  0.3053  0.6502 -0.7409
17059TIP3    H272593   2.438   0.194  13.510  1.2735  0.6412 -0.9043
17060TIP3   OH272594   1.165   3.247  15.349 -0.6612 -0.3137  0.5115
17060TIP3    H172595   1.133   3.288  15.429  1.0618  0.3652  0.8917
17060TIP3    H272596   1.243   3.297  15.326  0.1571 -1.9096 -0.3319
17061TIP3   OH272597   2.373   0.492  12.607  0.0615 -0.3382 -0.0030
17061TIP3    H172598   2.363   0.568  12.550 -0.7262 -0.8881 -0.6139
17061TIP3    H272599   2.302   0.500  12.671 -0.6851 -1.1143 -0.7217
17062TIP3   OH272600   2.931   5.912   4.820 -0.6544  0.3046  0.4348
17062TIP3    H172601   2.865   5.968   4.781  0.4251 -0.1880 -2.2870
17062TIP3    H272602   3.012   5.963   4.815  0.1081 -0.9799 -0.9751
17063TIP3   OH272603   5.973   3.578   5.232  0.2996  0.3393  0.0863
17063TIP3    H172604   6.063   3.570   5.262  0.9148  2.4977 -0.9108
17063TIP3    H272605   5.924   3.605   5.310  0.9777  1.3374  0.1927
17064TIP3   OH272606   6.486   2.006   3.315  0.5895  0.0982  0.2635
17064TIP3    H172607   6.539   2.068   3.366  2.7584  1.4577 -3.2874
17064TIP3    H272608   6.429   2.062   3.263  0.5203 -1.0232 -0.8965
17065TIP3   OH272609   6.493   3.404   5.290  0.0237 -0.2154 -0.5214
17065TIP3    H172610   6.431   3.440   5.226 -2.2042  0.4799  1.8444
17065TIP3    H272611   6.549   3.479   5.313 -1.5045  0.5762  0.8672
17066TIP3   OH272612   3.857   3.025   4.536 -0.4403  0.0659  0.1128
17066TIP3    H172613   3.937   3.033   4.485  1.0995  0.9304  2.5317
17066TIP3    H272614   3.821   2.940   4.511  1.9543 -0.9649 -0.0469
17067TIP3   OH272615   0.516   3.055  16.630 -0.1963 -0.1324 -0.0904
17067TIP3    H172616   0.521   3.108  16.709  0.2699  1.1873 -0.9677
17067TIP3    H272617   0.521   2.964  16.661  1.7516  0.3743  1.2652
17068TIP3   OH272618   0.804   0.600   2.662  0.5471  0.3097 -0.6583
17068TIP3    H172619   0.728   0.565   2.615  1.5056  0.4947 -2.4242
17068TIP3    H272620   0.880   0.564   2.616  1.5460  1.0810  0.3231
17069TIP3   OH272621   6.471   0.654  16.096  0.0369  0.2255 -0.0971
17069TIP3    H172622   6.513   0.582  16.143  0.3452  0.8834  0.6586
17069TIP3    H272623   6.525   0.666  16.017  2.7526  2.4961  1.8641
17070TIP3   OH272624   1.293   4.205   6.104  0.2242  0.3669  0.7757
17070TIP3    H172625   1.267   4.147   6.176 -0.1987  0.7891  0.9702
17070TIP3    H272626   1.387   4.190   6.093  0.4413  0.8101  1.8879
17071TIP3   OH272627   4.577   3.840  17.286  0.7011  0.0215 -0.1664
17071TIP3    H172628   4.507   3.868  17.345 -0.4699 -1.2418 -0.8954
17071TIP3    H272629   4.643   3.801  17.343 -1.0850 -2.5773  0.2747
17072TIP3   OH272630   0.433   6.422   1.850  0.4617  0.0532 -0.3077
17072TIP3    H172631   0.526   6.447   1.857  0.7214  0.1215 -2.7848
17072TIP3    H272632   0.386   6.506   1.853  0.3263 -0.0565  2.0678
17073TIP3   OH272633   4.558   1.562   1.697  0.0590 -0.0857 -0.1915
17073TIP3    H172634   4.613   1.485   1.681 -0.3583  0.0665 -2.8687
17073TIP3    H272635   4.583   1.624   1.629 -1.9027  0.8516 -0.1329
17074TIP3   OH272636   4.910   6.731   0.211  0.1310  0.6579 -0.3603
17074TIP3    H172637   4.916   6.728   0.116 -1.8345  0.4407 -0.5312
17074TIP3    H272638   4.868   6.816   0.230  0.7479  0.8202  0.3404
17075TIP3   OH272639   4.055   5.684   6.058 -0.6454  0.2257  0.1262
17075TIP3    H172640   4.052   5.655   5.966  1.6875 -1.7605  0.5633
17075TIP3    H272641   3.992   5.628   6.103 -0.4111 -0.1410  0.0100
17076TIP3   OH272642   1.871   1.169  11.605  0.3602  0.1995  0.0162
17076TIP3    H172643   1.966   1.180  11.609  0.3609  0.0551  0.3938
17076TIP3    H272644   1.858   1.102  11.538  0.6708 -1.4932  1.5691
17077TIP3   OH272645   2.919   5.882   2.549  0.4197 -0.0826  0.0438
17077TIP3    H172646   2.849   5.908   2.489  0.9038 -1.1344 -1.0162
17077TIP3    H272647   2.985   5.952   2.541  0.1180  0.1977 -0.0075
17078TIP3   OH272648   2.501   3.871   1.178 -0.4262  0.1691  0.7989
17078TIP3    H172649   2.579   3.826   1.145 -0.8138  0.0191  0.0668
17078TIP3    H272650   2.532   3.959   1.202  0.3300 -0.4605  2.2204
17079TIP3   OH272651   3.152   6.701  13.729 -0.4725  0.1362  0.4384
17079TIP3    H172652   3.127   6.679  13.819 -1.7600 -2.8092 -0.5329
17079TIP3    H272653   3.188   6.620  13.694 -0.8361  0.9563 -2.0002
17080TIP3   OH272654   1.240   0.199   0.543 -0.0761 -0.6231 -0.1958
17080TIP3    H172655   1.329   0.210   0.576 -0.4527 -0.2457  0.7186
17080TIP3    H272656   1.245   0.123   0.486  0.6291 -1.1875  0.5951
17081TIP3   OH272657   2.339   0.655   0.655 -0.4430  0.4618 -0.0973
17081TIP3    H172658   2.382   0.738   0.677 -0.6630  0.4887  0.2251
17081TIP3    H272659   2.268   0.680   0.597  0.4311  0.3443 -1.2641
17082TIP3   OH272660   3.735   4.241   4.640  0.1153  0.7022 -0.7279
17082TIP3    H172661   3.659   4.270   4.590 -0.4879 -0.4591 -0.5114
17082TIP3    H272662   3.756   4.315   4.697  0.1638  1.6490 -1.9246
17083TIP3   OH272663   1.625   0.873   0.710  0.8480  0.4509 -0.2912
17083TIP3    H172664   1.588   0.936   0.773 -1.0132 -0.8283 -0.0177
17083TIP3    H272665   1.719   0.892   0.710  0.4219  2.9967  0.0141
17084TIP3   OH272666   0.622   1.923   5.542 -0.0758 -0.3690  0.5845
17084TIP3    H172667   0.626   1.999   5.484  0.5779  0.1341  1.2772
17084TIP3    H272668   0.646   1.849   5.486  0.2440  0.0661  0.1360
17085TIP3   OH272669   6.433   2.766   1.313  0.0003 -0.3684  0.3689
17085TIP3    H172670   6.360   2.707   1.335  0.5348 -1.0059  0.4503
17085TIP3    H272671   6.462   2.800   1.397  1.6093 -2.2917  0.6620
17086TIP3   OH272672   2.199   4.197  14.950 -0.2921 -0.0787 -0.6677
17086TIP3    H172673   2.262   4.178  14.879 -0.4524  1.2517 -1.1966
17086TIP3    H272674   2.216   4.129  15.015  1.9229  0.3804 -0.6593
17087TIP3   OH272675   1.698   6.452  16.961 -0.3766 -0.4007  0.0644
17087TIP3    H172676   1.758   6.474  17.033 -0.6513  0.1377  0.1364
17087TIP3    H272677   1.631   6.520  16.965  0.0975  0.1841 -1.2745
17088TIP3   OH272678   2.102   4.243   5.229 -0.1897  0.3628 -0.0069
17088TIP3    H172679   2.098   4.339   5.221  0.1899  0.5794  1.9526
17088TIP3    H272680   2.177   4.218   5.175  0.1655  1.2602  0.0540
17089TIP3   OH272681   5.047   4.766   5.676  0.0924  0.1092 -0.5565
17089TIP3    H172682   5.062   4.672   5.662 -1.7870 -0.1845 -0.8924
17089TIP3    H272683   4.963   4.783   5.634 -1.3721  1.1675  2.4784
17090TIP3   OH272684   4.935   4.952   2.425  0.7503 -0.3155 -0.1053
17090TIP3    H172685   4.855   4.969   2.376  0.2545 -0.2749  0.7032
17090TIP3    H272686   4.970   5.039   2.445  0.9968 -0.3330 -0.4554
17091TIP3   OH272687   6.222   5.317   5.636  0.3357 -0.5109 -0.4679
17091TIP3    H172688   6.181   5.392   5.594  2.0841 -0.1731 -1.6688
17091TIP3    H272689   6.184   5.315   5.724 -3.0978 -0.9689 -1.8033
17092TIP3   OH272690   5.865   5.902   5.615 -0.1474  0.0799 -0.2273
17092TIP3    H172691   5.804   5.975   5.626 -0.0246  0.7276 -3.1193
17092TIP3    H272692   5.946   5.942   5.583  0.2945 -1.2171 -0.7950
17093TIP3   OH272693   3.303   0.121  16.704  0.1299 -0.5496  0.5163
17093TIP3    H172694   3.303   0.067  16.783  1.4702 -0.6300  0.4821
17093TIP3    H272695   3.368   0.188  16.720  3.4804 -2.8706 -1.9844
17094TIP3   OH272696   5.909   4.934  11.027 -0.0386 -1.1239 -0.0709
17094TIP3    H172697   5.829   4.930  11.080  0.3218 -0.8521  0.5144
17094TIP3    H272698   5.923   5.027  11.012  0.1353 -1.1737 -0.2226
17095TIP3   OH272699   6.491   1.493   4.920 -0.1252 -0.3727  0.4032
17095TIP3    H172700   6.537   1.435   4.981  0.5339  0.0632  0.3394
17095TIP3    H272701   6.546   1.572   4.917 -0.5913 -0.0625 -0.1133
17096TIP3   OH272702   0.167   0.271  13.028  0.3926 -0.1459  0.3778
17096TIP3    H172703   0.231   0.338  13.003 -0.2443  0.6737  0.9088
17096TIP3    H272704   0.152   0.222  12.947  0.0015  1.0891 -0.3334
17097TIP3   OH272705   3.867   5.785  11.386 -0.1316 -0.0334  0.5615
17097TIP3    H172706   3.908   5.750  11.307 -1.0930  0.0399  0.0181
17097TIP3    H272707   3.940   5.824  11.436  0.8552 -2.0191  0.7939
17098TIP3   OH272708   4.176   1.024   3.986 -0.0155 -0.4040 -0.2773
17098TIP3    H172709   4.205   1.091   3.924 -0.6583  0.5741  0.4433
17098TIP3    H272710   4.119   0.968   3.934  1.4611 -1.1248 -1.1855
17099TIP3   OH272711   0.790   5.875  13.659 -0.0857  0.4331 -0.7971
17099TIP3    H172712   0.732   5.824  13.716  1.3384 -0.0684  0.2739
17099TIP3    H272713   0.813   5.952  13.710  2.6491 -0.8723  0.1942
17100TIP3   OH272714   1.028   1.235   1.224  0.0837  0.0211 -0.3649
17100TIP3    H172715   1.076   1.292   1.284 -1.3218 -2.5125  3.5728
17100TIP3    H272716   1.096   1.182   1.182  1.1417  2.1251 -1.4483
17101TIP3   OH272717   1.622   3.105  13.628 -0.5018  0.0601 -0.6264
17101TIP3    H172718   1.695   3.144  13.580  0.0456 -1.0127 -0.6924
17101TIP3    H272719   1.619   3.153  13.711  0.8736 -0.4748 -0.2369
17102TIP3   OH272720   2.942   4.099  13.260  0.6343 -0.0979 -0.0912
17102TIP3    H172721   2.939   4.180  13.210 -0.8494 -0.0876 -0.0490
17102TIP3    H272722   2.869   4.047  13.224  2.8521 -2.3570 -1.6510
17103TIP3   OH272723   1.112   4.660   2.242 -0.6262  0.2642 -0.3236
17103TIP3    H172724   1.143   4.699   2.160  0.7946  0.3261  0.2029
17103TIP3    H272725   1.064   4.582   2.214  2.2589 -1.3663 -1.2230
17104TIP3   OH272726   1.008   6.772   2.040 -0.1554 -0.4834 -0.5030
17104TIP3    H172727   1.031   6.757   1.949  0.5752 -1.8940 -0.1167
17104TIP3    H272728   1.027   6.689   2.084 -1.0037 -0.0085  0.8348
17105TIP3   OH272729   4.640   0.418   3.261  0.0238 -0.2363 -0.6111
17105TIP3    H172730   4.658   0.427   3.167 -0.9759 -0.6231 -0.8544
17105TIP3    H272731   4.623   0.324   3.273 -4.5396  0.3072 -0.9897
17106TIP3   OH272732   4.930   1.069   0.162  0.6723 -0.0622  0.6660
17106TIP3    H172733   4.859   1.047   0.103  0.5030 -0.1023  0.8851
17106TIP3    H272734   4.963   0.984   0.193  0.7173 -0.0391  0.6825
17107TIP3   OH272735   1.813   2.448  13.188 -0.3135 -0.9523  0.7826
17107TIP3    H172736   1.786   2.461  13.097  1.7439  0.2488  0.2703
17107TIP3    H272737   1.822   2.353  13.198  0.2166 -1.0572 -0.5256
17108TIP3   OH272738   0.941   2.436  13.559 -0.0218  0.1460 -0.0481
17108TIP3    H172739   0.936   2.501  13.489 -2.0899  1.1369  0.9037
17108TIP3    H272740   0.875   2.371  13.536  1.8156 -1.5139 -0.8276
17109TIP3   OH272741   2.378   6.282  14.358 -0.0389  0.4267 -0.0466
17109TIP3    H172742   2.426   6.205  14.388  1.5583  1.2970 -0.2941
17109TIP3    H272743   2.445   6.342  14.326 -1.1646  2.2558  0.8318
17110TIP3   OH272744   3.806   3.805  14.382  0.4775 -0.1763  0.3124
17110TIP3    H172745   3.809   3.710  14.371 -0.2471 -0.6056  3.0169
17110TIP3    H272746   3.713   3.824  14.399  0.6350  0.9916 -0.0730
17111TIP3   OH272747   0.362   0.724  12.802  0.3051  0.8152 -0.4918
17111TIP3    H172748   0.286   0.680  12.839  0.0631  1.1060 -0.6461
17111TIP3    H272749   0.327   0.779  12.732  0.8454 -0.3840 -1.7650
17112TIP3   OH272750   3.205   4.716   2.456  0.2909 -0.7063 -0.1850
17112TIP3    H172751   3.145   4.786   2.431  0.9114 -0.0267  0.1935
17112TIP3    H272752   3.151   4.637   2.456 -0.7866  0.0088  0.9187
17113TIP3   OH272753   5.979   3.296  13.058  0.5484  0.1034 -0.1931
17113TIP3    H172754   5.895   3.277  13.017  1.1962  0.1127 -1.5604
17113TIP3    H272755   5.971   3.387  13.087  0.6596  0.6548 -1.8227
17114TIP3   OH272756   2.141   5.411  12.290 -0.2753 -0.0753  0.1120
17114TIP3    H172757   2.163   5.325  12.326  1.0675  0.4457  0.6214
17114TIP3    H272758   2.185   5.413  12.205  0.2282  0.3239  0.3737
17115TIP3   OH272759   5.158   4.677   5.977  0.3969  0.2615  0.6880
17115TIP3    H172760   5.163   4.684   6.072 -0.5906  2.5400  0.6506
17115TIP3    H272761   5.105   4.600   5.961  2.0205 -1.1768  1.9000
17116TIP3   OH272762   4.368   1.832  12.143  0.0652 -0.1450  0.6077
17116TIP3    H172763   4.291   1.888  12.140  0.7618  1.0862  3.0639
17116TIP3    H272764   4.346   1.765  12.208 -0.3223 -2.1704 -1.4625
17117TIP3   OH272765   3.145   3.304   4.188 -0.4618  0.2382  0.2298
17117TIP3    H172766   3.208   3.232   4.179 -1.5513 -1.0411  2.0808
17117TIP3    H272767   3.081   3.290   4.119  0.4753  0.7212 -0.7658
17118TIP3   OH272768   4.425   2.737   1.443 -0.7489  1.0739  0.3170
17118TIP3    H172769   4.401   2.829   1.431 -1.9604  0.5786 -1.3452
17118TIP3    H272770   4.451   2.707   1.356  2.7447  0.6055  1.3441
17119TIP3   OH272771   0.542   0.113   5.053 -0.3806  0.7643 -0.1922
17119TIP3    H172772   0.459   0.098   5.099  0.8671 -0.9467  1.7190
17119TIP3    H272773   0.538   0.056   4.977 -0.2850 -0.7074  0.8680
17120TIP3   OH272774   4.030   5.013  12.772  0.2143  0.1756 -0.1225
17120TIP3    H172775   3.945   4.969  12.776  0.0397  0.5582  0.7141
17120TIP3    H272776   4.094   4.942  12.768 -0.0630 -0.1816  1.2192
17121TIP3   OH272777   4.887   1.003  16.033  0.3196  0.6987  0.2211
17121TIP3    H172778   4.876   0.931  15.970  0.7031  0.6117  0.2522
17121TIP3    H272779   4.867   0.964  16.118 -0.6822  0.9400  0.1025
17122TIP3   OH272780   4.964   3.931  11.617  0.6987  0.0236  0.2116
17122TIP3    H172781   4.874   3.902  11.627  0.6865  0.1885  0.5836
17122TIP3    H272782   4.988   3.906  11.527  0.3651 -0.2363  0.1956
17123TIP3   OH272783   2.358   6.049   0.748 -0.3379  0.0995  0.1989
17123TIP3    H172784   2.408   5.972   0.778  0.8513  0.8036  0.0565
17123TIP3    H272785   2.295   6.064   0.818  1.1840  0.5827  1.5398
17124TIP3   OH272786   2.480   4.110   4.579 -0.9182 -0.0319  0.3098
17124TIP3    H172787   2.527   4.053   4.519  1.2308  0.7837  1.1148
17124TIP3    H272788   2.430   4.169   4.523  0.3294  0.1379 -0.6725
17125TIP3   OH272789   5.745   2.555  15.283  0.0401 -0.2089  0.4892
17125TIP3    H172790   5.841   2.549  15.287  0.0383 -0.4418  0.2198
17125TIP3    H272791   5.718   2.474  15.239 -0.3083 -0.3301  0.9286
17126TIP3   OH272792   0.269   3.459  11.478  0.4808 -0.2829 -0.0604
17126TIP3    H172793   0.353   3.467  11.523  0.7145  2.5245 -0.7892
17126TIP3    H272794   0.293   3.446  11.386  0.0928 -0.7073 -0.1029
17127TIP3   OH272795   1.198   0.971   1.494 -0.1904  0.1396  0.3167
17127TIP3    H172796   1.257   0.898   1.475 -1.1024 -0.2778 -1.0495
17127TIP3    H272797   1.254   1.037   1.536  0.7580 -1.1210  1.0988
17128TIP3   OH272798   5.371   5.830  15.763 -0.6563  0.3052 -0.4734
17128TIP3    H172799   5.400   5.769  15.695  0.1341 -0.2866  0.3848
17128TIP3    H272800   5.451   5.861  15.804 -1.0713  1.5980 -0.5960
17129TIP3   OH272801   6.194   6.219   3.758  0.6763 -0.8165 -0.4294
17129TIP3    H172802   6.155   6.282   3.818  0.9588 -0.7647 -0.3008
17129TIP3    H272803   6.274   6.190   3.801  0.4644 -1.3949 -0.4107
17130TIP3   OH272804   5.976   0.116   0.527  0.0357 -0.0444 -0.2290
17130TIP3    H172805   6.031   0.071   0.462  0.5482  0.6838 -0.3128
17130TIP3    H272806   5.950   0.197   0.483  1.4442  1.0808  0.9102
17131TIP3   OH272807   2.096   4.431   4.378 -0.7347  0.1513  0.4589
17131TIP3    H172808   2.026   4.366   4.370  0.7296 -1.3121 -2.1760
17131TIP3    H272809   2.070   4.501   4.318 -0.4980  0.1269  0.3253
17132TIP3   OH272810   4.646   0.182  12.164  0.0211  0.1329  0.7513
17132TIP3    H172811   4.650   0.260  12.108 -1.1998 -0.7566 -0.6372
17132TIP3    H272812   4.555   0.180  12.196 -1.1717 -2.6398 -2.2417
17133TIP3   OH272813   2.493   0.088   5.126  0.0523 -0.3767 -0.0162
17133TIP3    H172814   2.479   0.081   5.032  1.2143 -1.5886 -0.1350
17133TIP3    H272815   2.554   0.017   5.146  0.4987  0.3906  1.5078
17134TIP3   OH272816   0.063   6.069   5.642  0.1838 -0.4132 -0.5548
17134TIP3    H172817   0.028   6.042   5.557 -2.8244  1.0454  0.0462
17134TIP3    H272818   0.003   6.030   5.706  0.1228  1.4964  0.6502
17135TIP3   OH272819   4.733   2.191   5.612 -0.7794  0.9269 -0.0830
17135TIP3    H172820   4.721   2.096   5.601 -0.7438  1.0282 -1.1082
17135TIP3    H272821   4.779   2.200   5.695  1.6562 -0.1378 -1.2279
17136TIP3   OH272822   1.917   6.257  13.372  0.4462  0.0544 -0.1235
17136TIP3    H172823   1.980   6.186  13.381 -0.6970 -1.0896 -0.6978
17136TIP3    H272824   1.836   6.222  13.409 -0.0288  1.2456  0.0221
17137TIP3   OH272825   6.762   5.524  12.873 -0.7194  0.0469  0.0615
17137TIP3    H172826   6.809   5.493  12.951  0.3210 -0.1052 -0.6108
17137TIP3    H272827   6.728   5.445  12.833 -0.9482  0.0922  0.1648
17138TIP3   OH272828   5.320   2.459   4.073 -0.5848  0.0442  0.0774
17138TIP3    H172829   5.390   2.525   4.076 -1.0161  0.6477 -1.6649
17138TIP3    H272830   5.317   2.423   4.161 -0.2384  2.2767  1.0829
17139TIP3   OH272831   4.023   2.501  16.820 -0.2694  0.1151 -0.0877
17139TIP3    H172832   3.973   2.572  16.780  1.0795  1.6986  0.9106
17139TIP3    H272833   4.112   2.512  16.786 -0.0273 -1.1011  0.1098
17140TIP3   OH272834   4.439   0.536   5.096  0.2003  0.2354  0.2457
17140TIP3    H172835   4.479   0.449   5.094  0.2031  0.2226  0.6512
17140TIP3    H272836   4.504   0.594   5.058 -0.0812 -0.0454 -0.6763
17141TIP3   OH272837   0.867   3.345  12.109  0.1697 -0.0699 -0.0824
17141TIP3    H172838   0.798   3.280  12.125  1.4750 -1.0669  1.9449
17141TIP3    H272839   0.945   3.293  12.090  0.7927  0.9850 -0.4730
17142TIP3   OH272840   6.191   0.452  11.904  0.2267  0.2205 -0.7999
17142TIP3    H172841   6.106   0.483  11.872 -0.5424  0.4921  1.3574
17142TIP3    H272842   6.170   0.386  11.970  1.6438  0.7693  0.2608
17143TIP3   OH272843   6.373   3.106  13.220  0.3714 -0.0878 -0.0205
17143TIP3    H172844   6.289   3.066  13.240  0.5010  0.4524  1.7493
17143TIP3    H272845   6.351   3.184  13.169 -0.1915 -0.0239  0.3181
17144TIP3   OH272846   5.515   2.234   4.389  0.3630  0.4521  0.2413
17144TIP3    H172847   5.463   2.154   4.378  0.0237  0.3651  2.0809
17144TIP3    H272848   5.577   2.232   4.316 -0.8982 -0.4693 -0.8709
17145TIP3   OH272849   1.272   5.590  12.908  0.2519 -0.5262 -0.2103
17145TIP3    H172850   1.258   5.594  12.813 -2.9387  0.2615  0.1984
17145TIP3    H272851   1.301   5.500  12.924 -1.0091 -1.2491 -1.7646
17146TIP3   OH272852   5.199   6.462   3.252 -0.3747 -0.3180  0.0985
17146TIP3    H172853   5.212   6.551   3.284  1.4388 -0.3848 -0.3857
17146TIP3    H272854   5.146   6.419   3.320 -0.3159  0.7942  0.8591
17147TIP3   OH272855   0.779   3.943   1.041  0.1628  0.5780  0.1011
17147TIP3    H172856   0.724   3.955   1.118  0.1810  0.4807  0.1295
17147TIP3    H272857   0.752   4.012   0.980 -3.3067 -2.2040 -1.8552
17148TIP3   OH272858   5.853   4.513   5.747 -0.4239  0.6623  0.4550
17148TIP3    H172859   5.792   4.468   5.806 -1.1458  2.3926  1.1113
17148TIP3    H272860   5.920   4.448   5.727 -2.3562 -1.2762 -0.1358
17149TIP3   OH272861   6.165   2.366   6.006 -0.0869  0.0568  0.0892
17149TIP3    H172862   6.101   2.339   5.940 -1.0309  1.0718  0.5562
17149TIP3    H272863   6.195   2.452   5.976  0.0105  0.2033  0.5994
17150TIP3   OH272864   1.514   6.368  13.623  0.2083 -0.2586  0.0766
17150TIP3    H172865   1.563   6.309  13.680 -0.2765 -1.3397 -0.5934
17150TIP3    H272866   1.506   6.320  13.540 -1.7362 -0.0317  0.0742
17151TIP3   OH272867   2.751   3.920  11.039  0.2427  0.1007 -0.0710
17151TIP3    H172868   2.833   3.871  11.028  1.2058  1.6852 -0.1811
17151TIP3    H272869   2.715   3.927  10.951 -0.9523 -2.0667  0.1703
17152TIP3   OH272870   2.293   6.431   5.889 -0.3750  0.7492 -0.2011
17152TIP3    H172871   2.227   6.436   5.958  1.1180 -1.7346  1.6015
17152TIP3    H272872   2.376   6.427   5.935  0.6835 -1.3852 -2.0427
17153TIP3   OH272873   4.464   1.457  15.102  0.9928 -0.0270  0.1846
17153TIP3    H172874   4.474   1.550  15.124  2.3292 -0.2322  0.5621
17153TIP3    H272875   4.441   1.415  15.184  1.7243 -0.1970  0.3147
17154TIP3   OH272876   0.350   2.775   2.561  0.1059 -0.3811 -1.1844
17154TIP3    H172877   0.331   2.688   2.524 -1.8986 -0.7251  0.4850
17154TIP3    H272878   0.435   2.764   2.604 -0.9420 -2.1109  0.5840
17155TIP3   OH272879   6.318   1.607  11.286 -0.0814  0.0008  0.0448
17155TIP3    H172880   6.297   1.690  11.242  0.2127 -0.1513 -0.3921
17155TIP3    H272881   6.398   1.625  11.335 -0.0338 -0.0168 -0.0265
17156TIP3   OH272882   2.295   0.883  17.031 -0.8084  0.1375  0.0505
17156TIP3    H172883   2.288   0.903  16.937  0.4314  0.9067  0.0962
17156TIP3    H272884   2.255   0.797  17.040  0.7335 -0.8124 -1.5403
17157TIP3   OH272885   0.167   0.745  10.249  0.1155 -0.1797  0.1114
17157TIP3    H172886   0.247   0.752  10.197 -0.7893  0.4401 -1.2509
17157TIP3    H272887   0.191   0.687  10.321  1.8642  0.2005 -0.1103
17158TIP3   OH272888   5.457   6.545   3.168  0.0620  0.2249 -0.5351
17158TIP3    H172889   5.473   6.492   3.090 -0.7870  0.6916 -1.0458
17158TIP3    H272890   5.373   6.512   3.203  0.5007 -0.0762  0.2704
17159TIP3   OH272891   3.971   6.489  13.280 -0.0623 -0.2388 -0.1053
17159TIP3    H172892   3.928   6.455  13.358 -0.7349 -0.6982 -0.6631
17159TIP3    H272893   4.043   6.429  13.264 -0.0322 -0.2458  0.0527
17160TIP3   OH272894   3.743   4.862  13.192 -0.4664 -0.0657  0.4926
17160TIP3    H172895   3.812   4.803  13.163  1.9230  2.6269  0.2104
17160TIP3    H272896   3.689   4.877  13.114 -0.5999 -1.1462  0.3613
17161TIP3   OH272897   5.330   2.304   2.084  0.1276 -0.2699 -0.0578
17161TIP3    H172898   5.304   2.393   2.107  0.8051 -0.2637  0.7695
17161TIP3    H272899   5.339   2.259   2.168 -0.6221 -1.2573 -0.4757
17162TIP3   OH272900   1.776   2.316   1.863 -0.4218  0.5050  0.4284
17162TIP3    H172901   1.723   2.264   1.925  0.0057 -1.0527 -0.4637
17162TIP3    H272902   1.744   2.406   1.874 -2.3100 -0.1723  0.8982
17163TIP3   OH272903   4.463   3.884   5.888  0.1236 -0.1375 -0.1569
17163TIP3    H172904   4.449   3.921   5.975 -3.2118 -3.2826  0.8592
17163TIP3    H272905   4.545   3.835   5.896  0.9691  1.3204  0.4942
17164TIP3   OH272906   5.587   6.012   4.504 -0.4199  0.2994  0.0805
17164TIP3    H172907   5.613   6.070   4.433 -1.0357 -0.4078 -0.7436
17164TIP3    H272908   5.547   5.937   4.460 -2.4714  0.6443  1.1996
17165TIP3   OH272909   3.749   6.247  16.986  0.5758  0.1086  0.1272
17165TIP3    H172910   3.749   6.284  17.074  1.6042  0.2693  0.0749
17165TIP3    H272911   3.729   6.321  16.929 -0.4120 -0.0629  0.2431
17166TIP3   OH272912   5.708   6.572  14.532  0.0653 -0.7049 -0.4538
17166TIP3    H172913   5.769   6.540  14.598 -0.8384  0.9264  1.2660
17166TIP3    H272914   5.656   6.496  14.508  1.8435 -1.8192 -0.9827
17167TIP3   OH272915   5.318   4.551  16.649  0.6601  1.0922 -0.7101
17167TIP3    H172916   5.393   4.545  16.708  1.1057  1.6418 -1.2037
17167TIP3    H272917   5.266   4.473  16.668  0.4475  1.5832  0.8595
17168TIP3   OH272918   0.623   0.690  14.524 -0.4463  0.0028  0.5121
17168TIP3    H172919   0.679   0.759  14.490  0.9212 -0.5080  1.6057
17168TIP3    H272920   0.580   0.729  14.600 -1.4794  0.3387 -0.2222
17169TIP3   OH272921   3.639   4.440  16.402  0.2611 -0.3510 -0.5100
17169TIP3    H172922   3.667   4.434  16.311 -2.8895  0.9457 -1.7062
17169TIP3    H272923   3.558   4.390  16.406  0.9837 -1.5118  1.9811
17170TIP3   OH272924   3.931   4.361  12.090  0.3811 -0.0624 -0.0505
17170TIP3    H172925   3.884   4.278  12.086  0.7740 -0.2862 -0.0713
17170TIP3    H272926   4.022   4.337  12.101  0.4022  0.3818  0.8647
17171TIP3   OH272927   4.238   6.313   3.399  0.2944 -0.3609 -0.5025
17171TIP3    H172928   4.157   6.364   3.397 -0.4158 -1.3763  0.8434
17171TIP3    H272929   4.295   6.357   3.336 -1.0586  0.7694 -1.0027
17172TIP3   OH272930   3.530   5.023   4.257  0.1008 -0.5875 -0.1931
17172TIP3    H172931   3.505   5.057   4.170  0.2279  0.0519  0.0116
17172TIP3    H272932   3.450   4.982   4.289 -0.9789  1.9884  0.7150
17173TIP3   OH272933   2.223   5.029   5.334  0.1264 -0.0513 -0.0394
17173TIP3    H172934   2.185   5.014   5.421 -0.1287  0.9152  0.0298
17173TIP3    H272935   2.148   5.025   5.274  0.0869  0.6768 -0.0438
17174TIP3   OH272936   0.935   0.285   0.052 -0.2298 -0.7208  0.2862
17174TIP3    H172937   0.991   0.347   0.098  1.3138 -1.0619 -1.0294
17174TIP3    H272938   0.925   0.212   0.113  1.4327 -0.9919  0.2681
17175TIP3   OH272939   4.075   1.768  13.840 -0.1120 -0.7338 -0.0992
17175TIP3    H172940   4.047   1.786  13.750  0.7189  0.9851 -0.0467
17175TIP3    H272941   4.169   1.757  13.834  0.2764  1.5133  0.7910
17176TIP3   OH272942   5.734   3.961  13.803  0.0180  1.1465  0.3322
17176TIP3    H172943   5.642   3.935  13.809 -0.2211  0.6036 -3.6180
17176TIP3    H272944   5.782   3.879  13.791  0.4603  1.6882 -1.8991
17177TIP3   OH272945   4.274   1.674  12.348 -0.7340 -0.5656  0.0978
17177TIP3    H172946   4.346   1.649  12.407  0.4615  0.2258 -0.9749
17177TIP3    H272947   4.209   1.714  12.406  0.0557 -0.5324  0.9959
17178TIP3   OH272948   4.599   0.996   3.321  0.7971 -0.3027 -0.2053
17178TIP3    H172949   4.575   1.088   3.329  1.8483  0.1925 -2.2493
17178TIP3    H272950   4.515   0.949   3.329  0.1081  0.8861 -0.2398
17179TIP3   OH272951   4.037   5.504  11.433 -0.1217 -0.4611  0.1381
17179TIP3    H172952   4.020   5.566  11.362 -1.6762 -2.1563 -1.0695
17179TIP3    H272953   3.957   5.506  11.486  1.1168  0.9958  2.1216
17180TIP3   OH272954   0.749   1.357   3.741  0.3088  0.4137 -0.0095
17180TIP3    H172955   0.753   1.448   3.710 -0.7604 -0.4018 -2.8439
17180TIP3    H272956   0.832   1.343   3.787  0.9122  2.5167 -0.3649
17181TIP3   OH272957   0.149   1.337  12.530  0.1167  0.2761  0.1204
17181TIP3    H172958   0.106   1.289  12.459  2.6180 -0.3051 -1.1075
17181TIP3    H272959   0.180   1.418  12.488  1.3569  0.0715  0.6067
17182TIP3   OH272960   3.861   3.942  16.623 -0.2087  0.6128 -0.4569
17182TIP3    H172961   3.783   3.931  16.569  0.6691 -1.5636 -1.4308
17182TIP3    H272962   3.843   3.893  16.703 -0.4209  1.4183 -0.0073
17183TIP3   OH272963   4.602   4.717  15.018 -0.1268 -0.0737 -0.1668
17183TIP3    H172964   4.515   4.739  14.984 -0.9060 -0.9897  1.1163
17183TIP3    H272965   4.612   4.773  15.095  0.7840  0.6093 -0.7696
17184TIP3   OH272966   5.516   1.731  12.984  0.4233  0.2825 -0.0662
17184TIP3    H172967   5.577   1.781  12.930  0.7002  0.4851  0.4210
17184TIP3    H272968   5.436   1.726  12.932  0.2549  1.5780  0.0301
17185TIP3   OH272969   6.474   4.192  14.294 -0.1017 -0.2072  0.6304
17185TIP3    H172970   6.512   4.195  14.382 -0.1153  1.3811  0.6089
17185TIP3    H272971   6.481   4.100  14.268  3.7540 -0.1099  0.6368
17186TIP3   OH272972   2.301   3.872   5.263  0.6442 -0.7031  0.4250
17186TIP3    H172973   2.353   3.856   5.185  0.1094  2.5600 -0.7884
17186TIP3    H272974   2.214   3.839   5.241  0.3876  0.5772 -0.6003
17187TIP3   OH272975   6.230   4.083  16.855  0.5923 -0.1167 -0.1097
17187TIP3    H172976   6.303   4.116  16.908  0.4796 -1.9441  1.2875
17187TIP3    H272977   6.220   3.992  16.882 -0.0372 -0.9071 -2.7371
17188TIP3   OH272978   6.662   1.355   0.215 -0.2870  0.0276 -0.3471
17188TIP3    H172979   6.711   1.280   0.248 -1.6888  0.3654  2.9592
17188TIP3    H272980   6.579   1.318   0.185 -0.7110  0.1196  0.6567
17189TIP3   OH272981   1.934   3.596  17.244 -0.2599  0.0511 -0.0887
17189TIP3    H172982   1.982   3.532  17.297 -1.9277 -1.0770  0.1316
17189TIP3    H272983   1.846   3.598  17.281 -1.0609  0.3531 -1.8795
17190TIP3   OH272984   3.647   5.267   0.940  0.7963  0.0139  0.7642
17190TIP3    H172985   3.571   5.252   0.995  0.4229  1.3106  0.6432
17190TIP3    H272986   3.667   5.182   0.901 -1.7263  0.0031 -0.6651
17191TIP3   OH272987   5.166   2.242   2.969 -0.4757 -0.6971  0.3536
17191TIP3    H172988   5.126   2.319   3.008  1.5021  0.5503  0.0722
17191TIP3    H272989   5.097   2.204   2.915 -1.1585  1.5878 -0.4937
17192TIP3   OH272990   4.096   4.351   1.657  0.0173  0.0875  0.3816
17192TIP3    H172991   4.054   4.436   1.670  0.4372  0.3798 -0.1016
17192TIP3    H272992   4.181   4.372   1.617 -0.7912 -0.6526 -1.9231
17193TIP3   OH272993   1.002   6.198  14.772 -0.2813 -0.7645  0.9500
17193TIP3    H172994   0.944   6.272  14.755 -0.6514 -1.3738 -0.5887
17193TIP3    H272995   1.031   6.210  14.863 -2.3976 -0.1843  1.5895
17194TIP3   OH272996   1.176   0.948   4.092 -0.2976 -0.2831  0.3501
17194TIP3    H172997   1.147   0.880   4.153 -2.5765 -0.1798 -0.5261
17194TIP3    H272998   1.145   0.918   4.007  1.9357  0.0736 -0.6440
17195TIP3   OH272999   0.761   2.852  10.978 -0.2420  0.2034 -0.9218
17195TIP3    H173000   0.812   2.794  10.922  1.0605  1.0039 -0.6070
17195TIP3    H273001   0.685   2.875  10.926 -0.9554 -1.9695 -0.9668
17196TIP3   OH273002   0.939   4.156  12.545  0.3476  0.3475  0.1971
17196TIP3    H173003   0.985   4.074  12.528  0.2924  0.6643 -1.6555
17196TIP3    H273004   0.847   4.133  12.541  0.3328  0.3655  0.4277
17197TIP3   OH273005   4.942   6.344   4.069  0.5844  0.3417 -0.1584
17197TIP3    H173006   4.994   6.397   4.129  1.3692 -0.1510 -0.3958
17197TIP3    H273007   4.855   6.385   4.070  1.2398  1.8073 -0.5643
17198TIP3   OH273008   6.370   2.709  11.663  0.4908  0.0586 -0.1368
17198TIP3    H173009   6.283   2.674  11.643  0.1904  0.7269 -0.0315
17198TIP3    H273010   6.430   2.637  11.642  0.0151 -0.0246 -1.3219
17199TIP3   OH273011   5.173   1.578  11.651 -0.4339  0.2418 -0.6400
17199TIP3    H173012   5.171   1.642  11.580 -0.9106  0.8831 -0.0561
17199TIP3    H273013   5.113   1.509  11.623 -2.0309  1.3461 -0.0831
17200TIP3   OH273014   4.640   1.947  16.099 -0.8594 -0.0920  0.4493
17200TIP3    H173015   4.674   1.858  16.114  0.2436  0.3794  0.8502
17200TIP3    H273016   4.583   1.964  16.174  2.7900  1.3647  3.1701
17201TIP3   OH273017   3.313   1.853   5.623  0.4525  0.8282  0.1131
17201TIP3    H173018   3.310   1.881   5.531  0.7649  0.7831  0.0879
17201TIP3    H273019   3.356   1.768   5.621  0.9545  1.0719  0.3555
17202TIP3   OH273020   3.320   0.929   3.187 -0.5696  1.0452 -0.3639
17202TIP3    H173021   3.319   0.942   3.092  0.5351  0.1765 -0.5185
17202TIP3    H273022   3.297   1.014   3.223  0.5732  1.8232 -1.3841
17203TIP3   OH273023   2.248   6.121  17.205 -0.0160 -0.5902 -0.3604
17203TIP3    H173024   2.178   6.119  17.140 -0.5612  0.9226  0.1266
17203TIP3    H273025   2.203   6.137  17.288  0.8017 -0.9322  0.1619
17204TIP3   OH273026   0.483   2.491  14.789 -0.2765  0.7084  0.2097
17204TIP3    H173027   0.531   2.428  14.735 -2.3507  0.6747 -1.7572
17204TIP3    H273028   0.551   2.540  14.835  1.5069 -0.9934 -0.4724
17205TIP3   OH273029   2.865   0.931   3.844  0.2944  0.2190  0.3081
17205TIP3    H173030   2.947   0.949   3.799  0.2526  1.5432  0.6959
17205TIP3    H273031   2.801   0.920   3.774  0.3676  1.5286 -0.0014
17206TIP3   OH273032   2.447   0.622   0.977 -0.2214 -0.6176 -0.1932
17206TIP3    H173033   2.501   0.676   1.036 -0.5945 -1.3542  0.8524
17206TIP3    H273034   2.474   0.649   0.889 -1.2723  2.1843  0.2377
17207TIP3   OH273035   1.096   5.828  15.030 -0.0464 -0.1183 -0.0136
17207TIP3    H173036   1.169   5.825  14.967  1.2013 -1.8245  1.4139
17207TIP3    H273037   1.018   5.839  14.976  0.8733 -2.4535 -1.9799
17208TIP3   OH273038   0.644   1.199  14.458  0.0618 -0.6507  0.0957
17208TIP3    H173039   0.613   1.180  14.547  2.8867 -1.2464  1.0482
17208TIP3    H273040   0.683   1.117  14.428 -0.4174 -0.3208 -1.5460
17209TIP3   OH273041   3.150   3.434  11.529 -0.1458 -0.2732 -0.5036
17209TIP3    H173042   3.134   3.344  11.556  2.6888 -0.8593 -0.4973
17209TIP3    H273043   3.124   3.438  11.437 -1.9779 -0.5440 -0.0368
17210TIP3   OH273044   6.651   3.349  14.822 -0.5191 -0.5938 -0.2944
17210TIP3    H173045   6.736   3.385  14.849 -0.9454  0.0358  0.2413
17210TIP3    H273046   6.604   3.424  14.787 -0.6214 -1.0691 -1.1968
17211TIP3   OH273047   3.703   5.527  14.272  0.1486 -0.5911 -0.5423
17211TIP3    H173048   3.683   5.604  14.218  1.7114  0.0669 -0.2280
17211TIP3    H273049   3.684   5.453  14.215 -0.9028  0.0208 -1.0263
17212TIP3   OH273050   1.237   6.495  15.783 -0.1546  0.0054  0.1400
17212TIP3    H173051   1.302   6.472  15.716  0.4432  0.1877  0.6468
17212TIP3    H273052   1.283   6.482  15.866 -0.7789  0.1193  0.5066
17213TIP3   OH273053   0.667   1.756  12.021 -0.7323  0.4135 -0.6212
17213TIP3    H173054   0.633   1.845  12.022  0.0229  0.7526 -2.0250
17213TIP3    H273055   0.655   1.726  11.931  0.4185 -0.3217 -0.5599
17214TIP3   OH273056   0.633   3.879  16.396 -0.0075  0.4212  0.7000
17214TIP3    H173057   0.547   3.892  16.436 -0.6999 -2.1495  0.1952
17214TIP3    H273058   0.659   3.791  16.422  1.5267  0.3560 -0.8732
17215TIP3   OH273059   3.283   4.277   1.661 -0.2724 -0.1320  0.1814
17215TIP3    H173060   3.365   4.249   1.702  0.2311  0.4642 -0.3829
17215TIP3    H273061   3.311   4.330   1.586 -1.1766  0.1062 -0.0022
17216TIP3   OH273062   3.670   6.006  16.910 -0.0951  0.5010  0.5726
17216TIP3    H173063   3.698   6.071  16.976  1.4815  0.7840 -0.3235
17216TIP3    H273064   3.638   6.059  16.837  1.5509  0.3432 -0.3185
17217TIP3   OH273065   3.953   3.875   6.204 -0.0212 -0.5957 -0.2302
17217TIP3    H173066   3.955   3.875   6.300 -1.2976 -0.4418 -0.1908
17217TIP3    H273067   3.998   3.795   6.179  1.5769  0.0439  0.4504
17218TIP3   OH273068   4.782   6.531  16.979 -0.2619 -0.0538 -0.1289
17218TIP3    H173069   4.830   6.501  17.056 -0.6484 -2.1933 -0.6416
17218TIP3    H273070   4.701   6.479  16.980  0.0902 -0.7551 -2.3977
17219TIP3   OH273071   2.074   3.626   3.534  0.1477 -0.3619 -0.7891
17219TIP3    H173072   2.130   3.563   3.579  2.2791  1.0269 -1.3560
17219TIP3    H273073   2.037   3.577   3.460  2.5326 -0.7501 -1.8057
17220TIP3   OH273074   5.210   4.087  14.268  0.1450 -0.2636 -0.7413
17220TIP3    H173075   5.283   4.031  14.241  0.4588  0.0909 -0.6345
17220TIP3    H273076   5.236   4.175  14.239  0.4169  0.1095  0.5570
17221TIP3   OH273077   0.125   0.606  12.821 -0.0889 -0.5016  0.0009
17221TIP3    H173078   0.074   0.561  12.889  0.4473  2.0853  2.3303
17221TIP3    H273079   0.078   0.589  12.740 -3.3383 -0.2417  1.6747
17222TIP3   OH273080   5.486   3.771  17.214 -0.2924  0.3189  0.3954
17222TIP3    H173081   5.466   3.731  17.129 -1.2768 -0.0459  0.7815
17222TIP3    H273082   5.508   3.698  17.271 -1.0269  0.4131  0.8165
17223TIP3   OH273083   0.786   0.193  16.867  0.1015 -0.0046  0.0289
17223TIP3    H173084   0.861   0.236  16.825  2.1279 -3.7725 -0.7347
17223TIP3    H273085   0.818   0.167  16.953 -1.6109  1.3149  1.1290
17224TIP3   OH273086   0.308   2.465  16.457  0.0728 -0.2513 -0.5814
17224TIP3    H173087   0.371   2.529  16.425  0.3758 -0.7805 -1.0677
17224TIP3    H273088   0.262   2.509  16.529  1.7083 -0.1941  0.4892
17225TIP3   OH273089   1.764   6.729   1.627 -0.3741 -0.0107 -0.1594
17225TIP3    H173090   1.814   6.810   1.630 -1.2014  0.5710 -1.0879
17225TIP3    H273091   1.820   6.668   1.579  0.3918 -0.1094  0.8327
17226TIP3   OH273092   2.877   6.648  14.661 -0.5919  0.3000 -0.1134
17226TIP3    H173093   2.952   6.695  14.625  1.5776 -2.5168  0.3651
17226TIP3    H273094   2.817   6.637  14.587 -0.4018  2.2963 -0.5972
17227TIP3   OH273095   0.048   3.445  15.278 -0.2007 -0.1897 -0.0608
17227TIP3    H173096   0.110   3.504  15.236 -0.4812  0.1482 -0.0062
17227TIP3    H273097  -0.017   3.503  15.319  0.3994 -0.4753  1.3666
17228TIP3   OH273098   5.509   1.240   2.967 -0.6699  0.2003  0.0043
17228TIP3    H173099   5.501   1.226   2.872 -1.7814 -0.0857  0.1333
17228TIP3    H273100   5.549   1.160   3.000 -0.3760  0.2574 -0.2060
17229TIP3   OH273101   3.202   5.264   4.340 -0.5250 -0.4088  0.0029
17229TIP3    H173102   3.122   5.227   4.377 -1.6034  1.1386 -0.6825
17229TIP3    H273103   3.208   5.352   4.377  0.3475 -0.1611 -0.6899
17230TIP3   OH273104   3.843   5.558  11.019 -0.0219  0.3565  0.6863
17230TIP3    H173105   3.793   5.615  10.961  0.6836  0.9108  0.5983
17230TIP3    H273106   3.820   5.469  10.992 -0.8059  0.6002  0.5337
17231TIP3   OH273107   2.690   3.207   3.594 -0.0565  0.1122  0.1053
17231TIP3    H173108   2.619   3.266   3.620 -0.3528 -0.5080  0.7570
17231TIP3    H273109   2.647   3.136   3.547  0.2547  0.2248 -0.3568
17232TIP3   OH273110   4.264   5.066   1.677  0.2245 -0.0629  0.4436
17232TIP3    H173111   4.262   5.096   1.586  0.7511  0.4838  0.6040
17232TIP3    H273112   4.183   5.016   1.687 -0.0274  0.1934 -0.2157
17233TIP3   OH273113   4.106   4.052  11.331  0.4278  0.1021 -1.0467
17233TIP3    H173114   4.114   4.042  11.236  0.6984 -0.1220 -1.0028
17233TIP3    H273115   4.012   4.050  11.347  0.2818  1.7274 -1.4734
17234TIP3   OH273116   2.899   4.183   5.152  0.5051 -0.0920 -0.3898
17234TIP3    H173117   2.820   4.180   5.098  0.3096  1.8278 -0.2742
17234TIP3    H273118   2.971   4.184   5.090  0.2876  1.8452 -0.6840
17235TIP3   OH273119   5.133   0.673  14.350 -0.1729  0.3462 -0.5053
17235TIP3    H173120   5.098   0.676  14.261 -0.7478 -1.1037 -0.3577
17235TIP3    H273121   5.199   0.742  14.352 -1.1218  1.3340 -1.6206
17236TIP3   OH273122   6.176   4.483  12.213  0.7272  0.2918 -0.3113
17236TIP3    H173123   6.118   4.410  12.192 -0.4531  1.1452 -0.1413
17236TIP3    H273124   6.144   4.555  12.158  1.1152  1.0091  0.3811
17237TIP3   OH273125   2.944   0.660   1.005 -0.6044 -0.6560 -0.5305
17237TIP3    H173126   3.024   0.694   1.046 -0.3353 -0.4495 -1.2249
17237TIP3    H273127   2.966   0.570   0.981 -0.7383 -0.7522 -0.2965
17238TIP3   OH273128   6.414   1.150   4.929  0.3400 -0.2782  0.2771
17238TIP3    H173129   6.432   1.056   4.932  1.1341 -0.1333  0.2671
17238TIP3    H273130   6.479   1.190   4.987  3.2225  0.6897 -3.2486
17239TIP3   OH273131   5.735   5.298   0.493  0.4039 -0.6239  0.2931
17239TIP3    H173132   5.655   5.246   0.494 -0.6621  0.9155 -0.5032
17239TIP3    H273133   5.752   5.318   0.585  0.4033 -1.7258  0.5415
17240TIP3   OH273134   3.985   2.034   4.319  0.8689  0.2633  0.1034
17240TIP3    H173135   4.059   2.059   4.265  0.6230 -0.2541 -0.4785
17240TIP3    H273136   3.927   1.985   4.261  1.1439 -1.3215  1.1045
17241TIP3   OH273137   3.965   3.547  13.636  0.1313 -0.0530 -0.3235
17241TIP3    H173138   3.915   3.539  13.718 -0.8416  0.1952 -0.8737
17241TIP3    H273139   4.039   3.603  13.658  0.8267 -1.3347  0.7918
17242TIP3   OH273140   6.464   3.121   5.641  0.3333 -0.1001  0.6988
17242TIP3    H173141   6.493   3.100   5.730 -0.3834  1.8672  1.4424
17242TIP3    H273142   6.434   3.037   5.605  2.1923 -1.2493  1.6631
17243TIP3   OH273143   4.951   6.012   5.313  0.0708  0.1318 -0.1086
17243TIP3    H173144   4.989   5.998   5.400 -0.0374  2.6632  0.4486
17243TIP3    H273145   4.895   6.089   5.324 -0.2431  0.2808 -2.3408
17244TIP3   OH273146   2.332   0.390   3.930  0.6864  0.5675  0.1313
17244TIP3    H173147   2.365   0.446   3.860  0.8721  1.5872  0.9995
17244TIP3    H273148   2.401   0.391   3.996 -0.2382  1.1382  1.1229
17245TIP3   OH273149   2.419   4.445   1.769 -0.5977  0.2783 -0.5654
17245TIP3    H173150   2.482   4.398   1.824 -1.3757 -0.3686 -0.2108
17245TIP3    H273151   2.404   4.387   1.695 -0.9678  0.3225 -0.5232
17246TIP3   OH273152   1.163   6.725  16.434  0.0132  0.2949  0.0767
17246TIP3    H173153   1.180   6.636  16.403 -0.8942  0.1533 -0.0370
17246TIP3    H273154   1.233   6.743  16.496 -0.1708 -0.7463  0.6067
17247TIP3   OH273155   1.376   1.214  14.780  0.3873 -1.0412  0.5966
17247TIP3    H173156   1.286   1.221  14.812 -0.8453 -0.4461 -2.6122
17247TIP3    H273157   1.416   1.146  14.834 -1.8166 -0.9587  2.4540
17248TIP3   OH273158   5.196   5.707   2.814  0.3874 -0.3144 -0.1684
17248TIP3    H173159   5.151   5.788   2.839  2.9416  1.7720 -1.8205
17248TIP3    H273160   5.151   5.678   2.735  0.6645  0.6102 -0.6734
17249TIP3   OH273161   6.125   5.060   0.628 -0.5075  0.0544  0.1790
17249TIP3    H173162   6.186   5.104   0.569 -1.5116 -0.3395 -1.1948
17249TIP3    H273163   6.069   5.008   0.571 -1.6104 -0.2415  1.4689
17250TIP3   OH273164   0.390   2.609  14.572 -0.1496  0.0490  0.2393
17250TIP3    H173165   0.299   2.626  14.594 -0.3750  0.7155 -1.0951
17250TIP3    H273166   0.427   2.569  14.651 -1.2066  1.1036  1.3025
17251TIP3   OH273167   1.765   0.947   2.922  0.4349  0.4675 -0.7383
17251TIP3    H173168   1.782   1.017   2.985  2.3030  0.0416 -0.7101
17251TIP3    H273169   1.795   0.867   2.966  0.4081 -0.0328 -1.6015
17252TIP3   OH273170   2.619   4.935  17.159  0.1766 -0.1181  0.1431
17252TIP3    H173171   2.650   4.923  17.069 -0.6557 -0.7847 -0.0637
17252TIP3    H273172   2.526   4.955  17.150  0.1603  0.1572  0.8454
17253TIP3   OH273173   4.276   6.577   1.271 -0.0145 -0.4400 -0.4866
17253TIP3    H173174   4.217   6.647   1.243  0.1364 -0.0744  0.0616
17253TIP3    H273175   4.260   6.505   1.211 -0.5754 -0.1260 -0.7187
17254TIP3   OH273176   2.667   2.064   5.032  0.2657 -0.2872  0.5002
17254TIP3    H173177   2.688   2.030   5.119 -2.7710 -0.6810  1.1843
17254TIP3    H273178   2.575   2.091   5.038  0.3849  1.0278 -2.1902
17255TIP3   OH273179   0.792   3.692   0.191 -0.1158 -0.3487 -0.2966
17255TIP3    H173180   0.836   3.754   0.133  1.6312 -2.2150 -1.0568
17255TIP3    H273181   0.700   3.696   0.165 -0.2799  2.5435  0.3112
17256TIP3   OH273182   1.459   5.093  13.211  0.0279  0.6838  0.3783
17256TIP3    H173183   1.546   5.061  13.189  0.6835  1.8861  1.1630
17256TIP3    H273184   1.446   5.169  13.156 -1.8882 -1.2632 -2.1297
17257TIP3   OH273185   3.179   2.857   4.824 -0.0899 -0.4178 -0.1094
17257TIP3    H173186   3.192   2.941   4.868 -1.5656  0.0640 -0.5586
17257TIP3    H273187   3.222   2.793   4.881  0.6906  0.5811  0.4424
17258TIP3   OH273188   0.497   4.591   2.918  0.2155 -0.4851 -0.7900
17258TIP3    H173189   0.403   4.604   2.902 -0.0552 -1.4995 -0.1308
17258TIP3    H273190   0.539   4.667   2.879 -1.0627  1.2312  1.0054
17259TIP3   OH273191   1.515   6.568   2.285  0.4169  0.1046  0.0866
17259TIP3    H173192   1.440   6.626   2.295  1.0772  0.5630  3.2557
17259TIP3    H273193   1.584   6.623   2.246 -0.3015  0.1392 -1.1987
17260TIP3   OH273194   6.461   1.483   6.465  0.2853 -1.1445  0.2102
17260TIP3    H173195   6.418   1.407   6.423 -2.4252 -0.2273  1.0982
17260TIP3    H273196   6.390   1.546   6.478  2.2648  1.1817  0.4117
17261TIP3   OH273197   4.586   3.726   3.585 -0.2736 -0.2998  0.3253
17261TIP3    H173198   4.638   3.711   3.507  1.0411  2.5939  0.5528
17261TIP3    H273199   4.500   3.754   3.552 -0.0338 -0.0135 -0.0538
17262TIP3   OH273200   1.527   4.057  17.048 -0.0827  0.1803  0.5353
17262TIP3    H173201   1.484   3.971  17.047 -3.5033  1.7017  1.5692
17262TIP3    H273202   1.532   4.082  16.956 -1.0810 -0.2597  0.3427
17263TIP3   OH273203   3.149   0.714  15.114 -0.1664 -0.1803 -0.1099
17263TIP3    H173204   3.181   0.670  15.036 -2.0759 -0.4139 -0.8163
17263TIP3    H273205   3.054   0.722  15.100 -0.7335 -1.1641  2.6181
17264TIP3   OH273206   1.337   0.517   3.315  0.5520  0.0286  0.5487
17264TIP3    H173207   1.387   0.587   3.274 -2.4674  1.1565 -1.5321
17264TIP3    H273208   1.305   0.554   3.397 -0.1986  0.7729 -0.0663
17265TIP3   OH273209   0.792   2.094   0.999 -0.1270 -0.3876  0.3106
17265TIP3    H173210   0.760   2.143   0.923  1.8309  1.5973  0.6714
17265TIP3    H273211   0.725   2.108   1.066 -0.3557  0.4838 -0.0886
17266TIP3   OH273212   3.993   0.583  15.096 -0.0460 -0.4614  0.3553
17266TIP3    H173213   3.981   0.675  15.120  1.1213 -0.2322  0.1531
17266TIP3    H273214   3.957   0.534  15.170 -0.0301  0.1698  0.7903
17267TIP3   OH273215   5.519   4.022  14.446 -0.1446 -0.1593 -0.3096
17267TIP3    H173216   5.492   4.095  14.391 -0.7948 -0.4483 -0.3841
17267TIP3    H273217   5.579   4.061  14.510  0.4651  0.2098 -1.0940
17268TIP3   OH273218   0.079   1.210   2.259 -0.1558 -0.3182  0.3964
17268TIP3    H173219   0.075   1.261   2.340  0.0476  0.8482 -0.3049
17268TIP3    H273220   0.136   1.260   2.202 -1.7868 -0.1296 -1.1498
17269TIP3   OH273221   6.322   4.718   2.482 -0.5814 -0.2384  0.3942
17269TIP3    H173222   6.403   4.710   2.532  0.0659 -0.8198 -0.7176
17269TIP3    H273223   6.259   4.665   2.531 -0.0882 -0.4286  0.8401
17270TIP3   OH273224   5.471   3.944  12.656  0.2058 -0.7136  0.4217
17270TIP3    H173225   5.473   3.866  12.600 -1.2197 -0.0699 -0.5756
17270TIP3    H273226   5.413   3.920  12.728 -0.7675 -0.3632 -0.2353
17271TIP3   OH273227   2.804   3.593   1.596 -0.6505 -0.2397  0.1211
17271TIP3    H173228   2.892   3.608   1.561 -1.3586  2.3148 -0.8158
17271TIP3    H273229   2.817   3.575   1.689  0.8055  4.3369  1.0561
17272TIP3   OH273230   6.394   1.998   2.615 -0.2136 -0.2918  0.2904
17272TIP3    H173231   6.302   2.013   2.635 -0.4850 -0.1540 -0.9836
17272TIP3    H273232   6.401   2.012   2.520  0.9455 -1.1544  0.2223
17273TIP3   OH273233   6.564   1.452  14.351  0.1064 -0.1351  0.3131
17273TIP3    H173234   6.628   1.467  14.281 -1.5079  0.5755 -1.0456
17273TIP3    H273235   6.530   1.364  14.333  2.8681 -1.9507  2.8984
17274TIP3   OH273236   6.526   5.268  13.797 -0.8212 -0.2860 -0.3217
17274TIP3    H173237   6.568   5.295  13.879 -0.6766 -1.3198 -0.0326
17274TIP3    H273238   6.559   5.329  13.731 -2.0128  1.4527  0.6033
17275TIP3   OH273239   0.069   0.414   4.304 -0.0367  0.3594 -0.5332
17275TIP3    H173240   0.025   0.416   4.390  0.3267  0.9135 -0.3551
17275TIP3    H273241  -0.001   0.395   4.242 -0.1280 -1.1646 -0.0063
17276TIP3   OH273242   2.958   6.158   5.589  0.8463  0.0159 -0.0011
17276TIP3    H173243   3.047   6.125   5.583  1.0560  0.7739 -1.9025
17276TIP3    H273244   2.955   6.230   5.525 -1.3899 -0.6596 -0.7663
17277TIP3   OH273245   2.597   3.488   4.778 -0.6303  0.6875 -0.1571
17277TIP3    H173246   2.564   3.499   4.867 -0.3606  0.0715  0.0188
17277TIP3    H273247   2.687   3.520   4.782 -1.0303  1.9399 -0.5330
17278TIP3   OH273248   1.580   2.596   0.766 -0.5715  0.8214  0.1890
17278TIP3    H173249   1.601   2.613   0.858 -0.4810 -1.0730  0.5619
17278TIP3    H273250   1.629   2.662   0.718 -1.5880  2.6275  1.5386
17279TIP3   OH273251   4.477   4.017  16.172  0.3326 -0.0176  0.4095
17279TIP3    H173252   4.435   3.931  16.181  1.4437 -0.5927  0.2957
17279TIP3    H273253   4.435   4.057  16.096 -0.5520 -0.2344  0.7635
17280TIP3   OH273254   6.140   4.192  16.050 -0.7128 -0.0804  0.4488
17280TIP3    H173255   6.228   4.225  16.032 -0.4393 -1.7767 -1.5426
17280TIP3    H273256   6.113   4.242  16.128  1.4324  1.4679  0.3181
17281TIP3   OH273257   1.390   5.755  15.050  0.4457 -0.1919 -0.0272
17281TIP3    H173258   1.400   5.840  15.007  2.7197 -0.9674 -1.2092
17281TIP3    H273259   1.378   5.693  14.978 -0.1101 -1.0212  0.7596
17282TIP3   OH273260   2.102   4.421  16.075 -0.2233 -0.6157 -0.5303
17282TIP3    H173261   2.185   4.373  16.081  0.0525 -0.0514  0.2521
17282TIP3    H273262   2.035   4.355  16.092  0.1373 -0.8119  0.1766
17283TIP3   OH273263   4.792   1.278  11.460  0.4756  0.4172 -0.0100
17283TIP3    H173264   4.776   1.216  11.389 -0.6153 -0.1853  0.7251
17283TIP3    H273265   4.750   1.359  11.430  0.0377  0.1734 -0.0724
17284TIP3   OH273266   1.723   0.926   2.143 -0.0040 -0.5535 -0.6514
17284TIP3    H173267   1.766   0.995   2.093 -1.0488  1.3569  0.9192
17284TIP3    H273268   1.645   0.905   2.092 -0.9630  1.2440 -0.0184
17285TIP3   OH273269   4.946   6.328  15.751 -0.4603 -0.0340 -0.3137
17285TIP3    H173270   4.860   6.288  15.768  0.2125 -2.1193 -1.6100
17285TIP3    H273271   4.983   6.340  15.839 -1.5453 -0.2707  0.2083
17286TIP3   OH273272   0.405   4.643  16.440 -0.5575 -0.3346 -0.2926
17286TIP3    H173273   0.486   4.592  16.443 -0.2099  0.2386  0.2679
17286TIP3    H273274   0.408   4.698  16.519 -2.2651 -1.4877  0.6405
17287TIP3   OH273275   3.619   4.322  15.580 -0.2507 -0.0246 -0.3307
17287TIP3    H173276   3.544   4.328  15.639 -1.4481 -2.5173 -1.4213
17287TIP3    H273277   3.666   4.244  15.609  0.0765 -0.3271 -1.6022
17288TIP3   OH273278   6.055   0.073  10.830 -0.3002  0.4489 -0.0652
17288TIP3    H173279   6.012   0.118  10.757 -0.0862  0.4363 -0.1983
17288TIP3    H273280   6.085  -0.010  10.794  0.2008  0.6320 -0.0791
17289TIP3   OH273281   1.858   0.253  13.314 -0.3441  0.4004 -0.1432
17289TIP3    H173282   1.777   0.302  13.329 -1.9506 -1.8854 -0.7643
17289TIP3    H273283   1.905   0.258  13.397 -1.7863  0.6461  0.6828
17290TIP3   OH273284   0.784   5.305  13.056 -0.3335  0.0401  0.2699
17290TIP3    H173285   0.806   5.213  13.045 -1.3424 -0.1769 -0.0781
17290TIP3    H273286   0.866   5.347  13.081  0.6547 -0.5747 -1.7226
17291TIP3   OH273287   3.120   0.860  11.775  0.7587 -0.4436 -0.4886
17291TIP3    H173288   3.170   0.785  11.806 -0.5913 -0.9782  0.4952
17291TIP3    H273289   3.184   0.914  11.729  1.5987 -2.6336 -2.0583
17292TIP3   OH273290   6.482   6.631  12.004 -0.2272 -0.3495  0.0181
17292TIP3    H173291   6.457   6.585  11.924 -0.1932 -0.2577 -0.0463
17292TIP3    H273292   6.423   6.705  12.009  0.5393  0.3218 -0.5593
17293TIP3   OH273293   2.617   5.459  12.976  0.3197 -0.0426 -0.1200
17293TIP3    H173294   2.685   5.477  12.911  1.9079  0.1055  1.5051
17293TIP3    H273295   2.652   5.386  13.027 -1.3147 -0.7760 -0.0114
17294TIP3   OH273296   5.007   3.576   3.099 -0.3684  0.4557  0.1476
17294TIP3    H173297   5.066   3.514   3.055  0.1042  0.7397  0.3647
17294TIP3    H273298   5.030   3.569   3.192  0.2195  1.4859  0.0990
17295TIP3   OH273299   5.816   4.403   6.163 -0.0382  0.0688  0.2923
17295TIP3    H173300   5.910   4.385   6.158 -0.1006 -0.1249 -0.3051
17295TIP3    H273301   5.790   4.372   6.249  0.3953 -0.1272  0.3583
17296TIP3   OH273302   0.660   1.241  13.595  0.0294 -0.0403 -0.5363
17296TIP3    H173303   0.673   1.182  13.669  0.3765  0.6966  0.0112
17296TIP3    H273304   0.621   1.187  13.527 -0.2317 -0.7514  0.1640
17297TIP3   OH273305   5.086   1.923   2.379  0.2516  0.1515  0.0377
17297TIP3    H173306   5.135   1.890   2.455 -0.3666 -1.4382 -0.2239
17297TIP3    H273307   5.141   1.902   2.304  0.5477  1.1226 -0.0417
17298TIP3   OH273308   5.856   0.839   3.247  0.1799  0.1563 -0.0859
17298TIP3    H173309   5.848   0.846   3.151 -2.8671 -1.2127 -0.0540
17298TIP3    H273310   5.921   0.770   3.260  1.5246  1.1688 -1.0753
17299TIP3   OH273311   0.860   6.120   1.575 -0.2721  0.4087  0.1149
17299TIP3    H173312   0.783   6.129   1.631 -0.3157 -0.3644  0.1886
17299TIP3    H273313   0.846   6.039   1.526  0.3510  0.4107 -0.0847
17300TIP3   OH273314   2.829   2.278  14.602 -0.2826 -0.6448 -0.5179
17300TIP3    H173315   2.734   2.273  14.597 -0.3690 -0.9751  0.9044
17300TIP3    H273316   2.855   2.194  14.641  0.3757  0.3241  1.2458
17301TIP3   OH273317   6.720   5.780   0.210 -0.5116 -0.1221  0.0814
17301TIP3    H173318   6.706   5.719   0.282 -1.1571 -0.1253 -0.0392
17301TIP3    H273319   6.813   5.773   0.189 -0.5645 -0.9870  0.1343
17302TIP3   OH273320   4.456   0.650  16.155  0.0907  0.0505  0.3373
17302TIP3    H173321   4.467   0.666  16.249 -0.1768 -0.6271  0.4920
17302TIP3    H273322   4.387   0.711  16.128  0.0327  0.1099  0.6182
17303TIP3   OH273323   0.159   0.386  14.537  0.0428  0.1331 -0.8092
17303TIP3    H173324   0.227   0.327  14.503  0.9539  1.8486 -2.1608
17303TIP3    H273325   0.086   0.376  14.476 -0.0920 -0.1406 -0.6033
17304TIP3   OH273326   1.252   5.891  16.346 -0.2582  0.1538 -0.4277
17304TIP3    H173327   1.289   5.960  16.291  1.5650  1.9653  2.7249
17304TIP3    H273328   1.180   5.855  16.295 -0.0612  3.0582 -3.0602
17305TIP3   OH273329   4.088   5.181   3.062 -0.3769 -0.2838  0.2894
17305TIP3    H173330   4.170   5.188   3.111  0.4399 -0.8898 -0.9290
17305TIP3    H273331   4.031   5.127   3.117 -0.5787  1.4603  1.8934
17306TIP3   OH273332   0.971   0.982  16.875 -0.2645 -0.0219 -0.1157
17306TIP3    H173333   1.027   0.997  16.951 -0.3247  0.1259 -0.0979
17306TIP3    H273334   0.920   1.063  16.867  0.8456  0.5962 -1.2629
17307TIP3   OH273335   4.782   6.124   4.223 -0.3299  0.3095 -0.1872
17307TIP3    H173336   4.737   6.147   4.141 -0.6229 -1.6292 -0.6212
17307TIP3    H273337   4.872   6.152   4.209 -0.4313  0.2401 -1.0594
17308TIP3   OH273338   4.170   2.900   0.271  0.3146 -0.3879 -0.2930
17308TIP3    H173339   4.112   2.958   0.321 -0.8269  1.3817 -3.4182
17308TIP3    H273340   4.257   2.916   0.308 -0.4750  0.7406  1.1831
17309TIP3   OH273341   1.472   1.086  15.489  0.1287  0.0138  0.2407
17309TIP3    H173342   1.386   1.052  15.466  0.5179 -0.0743 -1.2056
17309TIP3    H273343   1.455   1.168  15.535 -0.7251 -0.0361  0.0144
17310TIP3   OH273344   5.064   6.461   6.039 -0.7797  0.4547 -0.0825
17310TIP3    H173345   5.033   6.548   6.011 -0.8706  1.2178  2.2213
17310TIP3    H273346   5.078   6.470   6.133  0.5172 -1.6771 -0.0265
17311TIP3   OH273347   1.537   2.694   5.653 -0.3344  0.0088  0.1136
17311TIP3    H173348   1.487   2.654   5.582  1.2210  0.8717 -1.5184
17311TIP3    H273349   1.526   2.788   5.641  2.1720  0.2546 -0.7127
17312TIP3   OH273350   5.145   4.651  13.956  0.0469  0.0240 -0.0992
17312TIP3    H173351   5.058   4.623  13.983 -0.3999  0.6560 -0.8984
17312TIP3    H273352   5.193   4.660  14.039 -1.2138  1.6095  0.4968
17313TIP3   OH273353   6.428   2.663   3.749 -0.3450 -0.1738  0.3871
17313TIP3    H173354   6.388   2.577   3.759  0.9263 -1.0330 -1.2606
17313TIP3    H273355   6.487   2.671   3.824  0.3492 -1.2629 -0.0176
17314TIP3   OH273356   3.327   1.574  10.921  0.1817 -0.0794 -0.0952
17314TIP3    H173357   3.251   1.594  10.866 -0.0761 -0.9884 -0.0905
17314TIP3    H273358   3.396   1.632  10.888  0.1148 -0.7884 -1.5955
17315TIP3   OH273359   1.808   5.893  11.984  0.4197 -0.1780  0.2193
17315TIP3    H173360   1.748   5.947  11.933 -0.4767 -1.2901  0.0529
17315TIP3    H273361   1.817   5.940  12.067 -2.0544 -0.7889  0.9250
17316TIP3   OH273362   3.599   1.217  15.342  0.1302 -0.5101 -0.7123
17316TIP3    H173363   3.598   1.152  15.413 -0.0998 -1.1753 -1.3043
17316TIP3    H273364   3.583   1.165  15.263 -0.3525  0.3180 -1.1677
17317TIP3   OH273365   6.574   5.938  11.105  0.2716  0.2193  0.4549
17317TIP3    H173366   6.651   5.987  11.133 -0.8768  1.9022  0.8375
17317TIP3    H273367   6.598   5.847  11.116  3.2600  0.5176 -2.2754
17318TIP3   OH273368   5.710   5.775  15.624 -0.1005 -0.7255 -0.3473
17318TIP3    H173369   5.641   5.711  15.605 -0.7596 -0.1464  0.0835
17318TIP3    H273370   5.677   5.858  15.590  0.6548 -0.5602 -0.7010
17319TIP3   OH273371   0.471   0.262  14.545 -0.0112  0.3767 -0.1376
17319TIP3    H173372   0.472   0.247  14.450  0.3256  1.2821 -0.2933
17319TIP3    H273373   0.482   0.175  14.583 -1.8367 -0.2172 -0.8867
17320TIP3   OH273374   4.746   1.644   0.035 -0.1085 -0.2563  0.0004
17320TIP3    H173375   4.784   1.713  -0.018  2.8989 -1.7831 -0.0618
17320TIP3    H273376   4.747   1.567  -0.022 -1.5003 -0.8264  0.7048
17321TIP3   OH273377   3.685   3.260  14.499  0.2739  0.0027  0.0355
17321TIP3    H173378   3.734   3.247  14.580 -0.1677 -0.2630  0.2641
17321TIP3    H273379   3.619   3.325  14.521  0.1637 -0.0554 -0.1192
17322TIP3   OH273380   0.379   2.588   1.408 -0.2512 -0.3371  0.0337
17322TIP3    H173381   0.386   2.502   1.448  1.1966 -0.9377 -1.4105
17322TIP3    H273382   0.363   2.648   1.481  0.9169 -1.5397  1.3235
17323TIP3   OH273383   4.069   2.060  13.881  0.0225  0.2811  0.5552
17323TIP3    H173384   4.065   2.003  13.804 -0.2726 -0.0225  0.7975
17323TIP3    H273385   3.978   2.072  13.907  0.1673 -0.2654  1.3417
17324TIP3   OH273386   6.271   3.201  12.705 -0.0467 -0.5721  0.4573
17324TIP3    H173387   6.351   3.151  12.722  0.9567 -0.4545 -3.1158
17324TIP3    H273388   6.301   3.279  12.658 -2.1686 -0.0851 -0.1890
17325TIP3   OH273389   5.944   3.075  11.624 -0.1110 -0.7058 -0.2871
17325TIP3    H173390   5.980   3.160  11.598 -1.9350 -0.0385 -0.7770
17325TIP3    H273391   5.991   3.054  11.705  1.2641  0.1565 -0.8230
17326TIP3   OH273392   4.773   1.408  15.037 -0.0693  0.3255  0.3635
17326TIP3    H173393   4.799   1.381  14.948  0.8337  3.5984 -0.4799
17326TIP3    H273394   4.678   1.417  15.032 -0.2871 -1.4599  0.3975
17327TIP3   OH273395   5.363   6.022   1.732 -0.5242 -0.2616 -0.2310
17327TIP3    H173396   5.402   6.104   1.763  1.2269 -1.1970  0.1914
17327TIP3    H273397   5.402   6.008   1.646 -1.5082 -0.2214 -0.6973
17328TIP3   OH273398   5.575   4.337   5.332  0.1954 -0.4101  0.3913
17328TIP3    H173399   5.650   4.326   5.390  0.5053  0.7181  0.2246
17328TIP3    H273400   5.502   4.298   5.380  1.0621 -2.5663  0.0682
17329TIP3   OH273401   2.888   0.390   3.293  0.4959 -0.3593 -0.2566
17329TIP3    H173402   2.814   0.381   3.234 -1.1760  0.2037  1.6571
17329TIP3    H273403   2.897   0.485   3.305 -0.5125 -0.4960  1.9158
17330TIP3   OH273404   5.094   0.127   1.254 -0.2164 -0.0117  0.1182
17330TIP3    H173405   5.128   0.084   1.332 -0.2594  0.3570  0.3415
17330TIP3    H273406   5.007   0.089   1.241  0.2113 -0.8578 -0.3747
17331TIP3   OH273407   0.423   3.818   5.311 -0.5424  0.4493 -0.3176
17331TIP3    H173408   0.454   3.885   5.372 -1.3123  0.5568 -0.0311
17331TIP3    H273409   0.502   3.788   5.266 -0.0340  0.7124  0.3894
17332TIP3   OH273410   4.830   1.057   3.185 -0.0483 -0.4531 -0.2764
17332TIP3    H173411   4.838   0.986   3.121 -1.6124 -0.5367 -0.4282
17332TIP3    H273412   4.745   1.041   3.227  0.3612  0.3534  0.9089
17333TIP3   OH273413   0.632   4.779  17.327  0.1708 -0.0824  0.0825
17333TIP3    H173414   0.665   4.813  17.409  3.1972 -0.0292 -1.0257
17333TIP3    H273415   0.591   4.695  17.350 -1.7251  1.2609  1.9514
17334TIP3   OH273416   4.003   6.132  12.585  0.0167 -0.1351  0.1077
17334TIP3    H173417   4.090   6.161  12.560 -0.5731  0.8875 -0.8594
17334TIP3    H273418   3.968   6.090  12.505 -0.6311  0.1137  0.2486
17335TIP3   OH273419   6.390   6.268  11.816  0.4624 -0.0150  0.0927
17335TIP3    H173420   6.385   6.222  11.732  1.6176  0.1647 -0.0924
17335TIP3    H273421   6.481   6.257  11.844 -0.1226 -0.9490  1.8321
17336TIP3   OH273422   1.044   0.645   2.516 -0.6041 -0.0929  0.7429
17336TIP3    H173423   1.121   0.628   2.461 -1.8080 -2.9122 -0.2617
17336TIP3    H273424   1.017   0.734   2.493  2.4564  1.1095  1.3664
17337TIP3   OH273425   5.138   1.807   1.184  0.1507 -0.1616  0.1818
17337TIP3    H173426   5.221   1.776   1.147  0.1421 -0.8934  0.7412
17337TIP3    H273427   5.156   1.896   1.213  0.2256  0.3472 -1.3426
17338TIP3   OH273428   4.972   1.516  12.984 -0.3039  0.1910 -0.3240
17338TIP3    H173429   4.929   1.437  13.018 -0.9990  0.4975 -0.4758
17338TIP3    H273430   5.063   1.491  12.974 -0.3703 -0.3521  0.3823
17339TIP3   OH273431   2.750   5.758   1.492 -0.7813  0.3828  0.7500
17339TIP3    H173432   2.671   5.777   1.543  0.6811  0.5811  3.0871
17339TIP3    H273433   2.733   5.673   1.451 -2.0210  0.1717  1.6528
17340TIP3   OH273434   5.068   3.829  17.218  0.3954 -0.1375  0.5489
17340TIP3    H173435   5.030   3.895  17.277  0.2457 -0.2379  0.5643
17340TIP3    H273436   5.161   3.829  17.240  0.6995  1.2546 -0.5830
17341TIP3   OH273437   2.351   4.091  11.587 -0.3185 -0.0543 -0.0657
17341TIP3    H173438   2.259   4.119  11.583 -0.3685 -0.2828 -0.5072
17341TIP3    H273439   2.347   4.001  11.620 -0.3568 -0.5659 -1.3999
17342TIP3   OH273440   5.645   4.615  10.990  0.1086  0.9620  0.4456
17342TIP3    H173441   5.552   4.632  10.976  0.1982  2.2214  1.2011
17342TIP3    H273442   5.666   4.662  11.071  1.3802  0.6094  0.3476
17343TIP3   OH273443   3.366   1.669   3.085 -0.4441  0.0863  1.2465
17343TIP3    H173444   3.412   1.585   3.080  0.4813  0.6785 -0.9961
17343TIP3    H273445   3.322   1.678   3.001 -1.0866  1.5603  1.7028
17344TIP3   OH273446   5.567   5.293  15.573 -0.2299  0.2506 -0.0267
17344TIP3    H173447   5.515   5.271  15.650  0.0923 -0.5834 -0.0326
17344TIP3    H273448   5.657   5.294  15.603 -0.2567  2.2923  0.1122
17345TIP3   OH273449   5.704   1.821   1.967 -0.2176  0.2129  0.1252
17345TIP3    H173450   5.687   1.915   1.970  0.2099  0.2841  2.4460
17345TIP3    H273451   5.631   1.785   1.918 -0.2343  1.7708 -1.0734
17346TIP3   OH273452   3.369   6.581  10.565 -0.0739 -0.2945 -0.1703
17346TIP3    H173453   3.275   6.562  10.562 -0.3546  1.1114 -0.7499
17346TIP3    H273454   3.376   6.664  10.611  0.8840 -0.3335 -0.2171
17347TIP3   OH273455   6.640   3.108  13.316  0.6794  0.8776 -0.0450
17347TIP3    H173456   6.546   3.097  13.304 -0.0504  0.8853  4.0723
17347TIP3    H273457   6.655   3.202  13.310 -0.6296  1.5058  3.8221
17348TIP3   OH273458   1.474   3.299  14.556 -0.2220 -1.0628  0.6771
17348TIP3    H173459   1.546   3.238  14.544 -1.1352 -2.1594  0.6347
17348TIP3    H273460   1.411   3.277  14.488 -1.4333 -1.3853  1.8515
17349TIP3   OH273461   4.591   6.486  16.216 -0.1809  0.6473  0.0189
17349TIP3    H173462   4.554   6.556  16.269  3.0893  0.0815  3.4591
17349TIP3    H273463   4.665   6.526  16.171  1.1100 -0.2865  1.2293
17350TIP3   OH273464   2.385   6.154   4.902  0.6486 -0.2492  0.0210
17350TIP3    H173465   2.401   6.230   4.958  0.7303  0.6750 -1.2007
17350TIP3    H273466   2.293   6.161   4.878  0.0104 -1.8588  1.7249
17351TIP3   OH273467   4.049   1.424  13.002  0.1537 -0.0272  0.4788
17351TIP3    H173468   4.005   1.409  12.918  0.9363  0.8417 -0.0987
17351TIP3    H273469   4.141   1.409  12.984  0.5741  2.0816  0.6901
17352TIP3   OH273470   3.023   0.144   6.118  0.9740 -0.1628 -0.1346
17352TIP3    H173471   3.030   0.221   6.062 -0.6741 -0.1830 -0.4229
17352TIP3    H273472   3.038   0.176   6.207 -3.8720  1.5013  0.3648
17353TIP3   OH273473   0.231   2.307  15.557 -0.0006 -0.1862 -0.1571
17353TIP3    H173474   0.242   2.398  15.531 -2.1342  0.1117 -0.2047
17353TIP3    H273475   0.317   2.281  15.590  0.5340  1.9991  0.3549
17354TIP3   OH273476   0.362   6.103   5.522 -0.0559  0.1747  0.0125
17354TIP3    H173477   0.307   6.028   5.546  1.5371 -1.6649 -1.7401
17354TIP3    H273478   0.306   6.155   5.464 -1.5851  1.0795  2.1720
17355TIP3   OH273479   4.756   0.532  16.144 -0.0296  0.2180 -0.2960
17355TIP3    H173480   4.768   0.569  16.231 -3.2403 -0.4167  0.5169
17355TIP3    H273481   4.690   0.587  16.103 -1.4676 -1.7873 -0.7983
17356TIP3   OH273482   2.032   2.235   2.074  0.5000 -0.3441  0.5179
17356TIP3    H173483   2.068   2.317   2.041 -0.3248 -0.0571  0.3132
17356TIP3    H273484   2.032   2.176   1.998 -1.7003  0.4168 -0.1350
17357TIP3   OH273485   2.527   2.919  11.960  0.0704 -0.3066 -0.8730
17357TIP3    H173486   2.591   2.887  11.896 -1.6823 -1.0008 -2.3429
17357TIP3    H273487   2.502   3.005  11.927 -0.0362 -0.1919 -0.4974
17358TIP3   OH273488   4.378   5.019   3.371  0.6978  0.1097 -0.2776
17358TIP3    H173489   4.420   4.976   3.296  0.0254  3.4075 -2.7756
17358TIP3    H273490   4.285   5.001   3.359  0.6070  0.4848 -0.1433
17359TIP3   OH273491   1.767   2.182  13.127  0.4168 -0.4031 -0.1162
17359TIP3    H173492   1.681   2.223  13.117  1.3657  1.6627 -0.2565
17359TIP3    H273493   1.801   2.174  13.038  1.6539  1.8478  0.0613
17360TIP3   OH273494   0.917   1.318   0.598  0.5280  0.2639  0.2940
17360TIP3    H173495   1.000   1.309   0.552  0.7933  1.5516  0.5168
17360TIP3    H273496   0.856   1.349   0.531  0.6991  1.2562  0.5950
17361TIP3   OH273497   6.036   5.411   4.983 -0.8086  0.0612  0.7582
17361TIP3    H173498   6.119   5.366   4.967 -1.0243 -1.0462  2.4682
17361TIP3    H273499   5.988   5.401   4.901  0.9645  1.3209 -0.5085
17362TIP3   OH273500   6.135   0.076  16.629  0.5881  0.1931  0.6473
17362TIP3    H173501   6.166   0.155  16.673  1.1967 -0.0776  0.7149
17362TIP3    H273502   6.081   0.031  16.694  0.8628  0.1718  0.8601
17363TIP3   OH273503   3.025   2.429   0.948  0.2209  0.2344  0.2866
17363TIP3    H173504   3.044   2.410   0.856 -2.1376 -0.1212 -0.2001
17363TIP3    H273505   3.088   2.497   0.972  0.5880  0.6912 -1.7519
17364TIP3   OH273506   2.193   0.908  11.996  0.3087 -1.0148  0.0914
17364TIP3    H173507   2.134   0.982  11.985 -1.0401 -2.0669 -0.0851
17364TIP3    H273508   2.201   0.869  11.909  1.2630 -0.9053  0.1165
17365TIP3   OH273509   2.654   6.405   2.733  0.6376  0.3681 -0.0476
17365TIP3    H173510   2.700   6.344   2.675 -0.4472 -1.2115  0.6746
17365TIP3    H273511   2.666   6.490   2.692  1.7536 -0.3890 -1.4050
17366TIP3   OH273512   5.690   2.049  11.006  0.0303  0.8050  0.1607
17366TIP3    H173513   5.698   2.111  11.078 -2.1393  1.4031 -0.0294
17366TIP3    H273514   5.600   2.017  11.012  1.1982 -2.8360  0.6200
17367TIP3   OH273515   2.391   1.309  12.333 -0.1606  0.1717  0.1884
17367TIP3    H173516   2.431   1.246  12.394  1.8700  0.5584 -0.6505
17367TIP3    H273517   2.298   1.289  12.336  0.2245 -1.7474  1.2284
17368TIP3   OH273518   4.837   0.066   1.196 -0.2273 -0.4382  0.6866
17368TIP3    H173519   4.854   0.005   1.125 -0.3269  0.3094  0.0080
17368TIP3    H273520   4.750   0.042   1.228 -0.4621 -0.3663  0.1173
17369TIP3   OH273521   3.177   5.175   0.868 -0.1377 -0.3080  0.7039
17369TIP3    H173522   3.193   5.128   0.786  0.4290 -0.7344  1.0529
17369TIP3    H273523   3.093   5.218   0.855 -0.1295 -0.5099 -0.0408
17370TIP3   OH273524   5.783   3.227   2.809 -0.3245  0.7949  0.0858
17370TIP3    H173525   5.797   3.148   2.862 -2.3314  0.7306  0.5990
17370TIP3    H273526   5.782   3.298   2.872  1.3416  1.2545 -0.3632
17371TIP3   OH273527   0.180   4.106   1.031 -0.2740 -0.5129  0.6099
17371TIP3    H173528   0.230   4.065   0.960 -0.7404 -0.2758  0.1431
17371TIP3    H273529   0.089   4.097   1.004 -0.3519  2.3837 -0.3686
17372TIP3   OH273530   0.363   5.798  11.468 -0.3657  0.0413  0.0689
17372TIP3    H173531   0.361   5.728  11.404 -2.0919  0.5334 -0.4449
17372TIP3    H273532   0.423   5.863  11.431 -1.4426  0.3821 -1.1499
17373TIP3   OH273533   0.584   3.498  10.677  0.1386  0.7024  0.1983
17373TIP3    H173534   0.649   3.485  10.609  1.2330  0.8612  1.1893
17373TIP3    H273535   0.612   3.577  10.723 -2.0456  2.1495 -0.7812
17374TIP3   OH273536   6.047   1.239  11.557 -0.3728  0.1816 -0.0894
17374TIP3    H173537   6.074   1.330  11.551 -0.2055  0.1109 -0.5066
17374TIP3    H273538   6.129   1.190  11.563 -0.4424  0.0320 -0.3214
17375TIP3   OH273539   2.324   2.657  14.567  0.1869 -0.7637 -0.3281
17375TIP3    H173540   2.288   2.706  14.494 -1.0147 -1.1307 -0.0120
17375TIP3    H273541   2.327   2.566  14.536  1.0335 -0.7149 -0.4121
17376TIP3   OH273542   2.562   6.381  16.241 -0.4258 -0.9347  0.0474
17376TIP3    H173543   2.514   6.375  16.324  0.8469  0.0296  0.8821
17376TIP3    H273544   2.541   6.468  16.207  1.7409  0.0888  1.1271
17377TIP3   OH273545   5.288   0.447  16.829 -0.0261  0.0091 -0.3296
17377TIP3    H173546   5.313   0.356  16.816  1.5589  0.4341 -0.4311
17377TIP3    H273547   5.284   0.484  16.741 -0.8981 -0.0145 -0.3036
17378TIP3   OH273548   6.073   2.253   1.570 -0.4220 -0.4089 -0.7618
17378TIP3    H173549   6.070   2.284   1.479  0.1567  1.0534 -0.3219
17378TIP3    H273550   6.144   2.190   1.571 -0.2040 -0.1844 -1.2626
17379TIP3   OH273551   6.255   5.427  11.090 -0.7407  0.1862  0.7325
17379TIP3    H173552   6.222   5.517  11.083 -0.6782  0.2586  1.3156
17379TIP3    H273553   6.206   5.378  11.024 -0.8931  0.6146  0.5238
17380TIP3   OH273554   0.828   3.068  13.375 -0.1703 -0.6078 -0.0564
17380TIP3    H173555   0.862   3.039  13.459 -0.5408 -0.0387  0.3036
17380TIP3    H273556   0.765   3.137  13.397 -0.6062 -0.7605 -0.7735
17381TIP3   OH273557   6.264   1.863  13.318 -0.2140 -0.8639 -0.2855
17381TIP3    H173558   6.313   1.786  13.347 -0.7965 -0.7959  0.9631
17381TIP3    H273559   6.187   1.827  13.274 -1.1480 -1.0615  1.4187
17382TIP3   OH273560   4.602   3.226  15.577 -0.4891  0.5808  0.4814
17382TIP3    H173561   4.519   3.264  15.607 -0.5875  1.6249 -1.0044
17382TIP3    H273562   4.667   3.293  15.598  0.1598 -0.5523  2.3506
17383TIP3   OH273563   2.765   6.579   0.907 -0.0515 -0.1654  0.4313
17383TIP3    H173564   2.691   6.617   0.954 -2.0590 -2.7779 -0.3446
17383TIP3    H273565   2.812   6.528   0.972 -0.1891 -0.1877  0.5133
17384TIP3   OH273566   4.925   1.120   1.499 -0.0485 -0.6837  0.2270
17384TIP3    H173567   4.964   1.149   1.581  1.4580 -1.6359 -0.1288
17384TIP3    H273568   4.943   1.191   1.437  2.0618 -1.4866 -0.1789
17385TIP3   OH273569   3.148   1.176   2.571 -0.2828  0.1076  0.0460
17385TIP3    H173570   3.132   1.269   2.555 -0.1552  0.1110 -0.0629
17385TIP3    H273571   3.073   1.131   2.531 -1.4920  0.2891  1.9986
17386TIP3   OH273572   0.247   2.676   3.170  0.0943  0.2645  0.0335
17386TIP3    H173573   0.299   2.695   3.247  0.7173 -2.7811  0.4932
17386TIP3    H273574   0.309   2.682   3.097  0.0166  0.9281  0.0103
17387TIP3   OH273575   5.245   2.691   4.246  0.4069 -0.2195 -0.2259
17387TIP3    H173576   5.235   2.606   4.291 -1.5122  0.3266  0.4619
17387TIP3    H273577   5.327   2.726   4.282  1.7366 -2.1327 -1.1950
17388TIP3   OH273578   4.546   4.949  15.939 -0.4059 -0.2173 -0.5931
17388TIP3    H173579   4.625   4.975  15.893 -0.2095  0.5767  0.1767
17388TIP3    H273580   4.571   4.871  15.988 -0.5840 -0.9968 -1.6946
17389TIP3   OH273581   1.644   5.903  14.587 -0.4449  0.5613  0.1291
17389TIP3    H173582   1.665   5.984  14.632  1.3748 -0.9983  2.3077
17389TIP3    H273583   1.681   5.914  14.499  1.5981  1.3718  1.0212
17390TIP3   OH273584   6.439   2.528   1.837 -1.0539 -0.3163 -0.1625
17390TIP3    H173585   6.346   2.542   1.822 -1.2796 -1.0321  0.5204
17390TIP3    H273586   6.445   2.439   1.872 -0.1775 -0.0681  0.3515
17391TIP3   OH273587   2.559   4.867  16.257  0.4808 -0.1559  0.5889
17391TIP3    H173588   2.602   4.936  16.308  0.1337 -0.3337  1.1386
17391TIP3    H273589   2.518   4.913  16.184  0.3212  0.2094  0.9056
17392TIP3   OH273590   2.326   3.837  11.685 -0.3069 -0.0560 -0.3616
17392TIP3    H173591   2.303   3.772  11.750  0.9511  1.1294  1.3507
17392TIP3    H273592   2.402   3.801  11.640  1.1110  0.6664  1.3673
17393TIP3   OH273593   6.685   6.495  13.060 -0.6443 -0.4373 -0.4441
17393TIP3    H173594   6.715   6.573  13.012 -1.1909  0.2124  0.2352
17393TIP3    H273595   6.635   6.445  12.996 -0.7412  0.0443 -0.7495
17394TIP3   OH273596   4.102   5.160   2.447 -0.0031  0.4523 -0.3791
17394TIP3    H173597   4.114   5.243   2.492 -1.1993  1.0884 -1.1800
17394TIP3    H273598   4.063   5.183   2.363  1.3676 -0.7701 -1.4115
17395TIP3   OH273599   3.923   1.345   0.362  0.2050 -0.0598 -0.4783
17395TIP3    H173600   3.992   1.388   0.312 -1.2658  1.9412 -0.9078
17395TIP3    H273601   3.947   1.360   0.453  1.3345 -1.1322 -0.5689
17396TIP3   OH273602   5.579   4.026  11.440  0.3816  0.1477  0.0326
17396TIP3    H173603   5.554   3.987  11.356  0.2541 -1.1450  0.6443
17396TIP3    H273604   5.674   4.039  11.433  0.2587  0.7468 -0.5855
17397TIP3   OH273605   6.366   0.302  11.196 -0.1163 -0.4044 -0.3064
17397TIP3    H173606   6.317   0.302  11.114 -0.6161  3.6119 -0.1992
17397TIP3    H273607   6.299   0.296  11.264 -0.7251  4.1436 -0.1881
17398TIP3   OH273608   1.219   4.286  12.489  0.2282 -0.3682  0.8537
17398TIP3    H173609   1.226   4.377  12.460 -0.4979 -1.4422 -3.3063
17398TIP3    H273610   1.128   4.276  12.517 -0.4080 -0.2984 -1.0311
17399TIP3   OH273611   6.692   1.625   6.033 -0.0880  0.4299 -0.0679
17399TIP3    H173612   6.775   1.578   6.041  0.1258  0.6098 -1.0938
17399TIP3    H273613   6.639   1.595   6.107  0.3266 -0.8393 -0.2760
17400TIP3   OH273614   2.802   1.862  12.196 -0.3834  0.0982 -0.7468
17400TIP3    H173615   2.787   1.768  12.186 -1.2363  0.2254 -0.7173
17400TIP3    H273616   2.896   1.870  12.214 -0.3553 -0.7663 -0.4933
17401TIP3   OH273617   3.532   5.306   2.108  0.0681 -0.2886 -0.5596
17401TIP3    H173618   3.451   5.350   2.134  1.2711  1.0612  1.1693
17401TIP3    H273619   3.505   5.218   2.083 -1.8101 -0.2001  0.9311
17402TIP3   OH273620   6.351   4.307   5.513  0.2648 -0.8555  0.1633
17402TIP3    H173621   6.424   4.304   5.574 -0.1082 -0.5657  0.6335
17402TIP3    H273622   6.307   4.223   5.523 -1.3476  0.1518  2.2616
17403TIP3   OH273623   3.321   2.829  10.483 -0.1868  0.8191  0.5775
17403TIP3    H173624   3.302   2.776  10.560  0.1852  1.9151  1.4564
17403TIP3    H273625   3.392   2.782  10.439 -0.1135  0.3895  1.1381
17404TIP3   OH273626   6.469   1.339  16.802 -0.4302 -0.2006 -0.0967
17404TIP3    H173627   6.447   1.432  16.803 -2.5565 -0.6290 -1.1053
17404TIP3    H273628   6.507   1.322  16.888 -0.7462  1.4280  0.3932
17405TIP3   OH273629   1.417   2.638  11.165 -0.0606 -0.7488 -0.5545
17405TIP3    H173630   1.479   2.599  11.103  1.5025  1.5046 -0.5351
17405TIP3    H273631   1.349   2.677  11.110 -1.0502 -2.4522 -0.6102
17406TIP3   OH273632   5.851   1.600   0.140  1.0331  0.2948 -0.1576
17406TIP3    H173633   5.931   1.581   0.190  0.6383 -0.2366  0.2896
17406TIP3    H273634   5.784   1.545   0.181  0.2765  1.2380 -0.0853
17407TIP3   OH273635   5.168   0.458   0.570  0.0588 -1.1964 -0.3133
17407TIP3    H173636   5.248   0.474   0.520 -0.0719 -1.5802 -0.6550
17407TIP3    H273637   5.098   0.468   0.505 -0.2129 -0.3421  0.0940
17408TIP3   OH273638   1.932   1.560   4.459 -0.0977  0.2626  0.0871
17408TIP3    H173639   1.937   1.539   4.553  1.9667  0.6440  0.1205
17408TIP3    H273640   1.856   1.512   4.427 -0.0179 -1.0138  1.6829
17409TIP3   OH273641   4.392   0.845  11.299 -0.3474  0.3626 -0.0717
17409TIP3    H173642   4.458   0.819  11.235  0.5059 -1.3623  1.3879
17409TIP3    H273643   4.406   0.939  11.312  0.2597  0.4935 -1.4786
17410TIP3   OH273644   0.638   3.707  13.664 -0.0633 -0.1858 -0.1307
17410TIP3    H173645   0.636   3.739  13.574 -0.0869  2.7731  0.8369
17410TIP3    H273646   0.547   3.714  13.694  0.0635 -0.4912  0.3376
17411TIP3   OH273647   6.729   6.658  16.903  0.0262 -0.4157 -0.5203
17411TIP3    H173648   6.696   6.736  16.859 -0.6400 -0.3067  0.1476
17411TIP3    H273649   6.699   6.668  16.994  0.1386 -1.3357 -0.3776
17412TIP3   OH273650   6.620   0.941  16.404  0.2338  0.4113  0.1520
17412TIP3    H173651   6.650   0.872  16.463 -0.5735 -0.1744 -0.1153
17412TIP3    H273652   6.585   0.895  16.328 -0.9166  1.0830  0.2579
17413TIP3   OH273653   2.698   1.466  14.555  1.1017  0.4537 -0.2864
17413TIP3    H173654   2.680   1.510  14.638 -0.4314 -1.4576  0.4679
17413TIP3    H273655   2.742   1.385  14.580  0.3118 -0.3118 -1.2834
17414TIP3   OH273656   0.245   5.030   1.403 -0.0632 -0.3160 -0.4034
17414TIP3    H173657   0.309   5.076   1.458  0.7681  0.9145 -2.3050
17414TIP3    H273658   0.216   4.956   1.457  2.4195 -0.5174  0.8064
17415TIP3   OH273659   1.712   2.063   6.458 -0.5110  0.6186  0.2170
17415TIP3    H173660   1.621   2.067   6.428 -0.1354  0.1349 -1.0397
17415TIP3    H273661   1.726   2.147   6.502 -1.7766  0.3994  1.0916
17416TIP3   OH273662   3.083   5.640  16.208 -0.5699  0.1054  0.1873
17416TIP3    H173663   3.048   5.661  16.122 -0.5942 -1.9778 -0.3582
17416TIP3    H273664   3.028   5.690  16.269 -1.6005  0.3381 -0.9032
17417TIP3   OH273665   0.948   3.144  15.174  0.2664 -0.2140 -0.3119
17417TIP3    H173666   0.928   3.180  15.088 -0.3824  1.7412  0.5994
17417TIP3    H273667   1.038   3.172  15.192  0.6472 -1.2003 -0.6089
17418TIP3   OH273668   5.617   5.648  12.410  0.1810  0.0550 -0.4056
17418TIP3    H173669   5.634   5.597  12.330 -1.6105 -1.0137 -0.1538
17418TIP3    H273670   5.553   5.596  12.459 -1.1269  2.1688  0.2662
17419TIP3   OH273671   0.722   4.101   1.823  0.1938  0.4027  0.2092
17419TIP3    H173672   0.701   4.163   1.894  0.4276 -0.7900  1.3426
17419TIP3    H273673   0.722   4.015   1.865 -0.1634 -0.3982 -1.3492
17420TIP3   OH273674   2.219   3.276  16.126  0.3250  0.5226 -0.1571
17420TIP3    H173675   2.289   3.215  16.150 -0.0499 -0.3163 -1.1339
17420TIP3    H273676   2.188   3.246  16.041  0.6151  2.5417 -1.0397
17421TIP3   OH273677   0.866   1.949  13.860  0.6864 -0.5339  0.0572
17421TIP3    H173678   0.796   1.998  13.816  1.9520 -0.7262 -2.3477
17421TIP3    H273679   0.852   1.858  13.833  2.5542 -0.4034 -1.6074
17422TIP3   OH273680   2.259   0.737   4.190  0.3242  0.0326  0.0335
17422TIP3    H173681   2.342   0.739   4.141  0.5119 -0.4306  0.3247
17422TIP3    H273682   2.207   0.670   4.145 -0.2234  0.9047 -0.6618
17423TIP3   OH273683   6.325   1.440  10.289 -0.1163 -0.1576 -0.4890
17423TIP3    H173684   6.367   1.409  10.209  2.3180 -1.0923  1.0351
17423TIP3    H273685   6.291   1.361  10.331  2.0245 -0.3065  1.1692
17424TIP3   OH273686   6.767   3.249   0.921  0.0058  0.9084 -0.1424
17424TIP3    H173687   6.748   3.259   1.015 -2.3691  1.5558 -0.6164
17424TIP3    H273688   6.861   3.230   0.917 -0.1346 -0.8547  2.4734
17425TIP3   OH273689   2.974   2.438   1.984  0.5651  0.1698  0.5050
17425TIP3    H173690   3.014   2.353   1.964  1.3622  0.5939  0.2281
17425TIP3    H273691   2.995   2.493   1.908  1.1155  0.9630  1.2062
17426TIP3   OH273692   5.086   2.439   3.275  0.1320 -0.4924  0.1004
17426TIP3    H173693   5.037   2.458   3.195 -1.1002  0.3742  1.0107
17426TIP3    H273694   5.078   2.519   3.327  0.1990 -1.3079  1.4177
17427TIP3   OH273695   2.250   3.538   2.341  0.2156  0.0422  0.2163
17427TIP3    H173696   2.185   3.558   2.274 -1.3985 -0.1191  1.6668
17427TIP3    H273697   2.256   3.442   2.341 -1.7329 -0.1665  1.9465
17428TIP3   OH273698   0.173   5.846  12.798 -0.1288  0.0759 -0.4652
17428TIP3    H173699   0.195   5.920  12.741 -0.9716  1.1806  0.5936
17428TIP3    H273700   0.148   5.887  12.881  1.5166 -1.4978  0.8914
17429TIP3   OH273701   5.704   4.238  15.015 -0.4065  0.5606 -0.2939
17429TIP3    H173702   5.772   4.193  14.965 -0.7274  1.0827 -1.2230
17429TIP3    H273703   5.639   4.264  14.949 -0.9213  1.1218  0.4216
17430TIP3   OH273704   0.743   2.724  14.277 -0.4331 -0.0143  0.3323
17430TIP3    H173705   0.678   2.760  14.337  0.1377  0.5714  0.6113
17430TIP3    H273706   0.795   2.665  14.331  0.9522  1.5401  0.7948
17431TIP3   OH273707   6.626   4.800  13.767  1.0210  0.3252  0.0863
17431TIP3    H173708   6.685   4.780  13.694  0.0121 -1.5746 -0.2626
17431TIP3    H273709   6.545   4.829  13.725  1.7020  3.2744  0.5678
17432TIP3   OH273710   5.444   0.668   4.232  0.2467  0.4807 -0.1414
17432TIP3    H173711   5.519   0.617   4.203  1.2069  1.6570  0.1807
17432TIP3    H273712   5.423   0.724   4.157 -0.8981 -0.4531 -0.5502
17433TIP3   OH273713   2.038   3.960   5.644 -0.2310  0.2840 -0.0992
17433TIP3    H173714   2.049   3.866   5.634  0.8098  0.2047  1.4819
17433TIP3    H273715   1.949   3.970   5.679 -0.4205 -0.0857 -0.4705
17434TIP3   OH273716   4.383   6.445  13.727  0.8653 -0.0462  0.3989
17434TIP3    H173717   4.362   6.489  13.809  0.4333 -1.3273  1.0098
17434TIP3    H273718   4.316   6.475  13.665 -0.5305 -1.1966  1.2932
17435TIP3   OH273719   6.756   3.369   1.177  0.0098 -0.3169  0.1652
17435TIP3    H173720   6.783   3.342   1.265  0.2349  2.5682  1.1138
17435TIP3    H273721   6.663   3.392   1.186  0.5657  2.1886  0.3588
17436TIP3   OH273722   5.962   2.901   3.212 -0.3850  0.2107 -0.8949
17436TIP3    H173723   5.931   2.991   3.201 -1.2314  0.3249  1.7691
17436TIP3    H273724   6.052   2.910   3.242 -0.3019  0.1229 -1.1094
17437TIP3   OH273725   1.318   1.257   2.848  0.3267  0.1980 -0.2480
17437TIP3    H173726   1.304   1.328   2.785  0.1743 -0.6762 -1.2197
17437TIP3    H273727   1.321   1.177   2.794 -0.4396 -0.6407  0.9179
17438TIP3   OH273728   4.756   0.775   1.231 -0.4598  0.0081  0.0361
17438TIP3    H173729   4.818   0.755   1.161 -1.4234  0.7698 -1.0942
17438TIP3    H273730   4.675   0.732   1.203 -1.0467  0.9094  0.3159
17439TIP3   OH273731   1.143   1.150  13.216  0.4630  0.2376  0.1492
17439TIP3    H173732   1.095   1.229  13.188 -0.0685 -0.4593 -1.0103
17439TIP3    H273733   1.178   1.114  13.135  0.8825 -0.6014  0.6920
17440TIP3   OH273734   1.450   5.197   1.243  0.2880 -0.1326  0.5059
17440TIP3    H173735   1.477   5.133   1.309 -1.8985 -0.5037  1.1350
17440TIP3    H273736   1.366   5.230   1.274  1.3858  3.2499  0.2977
17441TIP3   OH273737   5.230   3.104   2.979 -0.2965  0.1973  0.8363
17441TIP3    H173738   5.322   3.083   2.963  0.0173  1.9691  0.0644
17441TIP3    H273739   5.217   3.088   3.073  0.7814 -0.1315  0.9355
17442TIP3   OH273740   1.204   2.788  14.148 -0.3308 -0.2361  0.4875
17442TIP3    H173741   1.263   2.822  14.081 -0.2665  1.9462  1.5639
17442TIP3    H273742   1.241   2.702  14.171  0.7521 -0.1687 -0.8742
17443TIP3   OH273743   0.240   4.050  14.581 -0.4120 -0.6616  0.2657
17443TIP3    H173744   0.271   3.962  14.562  1.1229 -0.2479  0.6875
17443TIP3    H273745   0.190   4.041  14.662 -0.4608 -1.1664  0.1848
17444TIP3   OH273746   1.516   2.901  13.375  0.1738 -0.0306  0.8541
17444TIP3    H173747   1.565   2.850  13.310  3.0478 -1.0187  3.4884
17444TIP3    H273748   1.565   2.983  13.383 -0.4743  0.3208  1.3361
17445TIP3   OH273749   0.229   0.861  10.738 -0.8285 -0.5199  0.0056
17445TIP3    H173750   0.200   0.945  10.702 -1.3530 -0.4023  0.6898
17445TIP3    H273751   0.189   0.795  10.681 -0.7863 -0.3134 -0.2617
17446TIP3   OH273752   0.867   3.128  14.884  0.4975  0.2636 -0.0813
17446TIP3    H173753   0.884   3.222  14.880 -1.3068  0.7799  2.4644
17446TIP3    H273754   0.953   3.088  14.871  1.6048  2.3168  0.4783
17447TIP3   OH273755   2.731   4.902   5.366 -0.1003  0.3037  0.6005
17447TIP3    H173756   2.658   4.861   5.414  0.7564  0.9500  2.5739
17447TIP3    H273757   2.724   4.995   5.388  0.2370  0.6514 -0.7082
17448TIP3   OH273758   1.003   2.483  14.844  0.1714  0.4073 -0.2117
17448TIP3    H173759   0.945   2.556  14.822 -0.5222 -0.0070  0.1863
17448TIP3    H273760   1.073   2.487  14.779 -1.0886  0.0249 -1.6576
17449TIP3   OH273761   0.756   0.758  16.896  0.3715  0.0370 -0.1182
17449TIP3    H173762   0.847   0.778  16.875  0.3351 -1.1902 -1.6225
17449TIP3    H273763   0.737   0.679  16.846 -1.2618 -0.2414  0.8777
17450TIP3   OH273764   0.749   1.328  15.974 -0.3319 -0.0805 -0.0050
17450TIP3    H173765   0.681   1.395  15.978 -0.7150 -0.3655 -1.3358
17450TIP3    H273766   0.705   1.248  16.002 -0.7947 -0.4278 -1.6325
17451TIP3   OH273767   1.841   5.784  16.119 -0.1432  0.5274  0.1111
17451TIP3    H173768   1.792   5.867  16.119  0.5522  0.9471 -0.6283
17451TIP3    H273769   1.782   5.722  16.161 -2.1234  0.5523 -2.3782
17452TIP3   OH273770   4.668   3.048   2.395 -0.3957  0.1583 -0.1606
17452TIP3    H173771   4.616   2.985   2.346 -0.4881  0.4492 -0.4419
17452TIP3    H273772   4.688   3.117   2.331 -1.0776  0.8721  0.3777
17453TIP3   OH273773   3.505   5.513  15.365 -0.4250 -0.8930 -0.1355
17453TIP3    H173774   3.587   5.506  15.315  0.1009 -2.8020  0.9097
17453TIP3    H273775   3.531   5.557  15.446 -0.0288 -2.9263  0.9038
17454TIP3   OH273776   4.331   2.824  11.362  0.7108 -0.4922  0.1035
17454TIP3    H173777   4.350   2.817  11.456  0.9311  1.3655  0.2163
17454TIP3    H273778   4.417   2.823  11.320  0.9383  2.9568  0.2707
17455TIP3   OH273779   0.167   1.008  11.217  0.1257  0.4051 -0.3248
17455TIP3    H173780   0.244   1.060  11.194  0.7495 -0.3037  0.0992
17455TIP3    H273781   0.110   1.068  11.264 -0.2570  1.3380 -1.9061
17456TIP3   OH273782   5.990   2.941   3.673 -0.2913 -0.2469  0.1458
17456TIP3    H173783   6.012   3.008   3.608  1.5568 -0.6729  0.2854
17456TIP3    H273784   5.953   2.990   3.747  0.8761  0.6179  0.1783
17457TIP3   OH273785   4.246   5.207   1.050  0.1947  0.5138  0.4462
17457TIP3    H173786   4.250   5.292   1.094  2.4333 -0.1618  1.7004
17457TIP3    H273787   4.333   5.196   1.012 -0.1912 -1.0303 -0.0461
17458TIP3   OH273788   5.877   3.677   5.965 -0.3241  0.2957  0.2771
17458TIP3    H173789   5.920   3.761   5.983 -0.6365  0.4828  0.1668
17458TIP3    H273790   5.914   3.649   5.881  1.6770 -0.9393  1.5057
17459TIP3   OH273791   2.903   2.385  15.082  0.3883  0.3382  0.6033
17459TIP3    H173792   2.898   2.450  15.012  0.7268 -0.7113 -0.4246
17459TIP3    H273793   2.873   2.304  15.042  1.0033 -0.3766  1.5481
17460TIP3   OH273794   0.282   3.679   3.308  0.5083 -0.2696  0.0534
17460TIP3    H173795   0.297   3.698   3.400  1.9280  1.6568 -0.5007
17460TIP3    H273796   0.326   3.595   3.293  1.2359 -0.0519  0.8942
17461TIP3   OH273797   3.994   5.556  17.298 -0.0347 -0.0754  0.6554
17461TIP3    H173798   4.005   5.558  17.203 -2.6324 -0.6924  0.2659
17461TIP3    H273799   3.928   5.623  17.316 -0.5608 -0.8793  1.8455
17462TIP3   OH273800   2.221   0.152   2.085  0.1236  0.3384 -0.0838
17462TIP3    H173801   2.163   0.094   2.035  0.1988  0.7847 -0.7131
17462TIP3    H273802   2.225   0.113   2.172 -1.8290  0.7540  0.2570
17463TIP3   OH273803   3.525   0.391  12.092 -0.4150 -0.0844  0.2582
17463TIP3    H173804   3.589   0.344  12.146 -1.1738 -2.5234 -0.8130
17463TIP3    H273805   3.547   0.367  12.002 -0.4265  2.2778 -0.4424
17464TIP3   OH273806   2.004   0.718   0.815 -0.4428  0.1792  0.2882
17464TIP3    H173807   1.929   0.667   0.787  0.5738 -0.6529 -1.0385
17464TIP3    H273808   2.079   0.659   0.806  0.2796  0.6239  2.6129
17465TIP3   OH273809   5.298   5.832  13.091 -0.0303  0.1821 -0.0590
17465TIP3    H173810   5.389   5.849  13.068  0.0548 -0.2137 -0.0166
17465TIP3    H273811   5.284   5.741  13.068  0.2120 -0.4057  1.9120
17466TIP3   OH273812   6.263   4.291   3.105 -0.1693  0.4448 -0.1642
17466TIP3    H173813   6.187   4.276   3.049 -1.7661  0.7610  1.7972
17466TIP3    H273814   6.268   4.386   3.115  0.3730  0.4183 -0.1089
17467TIP3   OH273815   4.317   1.357  12.101  0.2831 -0.2692  0.0134
17467TIP3    H173816   4.256   1.415  12.054 -0.5152 -1.6986 -0.7936
17467TIP3    H273817   4.351   1.298  12.033  0.7006 -1.0496  0.8832
17468TIP3   OH273818   0.616   5.949  13.278  0.8804  0.1226 -0.1368
17468TIP3    H173819   0.580   6.017  13.222 -0.8263 -0.2157  0.5072
17468TIP3    H273820   0.628   5.874  13.220 -0.0784  0.0433 -0.2469
17469TIP3   OH273821   4.130   0.272   4.161 -0.3302 -0.2907 -0.2931
17469TIP3    H173822   4.125   0.341   4.227 -0.1674 -0.9943  0.4742
17469TIP3    H273823   4.209   0.291   4.111 -0.4414  0.2359 -0.2678
17470TIP3   OH273824   3.394   2.223  14.749 -0.3631  0.5058  0.0231
17470TIP3    H173825   3.484   2.225  14.714 -0.3858 -0.5890 -0.1304
17470TIP3    H273826   3.339   2.223  14.671 -0.4799  0.5334  0.1060
17471TIP3   OH273827   3.683   0.493  13.591  0.4560  0.2403  0.6963
17471TIP3    H173828   3.612   0.477  13.654 -1.5291  2.6712 -0.7276
17471TIP3    H273829   3.749   0.541  13.641  0.8277 -1.3772  1.8513
17472TIP3   OH273830   3.209   6.445  16.139  0.3960 -0.4284 -0.1529
17472TIP3    H173831   3.181   6.376  16.078 -3.9035  1.1458 -0.2928
17472TIP3    H273832   3.246   6.513  16.083 -1.1409 -0.0854 -0.8138
17473TIP3   OH273833   6.297   0.863  13.710 -0.3143 -0.0038 -0.0762
17473TIP3    H173834   6.207   0.895  13.712  0.4771  2.4151  0.9185
17473TIP3    H273835   6.328   0.882  13.621 -0.9549 -1.5325 -0.6624
17474TIP3   OH273836   6.583   5.930  10.444  0.6024  0.1832 -0.4198
17474TIP3    H173837   6.628   5.903  10.524 -1.0214  1.2588  0.9214
17474TIP3    H273838   6.618   5.872  10.376  3.3280  0.4116  0.6818
17475TIP3   OH273839   0.485   1.439  13.532  0.0944  0.2522  0.0610
17475TIP3    H173840   0.556   1.382  13.502  0.2502 -0.4499  1.6239
17475TIP3    H273841   0.426   1.380  13.579 -0.2508  1.2297  0.8917
17476TIP3   OH273842   6.154   5.596   1.828  0.0827  0.0221  0.0033
17476TIP3    H173843   6.135   5.504   1.809  0.7277 -0.0027 -0.5827
17476TIP3    H273844   6.237   5.613   1.783  0.6951  0.5095  1.2660
17477TIP3   OH273845   4.373   4.338   4.772  0.0875  0.2007  0.1574
17477TIP3    H173846   4.389   4.406   4.837 -1.4900  1.9884 -1.2094
17477TIP3    H273847   4.433   4.358   4.700 -0.7950  0.5566 -0.5030
17478TIP3   OH273848   6.610   6.651  11.446 -0.1609  0.0534 -0.2946
17478TIP3    H173849   6.618   6.615  11.534  0.0078  1.6379  0.3884
17478TIP3    H273850   6.684   6.711  11.438 -0.1788 -0.0641 -1.5189
17479TIP3   OH273851   4.266   4.993   4.763 -0.1754 -0.1360  0.1364
17479TIP3    H173852   4.325   4.924   4.734 -0.8979 -0.0746 -1.5953
17479TIP3    H273853   4.260   4.980   4.858  1.1784 -1.2529  0.1072
17480TIP3   OH273854   5.790   3.388   5.919  0.5362 -0.1472 -0.1295
17480TIP3    H173855   5.707   3.384   5.872  0.6126  1.1828 -0.3969
17480TIP3    H273856   5.820   3.478   5.908  2.1050 -0.6455 -0.1943
17481TIP3   OH273857   1.870   2.228  15.910  0.1201  0.2802 -0.1105
17481TIP3    H173858   1.841   2.205  15.998  0.6666  0.4423  0.1192
17481TIP3    H273859   1.956   2.268  15.924 -0.2748  1.3463 -0.6034
17482TIP3   OH273860   4.247   3.015   2.281  0.0126 -0.4005 -0.0070
17482TIP3    H173861   4.265   3.109   2.284  1.2201 -0.6213  0.4267
17482TIP3    H273862   4.173   3.002   2.340  1.2233  0.0188  1.6773
17483TIP3   OH273863   6.085   1.585  15.919 -0.5000 -0.2164 -0.3537
17483TIP3    H173864   6.107   1.514  15.979  0.5885 -0.9609 -1.6021
17483TIP3    H273865   5.999   1.616  15.949  0.7015  0.5561  2.6045
17484TIP3   OH273866   2.206   1.777  16.010 -0.6016 -0.1168 -0.2255
17484TIP3    H173867   2.199   1.746  15.920 -0.3099 -0.0678 -0.2646
17484TIP3    H273868   2.300   1.783  16.026 -0.5802 -2.4811  0.8922
17485TIP3   OH273869   1.611   6.293   4.511  0.1572 -0.6096 -0.3120
17485TIP3    H173870   1.694   6.266   4.473  1.3681  0.3433  1.4748
17485TIP3    H273871   1.585   6.219   4.566 -0.7753 -1.3486 -1.7086
17486TIP3   OH273872   0.118   1.308  15.893 -0.0238 -0.3023 -0.2595
17486TIP3    H173873   0.127   1.213  15.893  0.3718 -0.2691  0.3346
17486TIP3    H273874   0.111   1.331  15.800 -1.9937 -1.0664 -0.3387
17487TIP3   OH273875   5.828   3.881  17.302  0.0066 -0.3365 -0.2849
17487TIP3    H173876   5.822   3.786  17.315 -0.4167 -0.3574 -0.6060
17487TIP3    H273877   5.922   3.899  17.306  0.0086 -0.5780  1.0500
17488TIP3   OH273878   3.179   1.474   0.467  0.6395  0.2015 -0.0683
17488TIP3    H173879   3.238   1.431   0.530  0.3567 -2.6265 -1.5870
17488TIP3    H273880   3.237   1.527   0.412  1.1920  0.7270  0.9898
17489TIP3   OH273881   3.551   3.456  16.283  0.4318 -0.4752  0.3938
17489TIP3    H173882   3.584   3.537  16.323  1.4659 -0.4399 -0.4840
17489TIP3    H273883   3.565   3.468  16.189 -1.9360 -0.5655 -0.0168
17490TIP3   OH273884   6.717   0.643   3.195  0.3726  0.9633 -0.3174
17490TIP3    H173885   6.656   0.652   3.268 -2.4944  0.6564 -2.5012
17490TIP3    H273886   6.731   0.733   3.164  0.3483  0.9687 -0.3127
17491TIP3   OH273887   0.986   5.692   0.369  0.4744 -0.3229 -0.3443
17491TIP3    H173888   1.063   5.700   0.313 -0.5212 -2.3965 -2.1487
17491TIP3    H273889   0.914   5.727   0.316 -0.5064 -2.3858 -0.4755
17492TIP3   OH273890   3.250   4.808  10.989 -0.0794 -0.3686  0.1000
17492TIP3    H173891   3.249   4.866  10.913  0.2481 -1.0638 -0.4520
17492TIP3    H273892   3.170   4.829  11.037 -0.7167 -0.4815 -0.8735
17493TIP3   OH273893   4.477   1.442  17.116 -0.2570 -0.2191 -0.1430
17493TIP3    H173894   4.429   1.521  17.141 -1.5699 -0.3004 -2.2131
17493TIP3    H273895   4.463   1.434  17.022  1.3887 -1.9214 -0.2963
17494TIP3   OH273896   5.441   3.526  11.853  0.5335  0.4378  0.0964
17494TIP3    H173897   5.501   3.454  11.830 -0.1723 -0.0303 -0.3130
17494TIP3    H273898   5.380   3.530  11.780 -2.1227 -1.4496  2.0221
17495TIP3   OH273899   6.392   5.718   5.249 -0.3592 -0.8510 -0.8361
17495TIP3    H173900   6.317   5.717   5.308 -1.0257  2.0391 -1.4801
17495TIP3    H273901   6.357   5.685   5.166 -1.4738  1.8177 -1.5595
17496TIP3   OH273902   4.385   5.213  12.709 -0.3589  0.3487  0.4525
17496TIP3    H173903   4.425   5.142  12.759  0.2758  0.0555 -0.4413
17496TIP3    H273904   4.301   5.177  12.678 -0.8039  0.5700  1.3764
17497TIP3   OH273905   2.072   4.932   5.849  0.4691 -0.3514 -0.1156
17497TIP3    H173906   2.105   4.872   5.915 -0.9896 -1.1997 -0.1239
17497TIP3    H273907   1.977   4.932   5.861 -0.2264 -2.6390 -3.8402
17498TIP3   OH273908   6.588   2.890   2.627 -0.5364  0.5378  0.1263
17498TIP3    H173909   6.633   2.962   2.584  0.0440  0.5336  0.7048
17498TIP3    H273910   6.586   2.915   2.720 -1.0647  0.1962  0.2093
17499TIP3   OH273911   2.827   3.448  11.487  0.6112  0.1715  0.1366
17499TIP3    H173912   2.818   3.442  11.582  0.4011  0.7110  0.1551
17499TIP3    H273913   2.912   3.491  11.474  0.3522  0.6917  0.1046
17500TIP3   OH273914   6.384   3.808  12.479  0.2449 -0.4121  0.0380
17500TIP3    H173915   6.350   3.773  12.562 -0.8292  0.2413 -0.1090
17500TIP3    H273916   6.440   3.881  12.506 -1.6794  1.1174  0.1728
17501TIP3   OH273917   0.405   5.634  17.158  0.3656 -0.4022 -0.0391
17501TIP3    H173918   0.356   5.556  17.184 -1.8058  0.5701 -1.0182
17501TIP3    H273919   0.347   5.681  17.099  3.1477  0.0064 -2.6874
17502TIP3   OH273920   0.400   2.216   2.295  0.1814  0.0272 -0.3365
17502TIP3    H173921   0.396   2.276   2.220 -2.1395 -0.9445 -1.0788
17502TIP3    H273922   0.325   2.241   2.349  1.5793  0.4328  1.4977
17503TIP3   OH273923   5.714   5.266  12.769  0.1424 -0.0903  0.2073
17503TIP3    H173924   5.780   5.198  12.781  2.3474  1.4571 -2.1988
17503TIP3    H273925   5.652   5.229  12.707  3.2543  1.0050 -4.0378
17504TIP3   OH273926   3.093   2.090   3.545  0.0053 -0.0256  0.1116
17504TIP3    H173927   3.111   2.018   3.485  0.1744  0.1276 -0.0219
17504TIP3    H273928   3.115   2.169   3.496 -0.4826  0.1376  0.1410
17505TIP3   OH273929   1.327   1.686   4.999 -0.1862 -0.1583 -0.3764
17505TIP3    H173930   1.299   1.704   5.089  0.0076 -1.1333 -0.1080
17505TIP3    H273931   1.279   1.607   4.975 -2.2914  1.5249 -2.1032
17506TIP3   OH273932   3.012   4.772   1.257  0.0115  0.3166 -0.1995
17506TIP3    H173933   3.071   4.751   1.329 -1.3505  0.8463  1.1453
17506TIP3    H273934   3.056   4.741   1.179  1.5541 -0.2776  0.8654
17507TIP3   OH273935   3.132   5.348   4.712 -0.2858  0.5374  0.0875
17507TIP3    H173936   3.211   5.362   4.658 -0.2856  0.1209 -0.0231
17507TIP3    H273937   3.112   5.434   4.747  1.1228  0.3905  1.3542
17508TIP3   OH273938   6.641   5.563   6.397  0.1561 -0.4040 -0.3721
17508TIP3    H173939   6.579   5.584   6.467  0.2762 -0.7202 -0.1680
17508TIP3    H273940   6.593   5.501   6.341  1.0155 -2.3653  0.9719
17509TIP3   OH273941   5.051   0.236   3.677  0.2426  0.9148 -0.0147
17509TIP3    H173942   5.083   0.317   3.637  1.1855  1.0084  0.8662
17509TIP3    H273943   5.124   0.175   3.669  0.3106  0.8205  1.1847
17510TIP3   OH273944   6.200   0.945   1.304 -0.2137  0.1377 -0.4813
17510TIP3    H173945   6.181   0.944   1.210  0.4568  0.3711 -0.6193
17510TIP3    H273946   6.154   1.023   1.336 -0.8417 -0.2086 -0.5295
17511TIP3   OH273947   6.754   5.901   3.505 -0.0694 -0.0867  0.3393
17511TIP3    H173948   6.734   5.809   3.518 -0.3315  0.0267  0.7657
17511TIP3    H273949   6.671   5.946   3.520  0.0569  0.2165  0.1340
17512TIP3   OH273950   2.432   1.122   5.577 -0.8181 -0.2011  0.0953
17512TIP3    H173951   2.474   1.207   5.586  3.6692 -2.0446 -0.4808
17512TIP3    H273952   2.421   1.109   5.483  0.7142 -1.0775  0.0035
17513TIP3   OH273953   5.216   4.751  12.167 -0.1543 -0.5837  0.3671
17513TIP3    H173954   5.222   4.844  12.188  0.6094 -1.0079  2.2414
17513TIP3    H273955   5.135   4.722  12.209 -0.6801 -0.6757 -0.6789
17514TIP3   OH273956   5.733   6.539   1.272 -0.6960 -0.0046  0.2519
17514TIP3    H173957   5.736   6.484   1.350  1.7600  0.1293  0.3488
17514TIP3    H273958   5.785   6.492   1.207  0.0342  1.3534 -0.2081
17515TIP3   OH273959   5.049   3.720   2.571  0.1557  0.5033 -0.2040
17515TIP3    H173960   4.998   3.654   2.524  0.2300  0.7988 -0.7098
17515TIP3    H273961   4.995   3.743   2.647 -0.9459  1.5223 -1.2433
17516TIP3   OH273962   1.056   4.400   3.677 -0.3952  0.1909  0.1704
17516TIP3    H173963   1.115   4.436   3.744 -0.8481  2.3944 -0.5570
17516TIP3    H273964   0.970   4.433   3.700 -0.9637 -1.0096 -0.1703
17517TIP3   OH273965   3.099   3.664  12.505 -0.3506  0.3385  0.2355
17517TIP3    H173966   3.095   3.569  12.507  0.5860  0.2791 -0.0908
17517TIP3    H273967   3.111   3.686  12.412 -0.3046  0.7522  0.3331
17518TIP3   OH273968   4.684   3.597  11.132 -0.1116 -0.4867 -0.1357
17518TIP3    H173969   4.700   3.598  11.227  0.7395 -0.9906 -0.2682
17518TIP3    H273970   4.744   3.531  11.098 -0.4614 -0.3563 -1.0226
17519TIP3   OH273971   1.510   2.813   5.293 -0.2488  0.1487  0.5646
17519TIP3    H173972   1.452   2.740   5.272 -1.0640  0.5013  1.5198
17519TIP3    H273973   1.475   2.887   5.242  0.1959  0.0353  0.0869
17520TIP3   OH273974   5.020   1.078  15.376 -0.0887  0.0832 -0.0284
17520TIP3    H173975   5.080   1.100  15.447 -0.6783  2.9395 -0.2839
17520TIP3    H273976   5.076   1.062  15.300  0.4263 -0.3710  0.4375
17521TIP3   OH273977   3.907   2.913   0.006 -0.3112  0.3379 -0.0627
17521TIP3    H173978   3.848   2.986   0.019 -0.9982 -0.2240  0.0373
17521TIP3    H273979   3.868   2.862  -0.065 -0.3112 -0.3866  0.4422
17522TIP3   OH273980   5.332   4.881  17.329 -0.0122 -0.6442  0.0621
17522TIP3    H173981   5.390   4.872  17.253 -1.6168  1.9946 -1.6158
17522TIP3    H273982   5.347   4.971  17.360 -1.4585 -0.7250  1.0848
17523TIP3   OH273983   2.597   5.359  15.873  0.2983 -0.0428  0.3959
17523TIP3    H173984   2.572   5.451  15.884  0.2413  0.1303 -1.0020
17523TIP3    H273985   2.648   5.357  15.792  0.2962 -1.2456  0.4000
17524TIP3   OH273986   1.843   1.910   5.053 -0.0428  0.2416  0.0309
17524TIP3    H173987   1.880   1.823   5.067 -0.5147 -0.3120 -1.9120
17524TIP3    H273988   1.750   1.895   5.038 -0.4382  1.2709  1.2613
17525TIP3   OH273989   5.753   5.866   3.709  0.0713 -0.7759  0.3031
17525TIP3    H173990   5.671   5.873   3.661 -0.4951  0.7515  1.3871
17525TIP3    H273991   5.758   5.775   3.736 -0.8729 -1.0655 -0.4436
17526TIP3   OH273992   5.882   3.027   4.853 -0.7449  0.0927  0.1644
17526TIP3    H173993   5.918   3.106   4.894  0.9641 -1.5823  2.1527
17526TIP3    H273994   5.950   2.997   4.794 -1.8154  0.6126 -1.3912
17527TIP3   OH273995   5.042   4.398  15.720 -0.4524  0.5091 -0.2690
17527TIP3    H173996   5.022   4.447  15.640 -1.2707  2.1667  0.8992
17527TIP3    H273997   5.024   4.307  15.696  0.5178  0.7936 -2.3159
17528TIP3   OH273998   1.472   4.628  11.927 -0.0373  0.0914  0.0212
17528TIP3    H173999   1.479   4.591  11.838 -2.5369  1.6545 -0.9127
17528TIP3    H274000   1.514   4.713  11.921  0.5740 -0.1602  0.6098
17529TIP3   OH274001   0.601   5.613  10.652  0.4363 -0.1000  0.2768
17529TIP3    H174002   0.572   5.587  10.739  3.2335  3.5144  2.5887
17529TIP3    H274003   0.545   5.687  10.629  1.5362  0.7895  0.3908
17530TIP3   OH274004   5.360   5.561  15.915  0.1023 -0.0621  0.2487
17530TIP3    H174005   5.386   5.653  15.924  0.1445 -0.1415  0.9836
17530TIP3    H274006   5.442   5.513  15.909  0.0796 -0.0522 -0.2247
17531TIP3   OH274007   3.554   6.486   2.158 -0.0170 -0.4217 -0.1018
17531TIP3    H174008   3.614   6.426   2.113 -0.7338 -1.7508  0.6336
17531TIP3    H274009   3.497   6.428   2.209  0.0967  0.9520  1.6721
17532TIP3   OH274010   4.181   2.462  11.203 -0.3482 -0.5219 -0.2930
17532TIP3    H174011   4.173   2.543  11.152 -1.1515  0.9014  1.9358
17532TIP3    H274012   4.273   2.460  11.230 -0.4274 -0.1170  0.0073
17533TIP3   OH274013   0.115   5.199  11.718 -0.4272 -0.3268 -0.0477
17533TIP3    H174014   0.210   5.209  11.710 -0.2112 -1.7391  0.5997
17533TIP3    H274015   0.099   5.107  11.701 -1.8855  0.1733 -1.7236
17534TIP3   OH274016   1.810   1.717   2.443 -0.6499 -0.0034  0.6277
17534TIP3    H174017   1.805   1.812   2.449 -2.1340 -0.0348  0.2961
17534TIP3    H274018   1.875   1.700   2.375 -0.0725  0.7535  0.9828
17535TIP3   OH274019   1.688   4.553  13.713  0.3399 -0.3781 -0.1695
17535TIP3    H174020   1.732   4.486  13.662 -3.4781 -1.1606 -2.9052
17535TIP3    H274021   1.657   4.617  13.648 -1.7181  0.5124  1.5399
17536TIP3   OH274022   5.635   3.448   0.229  0.0871  0.6160 -0.1846
17536TIP3    H174023   5.559   3.411   0.274 -0.3665  1.9212  0.1551
17536TIP3    H274024   5.606   3.462   0.139  0.5942 -0.7993 -0.5939
17537TIP3   OH274025   4.781   2.177  12.914  0.3104 -0.0212  0.4246
17537TIP3    H174026   4.835   2.099  12.902  2.0513  0.7183  2.6873
17537TIP3    H274027   4.758   2.204  12.825  2.3322 -1.3203 -0.5759
17538TIP3   OH274028   4.252   2.151   5.860 -0.1047 -0.5786  0.6852
17538TIP3    H174029   4.177   2.101   5.892  0.7300 -1.4830  1.3045
17538TIP3    H274030   4.310   2.086   5.821  1.0232 -0.1272  1.5416
17539TIP3   OH274031   1.982   1.125  13.660 -0.1734  0.0107 -0.4112
17539TIP3    H174032   2.037   1.172  13.722  0.7979  0.6145 -1.6881
17539TIP3    H274033   2.042   1.069  13.612 -1.0375 -1.0861 -0.2579
17540TIP3   OH274034   4.745   0.731   4.728  0.2313 -0.2366  0.5213
17540TIP3    H174035   4.755   0.754   4.636  0.4923 -0.6257  0.4500
17540TIP3    H274036   4.754   0.814   4.775  1.3743 -0.2187  0.2915
17541TIP3   OH274037   1.991   2.616  14.348 -0.2047  0.6911  0.3614
17541TIP3    H174038   1.980   2.522  14.342 -0.9146  0.6803  1.6166
17541TIP3    H274039   2.077   2.633  14.307 -0.7628 -0.2843 -1.2844
17542TIP3   OH274040   2.053   1.056  14.296 -0.0070 -0.1046  0.2155
17542TIP3    H174041   2.048   1.024  14.206 -1.0394  0.4261  0.0742
17542TIP3    H274042   2.010   1.142  14.293  0.2773  0.0820  1.1477
17543TIP3   OH274043   0.150   6.600   1.579  0.2247 -0.0550  0.6423
17543TIP3    H174044   0.099   6.528   1.617 -0.1941 -0.7918 -1.2308
17543TIP3    H274045   0.095   6.633   1.508  1.5117  0.4406 -0.1456
17544TIP3   OH274046   2.632   4.197   5.080 -0.0659  0.8231 -0.0926
17544TIP3    H174047   2.640   4.292   5.090 -0.4104  0.8437 -0.0030
17544TIP3    H274048   2.572   4.186   5.006  1.0467  0.6748 -1.0060
17545TIP3   OH274049   4.058   5.034  14.682  0.2055  0.2437  0.0322
17545TIP3    H174050   4.015   4.949  14.682  0.4377  0.1129 -0.8575
17545TIP3    H274051   3.986   5.097  14.690  0.0589 -0.0354  1.0039
17546TIP3   OH274052   2.095   0.994   2.285 -0.1183  0.2290 -0.1753
17546TIP3    H174053   2.148   1.073   2.296  0.1861  0.0077 -0.0358
17546TIP3    H274054   2.125   0.957   2.201 -0.2729  0.2727 -0.2493
17547TIP3   OH274055   2.933   6.189  12.758 -0.1572  0.3834  0.5043
17547TIP3    H174056   2.910   6.239  12.836 -0.4854  0.2743  0.4828
17547TIP3    H274057   2.864   6.211  12.695  0.2916  0.7244  0.1339
17548TIP3   OH274058   0.140   4.846   0.184  0.1933  0.3897  0.2157
17548TIP3    H174059   0.126   4.820   0.092 -1.6076 -0.6165  0.7087
17548TIP3    H274060   0.151   4.763   0.230  1.6168  0.9177  0.8676
17549TIP3   OH274061   1.689   0.341   6.063 -0.1612  0.0840 -0.0450
17549TIP3    H174062   1.781   0.317   6.049 -0.0936  0.3319 -0.0260
17549TIP3    H274063   1.692   0.432   6.092 -0.4339  0.1703 -0.2869
17550TIP3   OH274064   5.101   1.740  17.129 -0.1680  0.4025  0.1234
17550TIP3    H174065   5.167   1.732  17.198 -0.3840  0.8040  0.3857
17550TIP3    H274066   5.029   1.789  17.170  0.0057  1.2997 -0.5984
17551TIP3   OH274067   4.663   3.680  13.086  0.1946  0.7418 -0.3728
17551TIP3    H174068   4.593   3.642  13.139 -0.0546 -2.8020 -2.8827
17551TIP3    H274069   4.744   3.642  13.121  0.5002  1.7189  0.0314
17552TIP3   OH274070   3.441   2.031  17.113 -0.1444 -0.3525  0.1143
17552TIP3    H174071   3.436   1.969  17.185 -1.1131 -0.2442  0.1466
17552TIP3    H274072   3.447   1.976  17.035 -1.8850 -0.5369  0.0711
17553TIP3   OH274073   3.559   2.571  14.895  0.1073  0.5196 -0.0836
17553TIP3    H174074   3.525   2.575  14.806  0.6126 -0.7099 -0.3528
17553TIP3    H274075   3.485   2.596  14.950 -0.0808  1.7621 -0.8466
17554TIP3   OH274076   1.798   0.053   6.672  0.4358 -0.2294  0.3443
17554TIP3    H174077   1.889   0.030   6.651  0.2995 -1.5972  1.1274
17554TIP3    H274078   1.802   0.145   6.696  1.6675 -0.3262  0.5780
17555TIP3   OH274079   3.435   4.682   5.276 -0.0747 -0.1960 -0.2993
17555TIP3    H174080   3.491   4.690   5.199  3.0968 -1.3907  1.6849
17555TIP3    H274081   3.478   4.737   5.343 -0.9888 -1.5297  1.4665
17556TIP3   OH274082   3.227   4.466   5.239  0.2278 -0.2251 -0.3692
17556TIP3    H174083   3.291   4.535   5.254  0.4801 -0.1616 -1.6714
17556TIP3    H274084   3.238   4.406   5.314  0.4701  0.7657  0.4100
17557TIP3   OH274085   2.832   4.916  12.516  0.0453 -0.0229 -0.6291
17557TIP3    H174086   2.905   4.855  12.507 -0.4531 -0.3710 -2.9519
17557TIP3    H274087   2.766   4.869  12.567  0.5404 -0.5638 -0.4827
17558TIP3   OH274088   1.335   5.638  16.854  0.4316  0.3875 -0.4644
17558TIP3    H174089   1.386   5.560  16.874 -0.1166 -0.3257 -1.7201
17558TIP3    H274090   1.277   5.649  16.930  0.7781 -0.1942 -0.1041
17559TIP3   OH274091   4.240   0.894   2.269  0.7066  0.0020  0.3839
17559TIP3    H174092   4.322   0.934   2.298 -0.1765  2.3726 -0.2270
17559TIP3    H274093   4.262   0.850   2.187  1.3670  0.6179  0.2235
17560TIP3   OH274094   4.083   0.191  15.171 -0.0308 -0.1596 -0.5419
17560TIP3    H174095   4.052   0.260  15.231 -1.0859 -0.2696 -0.9370
17560TIP3    H274096   4.149   0.143  15.221  0.2487  0.7326 -0.0316
17561TIP3   OH274097   2.498   2.681  15.079 -0.2372  0.0185 -0.1376
17561TIP3    H174098   2.417   2.665  15.128 -0.5233  0.0919 -0.5806
17561TIP3    H274099   2.471   2.682  14.988 -0.1193  2.2458 -0.2070
17562TIP3   OH274100   3.345   5.710   2.422  0.1388 -0.6789 -0.1134
17562TIP3    H174101   3.403   5.747   2.355  0.3626 -0.1265  0.3773
17562TIP3    H274102   3.304   5.786   2.462 -1.7816 -1.0934 -1.1789
17563TIP3   OH274103   5.317   2.209   4.792  0.4428  0.3427  0.6581
17563TIP3    H174104   5.392   2.208   4.732 -1.3723 -0.2246 -1.7563
17563TIP3    H274105   5.324   2.294   4.837  1.7902  0.8949 -0.4981
17564TIP3   OH274106   3.800   2.710   4.647  0.3049  0.4769  0.3728
17564TIP3    H174107   3.827   2.726   4.557  0.6663  0.2243  0.4350
17564TIP3    H274108   3.709   2.682   4.640  0.1971  0.8808  0.1253
17565TIP3   OH274109   1.358   0.372   2.484  0.1306  0.0303 -0.0490
17565TIP3    H174110   1.288   0.335   2.537 -1.1065  0.4028 -1.3584
17565TIP3    H274111   1.415   0.298   2.463 -0.8735 -0.6377 -0.4525
17566TIP3   OH274112   3.968   3.098  15.409 -0.4022 -0.0240 -1.2254
17566TIP3    H174113   4.054   3.084  15.449 -0.9011 -3.6496 -1.1048
17566TIP3    H274114   3.910   3.113  15.483 -0.0618  1.7317 -1.2658
17567TIP3   OH274115   4.888   3.929   3.016  0.1197 -0.0043  0.6739
17567TIP3    H174116   4.812   3.897   3.065 -0.6735  1.9333  0.8039
17567TIP3    H274117   4.866   4.020   2.994  1.4727 -0.0660 -1.2039
17568TIP3   OH274118   2.392   4.215   2.341 -0.2250 -0.1606  0.0535
17568TIP3    H174119   2.361   4.251   2.424  1.0989  0.5009  0.2955
17568TIP3    H274120   2.453   4.282   2.308  0.4889 -1.1320 -0.6449
17569TIP3   OH274121   1.186   3.579  12.073 -0.7586 -0.5647  0.4259
17569TIP3    H174122   1.106   3.622  12.043 -1.6222 -0.8640  2.1368
17569TIP3    H274123   1.256   3.620  12.022 -1.4100  3.4896  2.3411
17570TIP3   OH274124   4.588   2.844  13.458  0.0489  0.5523 -0.1860
17570TIP3    H174125   4.625   2.907  13.519 -1.6081 -0.2806  1.8240
17570TIP3    H274126   4.607   2.758  13.497  0.6983 -0.1456 -1.9274
17571TIP3   OH274127   4.065   0.657  12.995  0.6102  0.4339 -0.3194
17571TIP3    H174128   4.053   0.751  13.002 -0.5269  0.2828  0.0280
17571TIP3    H274129   4.057   0.625  13.084  0.1080 -0.0766 -0.5416
17572TIP3   OH274130   1.209   2.909   4.155  0.0969  0.1682  0.3722
17572TIP3    H174131   1.287   2.919   4.101  0.0832 -2.3930 -0.2161
17572TIP3    H274132   1.148   2.858   4.101 -0.7040 -0.7216  2.0375
17573TIP3   OH274133   3.799   6.135  15.370  0.0427 -0.6665 -0.1626
17573TIP3    H174134   3.724   6.186  15.401  2.0385  1.7018  1.1526
17573TIP3    H274135   3.788   6.134  15.275 -1.4666 -0.0672 -0.0399
17574TIP3   OH274136   5.316   1.748  15.845  0.5607  0.1756  0.2146
17574TIP3    H174137   5.312   1.652  15.851  2.4907 -0.2083 -2.5343
17574TIP3    H274138   5.225   1.775  15.832  0.0886 -1.4167 -0.0684
17575TIP3   OH274139   5.023   2.164   3.232 -0.6866  0.3031  0.0275
17575TIP3    H174140   5.033   2.258   3.247 -1.7495  0.3483  0.5826
17575TIP3    H274141   5.073   2.146   3.152 -0.5938  1.3634 -0.1623
17576TIP3   OH274142   6.680   5.814  15.250  0.4104  0.7646  0.0167
17576TIP3    H174143   6.722   5.873  15.187 -4.4448  2.8040 -1.8042
17576TIP3    H274144   6.657   5.870  15.324  0.0356  0.0094  0.4809
17577TIP3   OH274145   0.222   4.179   0.666  0.0721  0.1349 -0.0838
17577TIP3    H174146   0.126   4.177   0.666 -0.0065 -0.4899  2.9309
17577TIP3    H274147   0.248   4.088   0.648  0.0815  0.1025  0.0973
17578TIP3   OH274148   5.614   3.236  11.301  0.1092 -0.0641  0.0776
17578TIP3    H174149   5.655   3.268  11.221  0.7477  0.1125  0.4685
17578TIP3    H274150   5.555   3.307  11.329  0.8965  0.4360  0.4914
17579TIP3   OH274151   1.926   3.708   4.937  0.0291  0.1730 -0.3193
17579TIP3    H174152   1.869   3.649   4.986 -0.6346  0.7502 -0.3744
17579TIP3    H274153   1.923   3.676   4.847  0.2192 -0.1199 -0.2213
17580TIP3   OH274154   2.495   6.753   1.911  0.4481 -0.3938 -0.2136
17580TIP3    H174155   2.511   6.666   1.947  3.9104  1.1412  2.5792
17580TIP3    H274156   2.574   6.774   1.862  0.9604  2.1468  1.5229
17581TIP3   OH274157   2.388   6.645   1.481 -0.0320 -0.4174 -0.3715
17581TIP3    H174158   2.480   6.645   1.455  0.2187  1.8456  0.2944
17581TIP3    H274159   2.344   6.596   1.412  1.5014 -0.4655 -1.3720
17582TIP3   OH274160   0.229   4.993   5.614  0.2337 -0.2130 -0.6310
17582TIP3    H174161   0.137   5.010   5.631  0.7311  1.4668  0.7164
17582TIP3    H274162   0.263   5.077   5.581  1.2946 -0.7760 -1.0205
17583TIP3   OH274163   3.719   1.230   2.135 -0.3456 -0.2996 -1.0079
17583TIP3    H174164   3.637   1.263   2.172  0.2162  1.1917 -1.0088
17583TIP3    H274165   3.787   1.262   2.194  0.2687 -1.3564 -1.1086
17584TIP3   OH274166   0.755   4.603  11.679 -0.3256  0.2206  0.7028
17584TIP3    H174167   0.832   4.640  11.634 -0.2917 -0.7267 -0.0455
17584TIP3    H274168   0.696   4.678  11.690  0.0118  0.6418 -0.2194
17585TIP3   OH274169   3.692   4.087  13.219 -0.4792  0.1827 -0.0704
17585TIP3    H174170   3.694   4.026  13.293  0.2469  0.5549  0.2378
17585TIP3    H274171   3.754   4.156  13.244 -2.4073  1.8801  0.2980
17586TIP3   OH274172   4.923   4.258  12.280 -0.3312  0.5148 -0.5895
17586TIP3    H174173   4.891   4.320  12.345 -0.5941  2.1106 -2.1744
17586TIP3    H274174   4.987   4.204  12.328 -1.0674  1.1151  1.1465
17587TIP3   OH274175   4.611   5.532  14.023  0.0299 -0.7415 -0.6195
17587TIP3    H174176   4.602   5.626  14.036 -0.1871 -0.8057 -0.2926
17587TIP3    H274177   4.665   5.523  13.945  0.8132 -0.3342 -0.1394
17588TIP3   OH274178   6.309   3.285  16.900  0.2739  0.2594 -0.5518
17588TIP3    H174179   6.379   3.348  16.912  0.6010 -0.5121  2.6324
17588TIP3    H274180   6.333   3.235  16.822  2.3604  1.1415 -0.5129
17589TIP3   OH274181   1.365   1.301  12.990 -0.1572  0.5965  0.1098
17589TIP3    H174182   1.363   1.340  13.077 -0.2284  1.0800 -0.1010
17589TIP3    H274183   1.363   1.377  12.930  0.6939  0.3011 -0.3060
17590TIP3   OH274184   2.436   4.009   5.678 -0.6555  0.2186 -0.1686
17590TIP3    H174185   2.450   3.980   5.588  1.1861  1.0689 -0.1985
17590TIP3    H274186   2.429   4.104   5.672  1.1589  0.4456  0.7261
17591TIP3   OH274187   6.583   1.930  14.789  0.1682  0.2172 -0.5622
17591TIP3    H174188   6.585   2.026  14.787  1.2180  0.1947 -1.7631
17591TIP3    H274189   6.492   1.909  14.810  0.0718  1.4763  0.4006
17592TIP3   OH274190   2.806   1.815   0.296 -0.2865 -0.0347  0.1979
17592TIP3    H174191   2.763   1.869   0.362 -1.5003 -0.7473  0.0362
17592TIP3    H274192   2.857   1.751   0.346  0.2574  0.5587  0.4067
17593TIP3   OH274193   6.770   2.503   1.456  0.0058 -0.5402 -0.1422
17593TIP3    H174194   6.819   2.499   1.374  0.2986  0.1855 -0.0123
17593TIP3    H274195   6.835   2.527   1.521 -0.7944  2.2070 -0.2406
17594TIP3   OH274196   4.455   6.729   6.141 -0.0615  0.2405 -0.4151
17594TIP3    H174197   4.393   6.737   6.213  0.4782 -1.3891  0.2965
17594TIP3    H274198   4.536   6.767   6.175  0.3814 -1.1176  0.1425
17595TIP3   OH274199   4.268   0.580  15.007  0.0929 -0.1955 -0.0139
17595TIP3    H174200   4.313   0.579  15.091 -0.4422  1.6177  0.3336
17595TIP3    H274201   4.175   0.576  15.029 -0.1267  1.7042 -0.3837
17596TIP3   OH274202   1.915   0.323   4.310 -0.1453  0.1801 -0.9954
17596TIP3    H174203   2.008   0.317   4.285  1.1165 -1.8605  3.2584
17596TIP3    H274204   1.881   0.235   4.291 -0.5049  0.1682 -0.3032
17597TIP3   OH274205   5.137   4.963   6.264 -0.2356  0.2897 -0.1320
17597TIP3    H174206   5.076   5.005   6.324  2.6199  1.3223  2.3218
17597TIP3    H274207   5.166   5.033   6.206  1.8589  0.9881  1.6446
17598TIP3   OH274208   0.737   3.436   3.847  0.5149  0.1027 -0.5128
17598TIP3    H174209   0.733   3.344   3.820  1.0098 -0.9173  2.5730
17598TIP3    H274210   0.823   3.466   3.818  0.9374 -0.8497 -0.2662
17599TIP3   OH274211   0.654   4.514   3.210  0.0021  0.1874 -0.3050
17599TIP3    H174212   0.707   4.435   3.200 -0.4274 -0.1837  0.2519
17599TIP3    H274213   0.642   4.547   3.121  0.2172 -0.3558 -0.5382
17600TIP3   OH274214   2.660   6.648   6.016  0.2612 -0.0377  0.2024
17600TIP3    H174215   2.597   6.695   5.962  0.0761  0.2237  0.6373
17600TIP3    H274216   2.667   6.562   5.975  1.5441  0.7607 -1.3350
17601TIP3   OH274217   4.497   1.589  14.739 -0.2625  0.8503  0.5067
17601TIP3    H174218   4.547   1.507  14.744 -2.4321 -0.8024 -1.9243
17601TIP3    H274219   4.425   1.576  14.800 -0.0591  1.3957  0.8634
17602TIP3   OH274220   5.697   3.036  11.491  0.1859  0.3355  0.1433
17602TIP3    H174221   5.787   3.044  11.523  0.4861  1.0214 -0.8193
17602TIP3    H274222   5.677   3.122  11.454 -1.2475  0.5007  1.2491
17603TIP3   OH274223   6.335   0.209   0.453  0.5112 -0.2079 -0.5695
17603TIP3    H174224   6.366   0.232   0.540 -0.9714 -0.9592  0.1771
17603TIP3    H274225   6.402   0.149   0.419  0.6169 -0.6828  0.4419
17604TIP3   OH274226   4.470   3.419   0.741  0.1474 -0.4216 -0.0345
17604TIP3    H174227   4.560   3.450   0.753  0.4800 -1.4545  0.2505
17604TIP3    H274228   4.479   3.336   0.693 -0.6502 -0.5185 -0.0362
17605TIP3   OH274229   2.868   3.270   6.174  0.2792 -0.0355  0.1215
17605TIP3    H174230   2.835   3.195   6.224 -0.2181 -0.9990 -1.5916
17605TIP3    H274231   2.959   3.279   6.202  0.3345 -1.2434  0.3913
17606TIP3   OH274232   3.135   0.489   5.730  0.1212 -0.6398 -0.2884
17606TIP3    H174233   3.108   0.560   5.789 -0.0275  0.0926 -1.2097
17606TIP3    H274234   3.231   0.494   5.729  0.2138 -1.6079  1.0105
17607TIP3   OH274235   6.740   3.898  16.763 -0.0389  0.1082 -0.2637
17607TIP3    H174236   6.729   3.879  16.856  1.3991 -0.3771 -0.1665
17607TIP3    H274237   6.784   3.983  16.761 -1.6583  0.9824 -0.5723
17608TIP3   OH274238   4.248   6.506   5.211 -0.0998  0.1373  0.0841
17608TIP3    H174239   4.251   6.545   5.299  0.8828  1.7118 -0.5871
17608TIP3    H274240   4.331   6.533   5.171 -0.0735 -1.4151 -0.9902
17609TIP3   OH274241   5.824   4.420   0.256 -0.0886 -0.5055 -1.1879
17609TIP3    H174242   5.817   4.325   0.266 -0.2959 -0.4541 -0.8439
17609TIP3    H274243   5.907   4.442   0.299 -0.6447 -0.3726 -0.1709
17610TIP3   OH274244   3.462   2.452  11.955  0.1817 -0.7358 -0.2355
17610TIP3    H174245   3.495   2.463  11.866 -2.3404 -1.6733 -1.4051
17610TIP3    H274246   3.429   2.539  11.979 -2.8935 -1.2640 -1.9967
17611TIP3   OH274247   6.454   6.675   5.399 -0.1332 -0.0718  0.3874
17611TIP3    H174248   6.503   6.616   5.455 -2.3579 -1.6981  0.7528
17611TIP3    H274249   6.399   6.726   5.459 -0.6419  0.0071 -0.1271
17612TIP3   OH274250   6.051   2.204  13.239  0.5308  0.2111  0.0990
17612TIP3    H174251   6.010   2.155  13.168 -0.2396  0.7640  0.1465
17612TIP3    H274252   6.064   2.292  13.202  0.9182  0.2662  0.3609
17613TIP3   OH274253   3.870   4.946  15.525 -0.1340  0.1028  0.7084
17613TIP3    H174254   3.797   4.886  15.538  0.7753 -0.7008  2.4524
17613TIP3    H274255   3.937   4.916  15.587  1.8375  0.5620 -1.0771
17614TIP3   OH274256   0.751   3.318  16.610  0.1080 -0.3027  0.1397
17614TIP3    H174257   0.783   3.320  16.520  0.4413  0.4072  0.2689
17614TIP3    H274258   0.829   3.311  16.664  0.0522  1.0318  0.4373
17615TIP3   OH274259   2.815   0.243  16.848  0.4687  0.1518 -0.5265
17615TIP3    H174260   2.854   0.222  16.933  0.5238  0.5644 -0.4488
17615TIP3    H274261   2.820   0.161  16.799  2.8148  0.5158 -1.0494
17616TIP3   OH274262   4.948   2.792   4.286 -0.3805 -0.2275  0.1053
17616TIP3    H174263   5.025   2.740   4.264 -0.6663 -1.0426  0.9614
17616TIP3    H274264   4.970   2.836   4.368 -0.1720  0.9757 -0.5688
17617TIP3   OH274265   1.397   1.718  11.458  0.0643  0.1845  0.0550
17617TIP3    H174266   1.446   1.754  11.532 -0.1166  0.7127 -0.0815
17617TIP3    H274267   1.463   1.699  11.392  0.1728  0.1302  0.1775
17618TIP3   OH274268   5.615   1.172   0.396  0.4899 -0.7460 -0.3455
17618TIP3    H174269   5.553   1.099   0.392  1.4959 -1.6149 -0.6387
17618TIP3    H274270   5.701   1.131   0.384  1.3937  0.0539  2.5494
17619TIP3   OH274271   5.908   3.427   3.947  0.2129 -0.2164  0.7119
17619TIP3    H174272   5.996   3.406   3.917  0.4018 -0.4806  1.4487
17619TIP3    H274273   5.855   3.424   3.867  1.2475  2.2818 -0.1725
17620TIP3   OH274274   1.378   5.718   1.796  0.1584 -0.4039 -0.5218
17620TIP3    H174275   1.458   5.670   1.772 -0.5599 -2.0592  0.2515
17620TIP3    H274276   1.401   5.761   1.879 -0.1416 -2.0520  0.4682
17621TIP3   OH274277   3.889   1.768  12.044  0.2059 -0.5242 -0.5698
17621TIP3    H174278   3.879   1.781  11.950  0.1843  0.3408 -0.4536
17621TIP3    H274279   3.849   1.682  12.061 -0.3306 -0.4166 -1.2501
17622TIP3   OH274280   4.242   1.321  14.099 -0.2415  0.2964  0.5464
17622TIP3    H174281   4.323   1.360  14.132  0.1044 -1.6183  2.2058
17622TIP3    H274282   4.268   1.235  14.066 -1.5450 -0.2625  0.9022
17623TIP3   OH274283   3.930   5.393  14.414 -0.3338 -0.3792 -0.2082
17623TIP3    H174284   3.862   5.327  14.398 -0.5281 -0.8931  2.2994
17623TIP3    H274285   3.886   5.477  14.397 -1.3582 -0.7493  0.4663
17624TIP3   OH274286   6.770   3.929  14.413  0.4397 -0.5309  0.5302
17624TIP3    H174287   6.720   3.906  14.492 -0.5807  0.7476  0.2855
17624TIP3    H274288   6.844   3.869  14.414  1.0577  0.1325  3.0489
17625TIP3   OH274289   1.308   0.277   2.198 -0.1398 -0.6570  0.3535
17625TIP3    H174290   1.380   0.304   2.255 -0.6808  0.5030  0.5225
17625TIP3    H274291   1.241   0.245   2.259 -1.3514  2.0346  0.5999
17626TIP3   OH274292   5.298   5.620   4.996  0.0814  0.0202 -0.1843
17626TIP3    H174293   5.222   5.603   5.053  0.4487  0.0969  0.3340
17626TIP3    H274294   5.330   5.706   5.024  0.7953 -0.3278  0.1048
17627TIP3   OH274295   0.906   0.553   0.983 -0.4256  0.1215  0.2142
17627TIP3    H174296   0.949   0.487   0.928  0.0692  1.3809 -0.9538
17627TIP3    H274297   0.947   0.542   1.069 -0.2500 -0.9954 -0.0015
17628TIP3   OH274298   5.895   5.493   3.961  0.0339 -0.7532  0.0741
17628TIP3    H174299   5.956   5.472   3.891 -0.4880  2.3498 -1.4710
17628TIP3    H274300   5.809   5.480   3.923 -0.2861 -1.3669  0.9663
17629TIP3   OH274301   1.495   0.225   5.884  0.5359 -0.2786 -0.5958
17629TIP3    H174302   1.453   0.296   5.836  0.8760 -0.0739 -0.5958
17629TIP3    H274303   1.538   0.268   5.958  0.0165 -0.5900 -0.0985
17630TIP3   OH274304   1.981   5.110  16.610 -0.0102 -0.1857  0.0819
17630TIP3    H174305   1.904   5.136  16.559 -0.6051  0.4147  1.2387
17630TIP3    H274306   2.055   5.134  16.555 -0.5977  1.5663 -0.0242
17631TIP3   OH274307   2.853   2.238  11.590  0.5336 -0.5095  0.2920
17631TIP3    H174308   2.904   2.176  11.641  2.0464  1.3396  1.1607
17631TIP3    H274309   2.762   2.213  11.606  1.0716 -1.9483  1.3076
17632TIP3   OH274310   1.486   6.393  12.837 -0.3443  0.0278 -0.3148
17632TIP3    H174311   1.451   6.431  12.756 -0.5799 -1.1745 -0.7946
17632TIP3    H274312   1.409   6.374  12.890 -0.4259 -1.8159 -1.0152
17633TIP3   OH274313   0.991   4.193   5.789  0.0188 -0.1810 -0.7646
17633TIP3    H174314   0.959   4.155   5.707  0.5006  2.8695 -2.5513
17633TIP3    H274315   1.046   4.125   5.828 -0.6454 -1.9322 -2.7261
17634TIP3   OH274316   0.407   6.488  16.559  0.0154 -0.1359  0.4359
17634TIP3    H174317   0.391   6.443  16.641  2.6690 -2.3064 -0.0874
17634TIP3    H274318   0.494   6.526  16.569  0.3744 -0.3821 -1.3009
17635TIP3   OH274319   5.033   3.917  16.441 -0.0358 -0.0268 -0.0436
17635TIP3    H174320   5.072   4.004  16.439  1.0539 -0.4104  1.6499
17635TIP3    H274321   4.951   3.929  16.489  1.3709 -0.2794  2.6207
17636TIP3   OH274322   3.938   2.396   4.337 -0.4156  0.1256  0.3531
17636TIP3    H174323   4.023   2.365   4.307 -0.1263 -1.2313  2.3850
17636TIP3    H274324   3.956   2.440   4.420 -1.5847  0.7060  0.3164
17637TIP3   OH274325   2.281   0.259  10.601 -0.1049 -0.1802 -0.3207
17637TIP3    H174326   2.280   0.335  10.660 -1.5720  0.7661 -1.4698
17637TIP3    H274327   2.345   0.282  10.534 -0.1302 -0.2274 -0.3607
17638TIP3   OH274328   0.172   1.849  12.364  1.1401  0.4269 -0.4523
17638TIP3    H174329   0.160   1.754  12.368  1.2482  0.3990 -0.7218
17638TIP3    H274330   0.105   1.884  12.423 -1.7319  0.3963 -3.4073
17639TIP3   OH274331   0.733   0.937   6.494  0.5345 -0.5017 -0.4819
17639TIP3    H174332   0.789   0.881   6.440  1.7193 -0.8786  1.0528
17639TIP3    H274333   0.666   0.878   6.528 -0.6948 -0.1013 -2.1225
17640TIP3   OH274334   4.448   6.388   6.460  0.2537 -0.2753  0.8595
17640TIP3    H174335   4.369   6.433   6.490  0.1683  0.0284  0.1795
17640TIP3    H274336   4.443   6.390   6.365  0.5228 -1.2476  0.8077
17641TIP3   OH274337   1.357   0.515  13.768  0.5506 -0.0415  0.1192
17641TIP3    H174338   1.339   0.584  13.704  0.5658 -0.9860 -0.9324
17641TIP3    H274339   1.302   0.538  13.844  0.4958  1.0704 -0.2379
17642TIP3   OH274340   5.611   4.552   0.390  0.3229  0.1626 -0.7586
17642TIP3    H174341   5.690   4.513   0.353  0.0245 -1.1479 -0.0791
17642TIP3    H274342   5.569   4.480   0.437 -1.1185  0.9034 -0.8533
17643TIP3   OH274343   4.253   1.655  16.543  0.4576  0.1346 -0.5462
17643TIP3    H174344   4.335   1.698  16.520 -0.2228  1.7385 -0.1002
17643TIP3    H274345   4.218   1.706  16.616 -1.3874  0.0633 -1.3164
17644TIP3   OH274346   5.300   5.694   1.444  0.4885  0.3837 -0.1416
17644TIP3    H174347   5.228   5.642   1.479 -0.4623  0.9917 -1.1573
17644TIP3    H274348   5.350   5.721   1.521 -0.1117 -0.4054  0.5384
17645TIP3   OH274349   3.636   6.766   1.133 -0.6179 -0.1208 -0.1439
17645TIP3    H174350   3.717   6.720   1.155  0.3966  1.5898 -0.1144
17645TIP3    H274351   3.567   6.701   1.146  0.5491 -1.0656  1.7886
17646TIP3   OH274352   0.775   3.922  14.065 -0.2497 -0.0005 -0.2767
17646TIP3    H174353   0.813   3.978  14.132 -0.6133 -1.0341  0.8199
17646TIP3    H274354   0.713   3.978  14.019  0.0343  0.7306  0.2163
17647TIP3   OH274355   4.076   5.732  12.504 -0.1240  0.4331  0.4369
17647TIP3    H174356   4.124   5.661  12.461 -1.6221  0.8912 -2.2449
17647TIP3    H274357   4.034   5.779  12.432 -1.3830  2.3998  2.3414
17648TIP3   OH274358   3.979   0.402  16.112 -0.1717 -0.0592  0.3419
17648TIP3    H174359   4.056   0.424  16.165 -0.0386  0.7356 -0.1649
17648TIP3    H274360   3.954   0.485  16.072  0.1385 -0.7670 -1.3879
17649TIP3   OH274361   2.701   4.554   3.000  0.2503  0.1341  0.1893
17649TIP3    H174362   2.663   4.627   3.048  0.7089  0.1532  0.5292
17649TIP3    H274363   2.661   4.476   3.038 -0.9371  0.2409 -0.7968
17650TIP3   OH274364   5.661   3.498  17.107  0.2720 -0.4772 -0.2481
17650TIP3    H174365   5.711   3.416  17.106  0.3944 -0.4023 -0.8005
17650TIP3    H274366   5.726   3.566  17.090  0.5054 -0.0442  2.0459
17651TIP3   OH274367   1.209   4.531  16.287 -0.7177  0.6896  0.2835
17651TIP3    H174368   1.163   4.615  16.281  0.4692  1.4550  1.3061
17651TIP3    H274369   1.192   4.502  16.377 -1.3056 -0.2931 -0.1353
17652TIP3   OH274370   6.393   1.811   5.066  0.6393 -0.1385 -0.4393
17652TIP3    H174371   6.323   1.759   5.104 -1.4308  0.2202 -3.3889
17652TIP3    H274372   6.450   1.747   5.023  1.8964 -0.3862  1.5024
17653TIP3   OH274373   4.693   3.216  14.914  0.1422 -0.0651 -0.4728
17653TIP3    H174374   4.664   3.231  14.824  0.3549 -2.6043 -1.0368
17653TIP3    H274375   4.787   3.229  14.911  0.2969 -1.1437 -0.9059
17654TIP3   OH274376   0.720   2.014  11.556 -0.7796 -0.1778 -0.3836
17654TIP3    H174377   0.660   2.078  11.518  0.9499  0.8092 -1.6216
17654TIP3    H274378   0.799   2.021  11.502  1.2716  0.1572  2.4274
17655TIP3   OH274379   4.277   2.083  13.580  0.3015  0.0811 -0.2445
17655TIP3    H174380   4.325   2.010  13.541  0.0155  0.1617 -0.7517
17655TIP3    H274381   4.340   2.156  13.580  0.2772  0.1063 -0.6412
17656TIP3   OH274382   6.020   5.982   2.992 -0.4563  0.2387 -0.0054
17656TIP3    H174383   6.022   5.901   2.942  0.0460 -0.0311  0.4434
17656TIP3    H274384   6.066   6.046   2.938 -0.6066  0.1539 -0.2348
17657TIP3   OH274385   2.085   4.099  11.206  0.5789 -0.4179  0.1197
17657TIP3    H174386   2.000   4.056  11.206  0.6260 -0.6635 -2.8154
17657TIP3    H274387   2.145   4.034  11.241 -0.1880 -0.7029  0.9571
17658TIP3   OH274388   4.520   4.129   3.320  0.2440  0.2296 -0.4332
17658TIP3    H174389   4.433   4.100   3.292  1.2671 -2.1031 -1.4632
17658TIP3    H274390   4.563   4.049   3.352  1.2019  1.7457  2.4718
17659TIP3   OH274391   0.772   0.835  11.656  0.5830  0.3476 -0.1253
17659TIP3    H174392   0.848   0.887  11.631  0.4735  0.2863 -0.5852
17659TIP3    H274393   0.806   0.772  11.720  1.0035  0.0527 -0.6285
17660TIP3   OH274394   4.874   3.797   0.339  0.0367 -0.7548  0.0497
17660TIP3    H174395   4.887   3.891   0.351 -0.2105 -0.5558 -1.1206
17660TIP3    H274396   4.815   3.771   0.410 -1.4494  0.3568 -0.7279
17661TIP3   OH274397   3.252   4.755   1.834  0.0320 -0.0462 -0.1689
17661TIP3    H174398   3.180   4.752   1.896 -0.8936  0.0139 -1.2109
17661TIP3    H274399   3.244   4.673   1.785 -0.2993  0.6532 -1.3289
17662TIP3   OH274400   3.278   2.871  12.105 -0.6274 -0.3917  0.1885
17662TIP3    H174401   3.307   2.961  12.087  1.6352 -0.7288  1.7304
17662TIP3    H274402   3.232   2.877  12.188 -0.9689 -0.5705  0.0104
17663TIP3   OH274403   4.921   5.523  11.787  0.0685 -0.0096  0.5799
17663TIP3    H174404   4.972   5.586  11.839 -0.7774  2.0691 -0.9729
17663TIP3    H274405   4.833   5.528  11.824  0.3266 -1.5268  1.4689
17664TIP3   OH274406   1.131   2.474  11.052 -0.4948 -0.1659  0.1284
17664TIP3    H174407   1.145   2.486  10.958  1.1411 -0.8244  0.2465
17664TIP3    H274408   1.057   2.414  11.058  0.4803 -1.5329 -0.8247
17665TIP3   OH274409   3.879   5.656  12.936 -0.2916 -0.4791  0.3441
17665TIP3    H174410   3.935   5.717  12.887 -1.3366  1.3625  1.3213
17665TIP3    H274411   3.927   5.640  13.017 -0.4924 -0.0676  0.5497
17666TIP3   OH274412   1.656   4.270  15.239 -0.2548 -0.0246 -0.0534
17666TIP3    H174413   1.741   4.314  15.245  1.0769 -2.4846  0.5771
17666TIP3    H274414   1.628   4.261  15.330 -1.3519  0.9818 -0.2718
17667TIP3   OH274415   5.240   0.263   3.998 -0.2416  0.1030 -0.2486
17667TIP3    H174416   5.305   0.194   4.010  0.1032  0.6101  1.0448
17667TIP3    H274417   5.259   0.300   3.912 -0.9781 -1.9327 -1.3411
17668TIP3   OH274418   3.897   1.972   6.122  0.5884 -0.8975 -0.0406
17668TIP3    H174419   3.888   1.993   6.215  1.1884 -3.7820  0.7671
17668TIP3    H274420   3.807   1.964   6.091  0.3811  0.1188  0.2502
17669TIP3   OH274421   5.818   1.491   5.681 -0.4739  0.4001  0.8230
17669TIP3    H174422   5.824   1.507   5.775 -0.3087  1.8436  0.5817
17669TIP3    H274423   5.777   1.404   5.675  2.9297 -1.5063  2.2699
17670TIP3   OH274424   1.716   3.722   4.082  0.3635  0.1724 -0.7537
17670TIP3    H174425   1.629   3.693   4.055  0.1788  1.7165 -1.9425
17670TIP3    H274426   1.773   3.699   4.009  0.7661  0.1155 -0.4269
17671TIP3   OH274427   3.980   4.112   1.658  0.0268  0.5534  0.0474
17671TIP3    H174428   4.033   4.191   1.671 -2.7070  2.8802 -1.6846
17671TIP3    H274429   3.927   4.131   1.580 -0.7255 -3.0897 -0.5363
17672TIP3   OH274430   0.103   3.726  14.933 -0.1674  0.0965 -0.3961
17672TIP3    H174431   0.127   3.634  14.942 -1.3194 -0.1531  0.4427
17672TIP3    H274432   0.173   3.774  14.977 -0.3235 -0.4843  0.5132
17673TIP3   OH274433   3.403   5.024   3.150 -0.3139 -0.3452  0.1576
17673TIP3    H174434   3.409   5.052   3.059 -0.7911 -1.1849 -0.1469
17673TIP3    H274435   3.392   4.929   3.145  0.8943 -0.5611  1.1319
17674TIP3   OH274436   4.545   3.940  16.703  0.0341  0.1470 -0.5516
17674TIP3    H174437   4.541   3.980  16.616  3.1562  2.3174  0.1170
17674TIP3    H274438   4.555   3.847  16.686 -2.5775  0.0980 -2.3471
17675TIP3   OH274439   1.872   1.524   2.685  0.0740 -0.4013  0.6844
17675TIP3    H174440   1.843   1.461   2.620 -0.7608  0.1226  0.5365
17675TIP3    H274441   1.871   1.608   2.639 -1.9426  0.2163  1.7303
17676TIP3   OH274442   1.050   0.364   0.441 -0.5275  0.0117  0.0018
17676TIP3    H174443   1.133   0.320   0.462 -0.7530 -0.5591 -0.2792
17676TIP3    H274444   0.983   0.306   0.478 -0.7795  0.8456  0.8955
17677TIP3   OH274445   3.736   2.650  15.720  0.5523 -0.1640  0.1601
17677TIP3    H174446   3.722   2.630  15.628 -1.2394  1.0816  0.1027
17677TIP3    H274447   3.657   2.617  15.763  0.2794  1.3420  0.8791
17678TIP3   OH274448   4.958   2.302   3.541  0.2321 -0.3902 -0.0367
17678TIP3    H174449   4.892   2.301   3.611  1.0220  0.3314  0.7313
17678TIP3    H274450   4.910   2.329   3.463 -0.5748 -0.8067  0.2994
17679TIP3   OH274451   3.527   0.548   1.919  0.7915  0.2184  0.4627
17679TIP3    H174452   3.523   0.454   1.935  2.1846  0.4669  2.5708
17679TIP3    H274453   3.463   0.563   1.849 -0.2869 -2.1096  0.8623
17680TIP3   OH274454   4.623   5.266   2.692  0.1676  0.1773  0.2075
17680TIP3    H174455   4.632   5.330   2.762  1.4167  0.7586 -0.4514
17680TIP3    H274456   4.688   5.199   2.711 -0.8406 -0.6935  0.6580
17681TIP3   OH274457   0.006   1.731  17.007  0.3197 -0.1362  0.0719
17681TIP3    H174458   0.013   1.678  16.928 -2.2124 -0.3561 -0.0682
17681TIP3    H274459  -0.079   1.709  17.044  0.1379  2.1970  1.2181
17682TIP3   OH274460   1.790   1.287   2.811  0.7158 -0.7169  0.3375
17682TIP3    H174461   1.709   1.335   2.794  0.7115 -1.1789 -1.0782
17682TIP3    H274462   1.859   1.353   2.801  0.5744 -0.5234  0.6264
17683TIP3   OH274463   1.653   0.411   2.250 -0.3506  0.2836  0.5687
17683TIP3    H174464   1.713   0.483   2.236 -0.2961  0.1650  0.1802
17683TIP3    H274465   1.651   0.399   2.345  0.6286 -0.0402  0.5600
17684TIP3   OH274466   1.856   3.737  12.110  0.2655  0.5747 -0.2951
17684TIP3    H174467   1.949   3.737  12.131  0.3834  0.4889 -0.8006
17684TIP3    H274468   1.813   3.759  12.192  0.6222 -1.1948  0.4132
17685TIP3   OH274469   4.279   6.292  12.834 -0.2089 -0.0861  0.5619
17685TIP3    H174470   4.321   6.307  12.920  0.6032 -0.1360  0.1866
17685TIP3    H274471   4.186   6.306  12.850 -0.4633 -2.8374  2.0940
17686TIP3   OH274472   1.495   4.783   3.889  0.0660 -0.5909  1.0523
17686TIP3    H174473   1.434   4.777   3.816 -0.8116 -0.0430  1.7224
17686TIP3    H274474   1.476   4.868   3.929  1.2609 -0.4168  1.2840
17687TIP3   OH274475   1.013   5.548   1.662 -0.4794 -0.1838 -0.5138
17687TIP3    H174476   0.985   5.628   1.707 -0.9663 -0.5957 -0.0647
17687TIP3    H274477   0.956   5.480   1.698 -1.2480 -0.4453 -2.1306
17688TIP3   OH274478   2.208   5.216  13.088  0.1876  0.1899 -0.5884
17688TIP3    H174479   2.209   5.223  13.183  2.2377 -0.0272 -0.5529
17688TIP3    H274480   2.200   5.306  13.057 -1.2674  0.1997 -0.2390
17689TIP3   OH274481   6.771   5.569   5.845  0.2310 -0.3933  0.0070
17689TIP3    H174482   6.761   5.488   5.795 -0.9891  0.4789 -1.2527
17689TIP3    H274483   6.828   5.545   5.919  1.0736 -2.0304 -1.1075
17690TIP3   OH274484   3.534   3.326   4.081  0.0367  0.7009  0.4225
17690TIP3    H174485   3.479   3.320   4.003 -1.4815  3.1302  1.2092
17690TIP3    H274486   3.624   3.320   4.047 -0.5703  1.8906 -1.5513
17691TIP3   OH274487   0.399   5.647  11.970  0.4825  0.4136 -0.3547
17691TIP3    H174488   0.382   5.711  11.900  1.0645  0.8319 -0.1237
17691TIP3    H274489   0.457   5.694  12.030  0.8468 -0.3121 -0.1398
17692TIP3   OH274490   0.994   6.315   3.281  0.2438 -0.4315  0.0896
17692TIP3    H174491   0.904   6.312   3.247  0.0052  1.8070  0.3873
17692TIP3    H274492   0.989   6.270   3.365 -0.8299  0.4617  0.5337
17693TIP3   OH274493   6.033   2.552  16.177 -0.3739 -0.1180 -0.1214
17693TIP3    H174494   6.061   2.503  16.254  0.0521  0.8392  0.3636
17693TIP3    H274495   5.937   2.549  16.179 -0.4741  1.7562  1.7566
17694TIP3   OH274496   1.796   1.558  14.218  0.3173  0.0421 -0.5644
17694TIP3    H174497   1.864   1.622  14.236  1.6294 -0.8666 -2.0335
17694TIP3    H274498   1.758   1.585  14.134  0.7451 -0.9329 -1.1000
17695TIP3   OH274499   2.260   2.333   2.544  0.1538  0.2274  0.5591
17695TIP3    H174500   2.281   2.275   2.618  0.5218 -0.8109 -0.3349
17695TIP3    H274501   2.296   2.289   2.468 -0.4847  1.1361 -0.2986
17696TIP3   OH274502   1.351   4.832   4.890 -0.1414 -0.5549 -0.0192
17696TIP3    H174503   1.410   4.797   4.957 -0.2587  0.3341  0.5567
17696TIP3    H274504   1.389   4.802   4.807  0.3249 -1.1851  0.4122
17697TIP3   OH274505   3.004   6.085  16.109  0.2580  0.0846  0.3196
17697TIP3    H174506   3.001   6.155  16.044  2.2456  0.5988  0.6857
17697TIP3    H274507   2.936   6.108  16.172  0.6656  1.5756  0.2756
17698TIP3   OH274508   4.103   4.612   1.207  0.2085  0.2381 -0.5716
17698TIP3    H174509   4.189   4.572   1.217  0.0714 -0.1049 -0.7296
17698TIP3    H274510   4.121   4.705   1.195  0.5749  0.1288 -0.8948
17699TIP3   OH274511   6.278   2.388   5.480  0.1987 -0.3277  0.3642
17699TIP3    H174512   6.224   2.453   5.435 -1.1757 -0.4717  1.7263
17699TIP3    H274513   6.231   2.305   5.465  0.4018 -0.5602  1.0073
17700TIP3   OH274514   0.397   1.398  14.418  0.0254 -0.7262  0.1604
17700TIP3    H174515   0.470   1.338  14.405  0.1671 -0.4091 -0.5432
17700TIP3    H274516   0.383   1.398  14.513 -0.3090 -2.2539  0.1361
17701TIP3   OH274517   0.601   3.637  16.959  0.0383 -0.1101 -0.1431
17701TIP3    H174518   0.650   3.638  17.041  0.2970  0.8056 -0.2988
17701TIP3    H274519   0.641   3.706  16.906 -0.5826 -0.2177 -0.7694
17702TIP3   OH274520   1.534   1.922   1.884  0.3126 -0.2501  0.1747
17702TIP3    H174521   1.621   1.889   1.860 -0.2287 -1.5407 -0.0434
17702TIP3    H274522   1.543   2.017   1.880  1.6981 -0.3680  0.0851
17703TIP3   OH274523   1.475   2.231  16.471  0.0748  0.3600  0.0843
17703TIP3    H174524   1.423   2.300  16.430 -2.0564 -0.6287  0.9964
17703TIP3    H274525   1.428   2.150  16.451  0.6408 -0.4712  1.8892
17704TIP3   OH274526   3.437   2.819   6.769  0.5049  0.3723 -0.0651
17704TIP3    H174527   3.402   2.741   6.812  1.7147 -0.9918 -1.4380
17704TIP3    H274528   3.525   2.794   6.740  0.9887  2.2978 -0.4191
17705TIP3   OH274529   4.854   1.513   5.976  0.6306 -0.9916  0.5084
17705TIP3    H174530   4.778   1.459   5.953  0.2039 -0.0232 -0.4252
17705TIP3    H274531   4.899   1.463   6.043 -0.5870 -1.8069  0.7515
17706TIP3   OH274532   2.415   1.377  11.812 -0.2047  0.3416 -0.0859
17706TIP3    H174533   2.497   1.348  11.771  0.9644  1.4300  1.3320
17706TIP3    H274534   2.439   1.391  11.904 -2.0539  0.5191  0.4060
17707TIP3   OH274535   1.468   2.362  14.401 -0.1108  0.1710  0.3053
17707TIP3    H174536   1.420   2.396  14.477 -0.0043 -0.4028  0.6358
17707TIP3    H274537   1.441   2.271  14.395  1.3383 -0.3184  0.8366
17708TIP3   OH274538   1.091   2.994  12.962  0.0155 -0.1604 -0.1587
17708TIP3    H174539   0.998   2.987  12.943  0.2673 -0.2084 -1.4629
17708TIP3    H274540   1.132   3.011  12.877  0.8334  3.7862  0.8150
17709TIP3   OH274541   3.555   4.186   1.668 -0.2236 -0.2215 -0.1837
17709TIP3    H174542   3.611   4.206   1.743 -1.9812 -1.4209  1.5657
17709TIP3    H274543   3.572   4.093   1.648 -0.7107 -0.2722 -0.3997
17710TIP3   OH274544   0.341   6.718   5.264  0.0772 -0.1524  0.0083
17710TIP3    H174545   0.297   6.756   5.339  1.6212 -0.0144  0.8858
17710TIP3    H274546   0.430   6.701   5.294  0.9438  0.5387 -1.9742
17711TIP3   OH274547   3.509   2.164   1.069  0.0629  0.1532 -0.3424
17711TIP3    H174548   3.448   2.126   1.132  0.5670 -0.4942 -0.2231
17711TIP3    H274549   3.529   2.092   1.008 -1.3579  1.0937 -2.0055
17712TIP3   OH274550   6.057   0.043  17.034 -0.1358 -0.0905  0.3691
17712TIP3    H174551   6.090  -0.038  17.072  0.9227  0.2925  0.2970
17712TIP3    H274552   6.022   0.017  16.949 -0.1809 -0.5295  0.5181
17713TIP3   OH274553   5.076   4.682   0.920  0.4023 -0.7409  0.2236
17713TIP3    H174554   5.164   4.719   0.914  0.3910 -0.4293  1.6785
17713TIP3    H274555   5.027   4.728   0.853  0.6754  1.1305  1.2293
17714TIP3   OH274556   0.528   5.025   1.334  0.0543  0.0176  0.0899
17714TIP3    H174557   0.589   5.087   1.296 -1.6077  2.0276  0.5236
17714TIP3    H274558   0.460   5.014   1.267 -0.1525 -0.5898  0.3913
17715TIP3   OH274559   6.501   3.277   0.311 -0.0251 -0.1448  0.0463
17715TIP3    H174560   6.506   3.186   0.341 -1.9756 -0.5306 -0.6549
17715TIP3    H274561   6.506   3.329   0.390  0.6223 -0.8757  0.5036
17716TIP3   OH274562   5.278   4.624  14.227  0.3990  0.1361 -0.1147
17716TIP3    H174563   5.350   4.576  14.267  0.7705  0.7294 -0.0562
17716TIP3    H274564   5.271   4.705  14.278 -1.0774 -0.4116  0.6310
17717TIP3   OH274565   5.461   2.009   5.687  0.6268  0.0688  0.1561
17717TIP3    H174566   5.539   2.058   5.661  0.5634 -1.4423 -3.4377
17717TIP3    H274567   5.494   1.927   5.722  0.7189 -0.4106 -1.0061
17718TIP3   OH274568   6.052   1.063   4.361 -0.0251 -0.0373  0.1958
17718TIP3    H174569   5.994   1.124   4.317 -0.6612 -0.1821  0.8173
17718TIP3    H274570   6.096   1.116   4.428  1.5576  0.3797 -1.0853
17719TIP3   OH274571   0.440   1.992  13.664  0.2809 -0.0492 -0.0932
17719TIP3    H174572   0.375   2.056  13.695 -1.0579 -1.5918  0.4522
17719TIP3    H274573   0.404   1.960  13.581  0.5376 -0.6146  0.0087
17720TIP3   OH274574   3.249   2.907   1.595  0.0198  0.0398 -0.2837
17720TIP3    H174575   3.167   2.939   1.633  0.1322 -0.6523  0.5559
17720TIP3    H274576   3.268   2.827   1.643  1.4087  0.4033 -0.1893
17721TIP3   OH274577   6.218   3.164   5.295 -0.2523 -0.2180  0.2401
17721TIP3    H174578   6.277   3.239   5.292  0.1436 -0.5517 -2.0456
17721TIP3    H274579   6.144   3.193   5.348 -0.8376  2.3359 -1.8286
17722TIP3   OH274580   4.797   5.555   4.235  0.1188  0.0296 -0.4130
17722TIP3    H174581   4.749   5.503   4.171  0.9761 -1.6938  0.2534
17722TIP3    H274582   4.869   5.497   4.263  1.3665  1.7456  0.0937
17723TIP3   OH274583   0.604   4.023  14.687 -0.1385 -0.2688  0.1287
17723TIP3    H174584   0.536   4.089  14.676 -0.0906 -0.2621 -0.1415
17723TIP3    H274585   0.652   4.050  14.765 -0.2937 -0.1398  0.1790
17724TIP3   OH274586   2.356   1.229   6.298 -0.5704 -0.3075  0.4240
17724TIP3    H174587   2.333   1.183   6.379  0.0268  1.4071  1.6385
17724TIP3    H274588   2.273   1.238   6.251 -1.5769  1.3013  2.3158
17725TIP3   OH274589   3.118   0.216   2.236  0.2966 -1.1610  0.0478
17725TIP3    H174590   3.194   0.197   2.291  0.0837 -0.4024  0.6145
17725TIP3    H274591   3.155   0.251   2.155  0.5328  1.1073  1.0643
17726TIP3   OH274592   0.700   0.206   5.626 -0.1538 -0.7666 -0.2259
17726TIP3    H174593   0.674   0.275   5.686 -0.0162 -0.2294 -0.7729
17726TIP3    H274594   0.621   0.185   5.577  0.0490 -0.2707 -0.7704
17727TIP3   OH274595   5.680   0.476   1.555  0.3073 -0.0886 -0.4305
17727TIP3    H174596   5.716   0.453   1.469  3.8011 -1.1229  1.1226
17727TIP3    H274597   5.748   0.529   1.596 -0.8580 -0.3804  2.0511
17728TIP3   OH274598   6.591   0.172   4.061  0.4942 -0.0354  0.2414
17728TIP3    H174599   6.581   0.222   3.980  1.1178 -0.4800 -0.1219
17728TIP3    H274600   6.684   0.178   4.081  0.2969  0.2903  1.0753
17729TIP3   OH274601   5.720   4.437   4.683 -0.3625 -0.0059  0.2713
17729TIP3    H174602   5.733   4.342   4.688 -1.9989 -0.2074  1.7517
17729TIP3    H274603   5.627   4.449   4.699 -0.4677  1.7945 -1.2954
17730TIP3   OH274604   2.285   4.435  12.856  0.6249  0.1643 -0.2355
17730TIP3    H174605   2.271   4.481  12.939 -0.6883 -0.3158 -0.1663
17730TIP3    H274606   2.345   4.363  12.878  0.5138  0.2118  0.2345
17731TIP3   OH274607   6.639   0.977  14.926  0.1975 -0.2095 -0.3281
17731TIP3    H174608   6.695   1.032  14.980  0.5530 -1.1786  0.3275
17731TIP3    H274609   6.553   1.019  14.928  0.4503  0.2875  0.2003
17732TIP3   OH274610   3.056   0.704  13.238  0.3271  0.2287  0.3247
17732TIP3    H174611   3.018   0.640  13.299 -1.5264  1.3113  0.3700
17732TIP3    H274612   3.150   0.698  13.253 -0.0295  0.0218  2.8856
17733TIP3   OH274613   5.830   6.468  12.667 -0.2765  0.2033 -0.0641
17733TIP3    H174614   5.856   6.526  12.739  0.0296 -1.2269  1.0422
17733TIP3    H274615   5.775   6.401  12.709 -0.4806 -0.4058 -1.2490
17734TIP3   OH274616   5.592   5.007   2.090 -0.1103  0.5761 -0.6659
17734TIP3    H174617   5.585   5.017   2.185 -2.6197 -2.1362 -0.4501
17734TIP3    H274618   5.678   5.043   2.069  1.6149 -0.9269  2.9757
17735TIP3   OH274619   4.033   2.245  13.648 -0.2601  0.1608 -0.2426
17735TIP3    H174620   4.072   2.308  13.709 -2.1261  0.3730  0.7800
17735TIP3    H274621   4.108   2.201  13.610  1.0578  1.8282  0.2636
17736TIP3   OH274622   3.709   2.222  16.929  0.4383 -0.3102 -0.1643
17736TIP3    H174623   3.783   2.257  16.880 -0.2051 -0.8580 -1.5555
17736TIP3    H274624   3.723   2.128  16.931  0.1642 -0.3457  0.2250
17737TIP3   OH274625   0.404   4.031  14.931  0.3216  0.3259  0.1017
17737TIP3    H174626   0.469   4.098  14.950  1.1850 -0.1578 -1.0597
17737TIP3    H274627   0.331   4.078  14.892  0.8372  0.6320 -0.5169
17738TIP3   OH274628   5.891   5.128   1.315 -0.8100 -0.1033 -0.3388
17738TIP3    H174629   5.869   5.221   1.310  2.6805  0.9497  0.7475
17738TIP3    H274630   5.920   5.106   1.226 -2.6567 -0.5047 -0.8678
17739TIP3   OH274631   1.410   0.069  17.045  0.6653  0.2466 -0.1320
17739TIP3    H174632   1.447   0.143  17.094 -0.0813 -0.6279  1.8212
17739TIP3    H274633   1.359   0.111  16.976  0.1104  1.5953  1.0426
17740TIP3   OH274634   6.591   0.125   0.833 -0.0008 -0.0938 -0.3754
17740TIP3    H174635   6.609   0.081   0.916 -0.5509 -0.9365 -0.6986
17740TIP3    H274636   6.677   0.134   0.792  0.2453  0.1168  0.1739
17741TIP3   OH274637   3.048   3.451   2.273  0.1949  0.1690  0.3984
17741TIP3    H174638   2.988   3.512   2.315  1.6760  1.1504  1.1675
17741TIP3    H274639   3.061   3.381   2.338  0.8197  0.5905  0.7384
17742TIP3   OH274640   2.418   5.521  14.836 -0.1887  0.5314 -0.4471
17742TIP3    H174641   2.432   5.540  14.744  3.3815  0.0938 -0.1552
17742TIP3    H274642   2.459   5.435  14.849 -3.1054 -0.7606  1.0580
17743TIP3   OH274643   0.530   5.882  11.246  0.3546  0.7250  0.0474
17743TIP3    H174644   0.616   5.909  11.278  0.9698 -0.5185 -0.4961
17743TIP3    H274645   0.549   5.817  11.178 -1.0393 -0.9392  1.1838
17744TIP3   OH274646   5.301   5.570  15.298  0.4418  0.0329  0.4886
17744TIP3    H174647   5.319   5.664  15.307  0.8649 -0.0389  0.4170
17744TIP3    H274648   5.372   5.538  15.242 -0.3249 -0.1206 -0.4299
17745TIP3   OH274649   6.649   0.750   0.645  0.1055 -0.1395 -0.0300
17745TIP3    H174650   6.562   0.725   0.675  0.5492  0.0394  1.4687
17745TIP3    H274651   6.709   0.694   0.694  0.8807  0.5258 -0.1921
17746TIP3   OH274652   4.214   2.447  12.650  0.3839  0.6922 -0.4604
17746TIP3    H174653   4.274   2.479  12.717  0.2029  1.0805 -0.4802
17746TIP3    H274654   4.260   2.373  12.609  1.7032  2.1831 -1.8053
17747TIP3   OH274655   1.150   5.610  15.182  0.1111 -0.4971  0.1196
17747TIP3    H174656   1.226   5.606  15.240 -0.3081  1.8901  0.9409
17747TIP3    H274657   1.155   5.696  15.141 -0.9636 -1.1643 -1.5399
17748TIP3   OH274658   4.007   1.404  17.209  0.1169  0.3918 -0.3041
17748TIP3    H174659   4.076   1.337  17.208  1.6174  1.8576 -0.2755
17748TIP3    H274660   3.925   1.355  17.217  0.8961 -1.5892 -3.2301
17749TIP3   OH274661   3.237   3.122   4.908  0.9383 -0.0124  0.1375
17749TIP3    H174662   3.191   3.184   4.965  0.3778 -1.0638  0.8731
17749TIP3    H274663   3.251   3.170   4.827 -1.0478  0.5124  0.0475
17750TIP3   OH274664   2.205   2.165  16.554 -0.2982 -0.1704  0.4041
17750TIP3    H174665   2.115   2.166  16.521 -0.8493  1.5759  1.7911
17750TIP3    H274666   2.236   2.254  16.540  0.2175  0.0169  2.4280
17751TIP3   OH274667   6.654   1.819  16.294 -0.2297  0.1624  0.4069
17751TIP3    H174668   6.635   1.830  16.201  0.1320 -3.0834 -0.1676
17751TIP3    H274669   6.590   1.755  16.324 -0.2694  1.0720  2.4140
17752TIP3   OH274670   3.667   4.273   3.531  0.1892  0.1411  0.5856
17752TIP3    H174671   3.624   4.339   3.477 -0.2111 -0.6515 -0.1016
17752TIP3    H274672   3.613   4.265   3.609 -0.7753 -0.6548 -0.1496
17753TIP3   OH274673   1.989   3.619  13.215  0.3924  0.0809  0.3252
17753TIP3    H174674   2.002   3.622  13.310  0.5671  1.3298  0.2773
17753TIP3    H274675   2.062   3.566  13.183  0.0556 -0.7818  0.9140
17754TIP3   OH274676   6.774   1.339  14.807  0.4896 -0.3429  0.3621
17754TIP3    H174677   6.839   1.392  14.850  0.6473  0.0859 -0.3831
17754TIP3    H274678   6.752   1.270  14.870  2.4273 -1.1270  0.2425
17755TIP3   OH274679   4.839   6.089   0.170  0.0553 -0.2348  0.0010
17755TIP3    H174680   4.791   6.097   0.088  0.8438 -1.9481 -0.6932
17755TIP3    H274681   4.790   6.142   0.233 -1.3418  0.0057 -1.2423
17756TIP3   OH274682   4.046   1.545   2.794 -0.4633 -0.5844 -0.6953
17756TIP3    H174683   4.035   1.504   2.880  1.5351 -2.2677 -1.1727
17756TIP3    H274684   4.056   1.638   2.813  0.0190 -0.9343  0.8911
17757TIP3   OH274685   6.288   1.617  13.661 -0.1609  0.5004 -0.5649
17757TIP3    H174686   6.242   1.692  13.701 -0.3338 -0.4861  1.1920
17757TIP3    H274687   6.347   1.586  13.730 -0.9679 -1.7207 -0.7859
17758TIP3   OH274688   3.198   1.171   2.235 -0.0197  0.4251 -0.1956
17758TIP3    H174689   3.164   1.115   2.165 -2.3251  0.3842  0.8591
17758TIP3    H274690   3.264   1.117   2.278  0.1479 -0.2259 -1.2415
17759TIP3   OH274691   6.369   4.779  12.122  0.3277  0.2874  0.4418
17759TIP3    H174692   6.453   4.766  12.078 -0.4508  0.7510 -1.2517
17759TIP3    H274693   6.306   4.732  12.068 -0.4756 -0.3383  1.8765
17760TIP3   OH274694   5.505   6.612   2.410 -0.1754 -0.5804 -0.2298
17760TIP3    H174695   5.517   6.635   2.318  0.3458 -0.2936 -0.0949
17760TIP3    H274696   5.474   6.693   2.451  1.5343 -0.1331  0.2232
17761TIP3   OH274697   4.155   2.395   0.577  0.0169  0.2125 -0.2139
17761TIP3    H174698   4.149   2.394   0.673 -0.8013  0.0226 -0.2616
17761TIP3    H274699   4.075   2.352   0.547  1.0493 -1.3044 -0.9658
17762TIP3   OH274700   6.339   0.503   5.653 -0.0474  0.1895  0.3775
17762TIP3    H174701   6.370   0.484   5.565  0.0182  1.5358  0.0856
17762TIP3    H274702   6.399   0.457   5.711 -0.4874 -1.2619 -0.2775
17763TIP3   OH274703   5.225   0.532  13.077 -0.1950  0.8069  0.0818
17763TIP3    H174704   5.238   0.627  13.067 -1.1829  0.7447 -2.9871
17763TIP3    H274705   5.314   0.497  13.090  0.2770  2.0624  0.3825
17764TIP3   OH274706   3.577   3.796  13.551 -0.4370  0.4741  0.2751
17764TIP3    H174707   3.559   3.871  13.607  0.3420 -0.0541  1.2639
17764TIP3    H274708   3.661   3.816  13.511 -0.2820  0.1839  0.4540
17765TIP3   OH274709   2.476   4.419   3.296 -0.1078 -0.6646  0.0228
17765TIP3    H174710   2.475   4.404   3.391 -0.6497 -2.0672 -0.1721
17765TIP3    H274711   2.564   4.392   3.269 -0.0022 -0.4065  0.1114
17766TIP3   OH274712   5.958   0.642  13.698 -0.0237 -0.0506  0.1757
17766TIP3    H174713   6.000   0.562  13.666 -2.4901 -1.4495  0.0961
17766TIP3    H274714   5.975   0.707  13.630 -1.0012 -1.5938 -1.6806
17767TIP3   OH274715   6.192   2.403  11.960 -0.3734 -0.3947  0.5842
17767TIP3    H174716   6.212   2.495  11.942 -0.9587 -0.1913  0.9560
17767TIP3    H274717   6.242   2.383  12.040 -1.2026 -0.0387  1.2087
17768TIP3   OH274718   6.407   6.282  16.587 -0.3788 -0.4913 -0.8398
17768TIP3    H174719   6.332   6.310  16.535 -0.8321 -0.8571 -0.3939
17768TIP3    H274720   6.455   6.362  16.605 -1.1256 -0.1309 -0.4096
17769TIP3   OH274721   5.458   1.378   5.305  0.4405  0.0596 -0.0378
17769TIP3    H174722   5.463   1.437   5.380  0.6893 -0.2660  0.2041
17769TIP3    H274723   5.504   1.299   5.333  0.2903 -0.1721 -0.4332
17770TIP3   OH274724   4.709   1.726   1.966 -0.4027 -0.2281 -0.0969
17770TIP3    H174725   4.626   1.774   1.970 -0.2436  0.0191  0.2894
17770TIP3    H274726   4.768   1.776   2.022  0.1390 -0.1523 -0.7214
17771TIP3   OH274727   3.216   2.485   4.974 -0.1980 -0.3080 -0.0204
17771TIP3    H174728   3.165   2.479   5.056  2.5264 -0.4318  1.8035
17771TIP3    H274729   3.256   2.571   4.977  1.0086 -0.8332 -0.5340
17772TIP3   OH274730   4.001   4.396  16.144  0.1925  0.4570 -0.6017
17772TIP3    H174731   4.037   4.307  16.144  0.8795  0.7243 -1.0486
17772TIP3    H274732   4.037   4.436  16.224  0.6213  0.6099 -0.8638
17773TIP3   OH274733   5.173   4.305   4.136  0.6939 -0.9229  0.1020
17773TIP3    H174734   5.150   4.270   4.222  1.2327  0.5103  0.8607
17773TIP3    H274735   5.250   4.360   4.152 -0.8071  1.6062 -0.7570
17774TIP3   OH274736   3.772   6.770  17.317  0.3865 -0.3767  0.7843
17774TIP3    H174737   3.704   6.835  17.303 -0.9897 -1.6121  1.4422
17774TIP3    H274738   3.784   6.768  17.412  3.2983  1.6828  0.5867
17775TIP3   OH274739   0.736   3.114   0.792 -0.1239 -0.2786  0.4699
17775TIP3    H174740   0.762   3.041   0.848  2.9183  0.7463  0.5534
17775TIP3    H274741   0.754   3.084   0.703 -0.9265 -0.3730  0.3289
17776TIP3   OH274742   2.484   3.187   5.793  0.8166  0.3991  0.0079
17776TIP3    H174743   2.557   3.128   5.812 -0.3987 -1.5556 -1.0683
17776TIP3    H274744   2.434   3.188   5.875 -0.0278 -1.4613 -0.4222
17777TIP3   OH274745   1.064   0.691  17.175  0.2931 -0.6344  0.1046
17777TIP3    H174746   1.032   0.697  17.265  0.5470  0.2047  0.1482
17777TIP3    H274747   1.158   0.676  17.184  0.7737  1.9189  0.0240
17778TIP3   OH274748   6.669   0.833  11.783  0.4232  0.3882  0.0512
17778TIP3    H174749   6.723   0.882  11.844  0.6642  0.7231 -0.4253
17778TIP3    H274750   6.579   0.862  11.802  0.3941 -0.1837  0.8531
17779TIP3   OH274751   5.898   0.908  15.946  0.6927 -0.4075 -0.6676
17779TIP3    H174752   5.992   0.925  15.947  0.5422  0.4791 -0.3916
17779TIP3    H274753   5.890   0.814  15.962  1.5174 -0.4024 -0.1764
17780TIP3   OH274754   3.074   4.587  14.343 -0.0905 -0.1501  0.2279
17780TIP3    H174755   3.006   4.521  14.361  1.4472 -1.9735 -0.3930
17780TIP3    H274756   3.036   4.642  14.274 -1.4331 -0.3281  0.7953
17781TIP3   OH274757   1.142   4.037   1.376  0.2361  0.3611  0.0707
17781TIP3    H174758   1.052   4.010   1.359  0.0286 -0.0751  1.7148
17781TIP3    H274759   1.135   4.127   1.408  0.2930  0.0697  0.9341
17782TIP3   OH274760   3.369   4.833   2.759  0.2927 -0.1708  0.0874
17782TIP3    H174761   3.405   4.761   2.707 -1.2834 -1.5671  0.8269
17782TIP3    H274762   3.329   4.891   2.694  0.1416 -0.8317 -0.4342
17783TIP3   OH274763   3.591   0.461   2.811  0.1070 -0.3850  0.4680
17783TIP3    H174764   3.661   0.499   2.864  0.8038 -2.4835  1.1733
17783TIP3    H274765   3.579   0.522   2.739  2.3063  0.3146  0.6191
17784TIP3   OH274766   5.384   2.363  12.013  0.4336  0.2965 -0.6095
17784TIP3    H174767   5.309   2.360  11.954  0.2748  1.3367 -0.4761
17784TIP3    H274768   5.436   2.287  11.989 -0.6831 -0.4725 -0.6758
17785TIP3   OH274769   2.932   0.516   6.501  0.0049 -0.4432  0.2183
17785TIP3    H174770   2.935   0.518   6.597  1.6594  0.3697  0.1708
17785TIP3    H274771   3.006   0.568   6.473 -0.1756 -1.0545 -1.5291
17786TIP3   OH274772   6.756   0.847  13.596 -0.0620  0.9687 -0.0778
17786TIP3    H174773   6.814   0.799  13.537 -0.7859 -0.3286  0.2381
17786TIP3    H274774   6.746   0.791  13.672 -4.2365 -0.4609 -1.4172
17787TIP3   OH274775   4.605   1.093  15.932 -0.7664  0.1571 -0.1591
17787TIP3    H174776   4.653   1.031  15.878 -1.5742  0.1507 -0.8988
17787TIP3    H274777   4.668   1.123  15.998  0.4958  0.8062 -1.6148
17788TIP3   OH274778   3.053   3.531   6.034  0.6378  0.5789  0.3497
17788TIP3    H174779   2.986   3.535   5.966 -1.2962  1.2659  2.2000
17788TIP3    H274780   3.102   3.613   6.026  0.5164  0.5889 -0.2801
17789TIP3   OH274781   3.867   5.023  13.644 -0.2766 -0.1472 -0.2091
17789TIP3    H174782   3.898   5.094  13.701  1.9624 -0.7437 -0.5862
17789TIP3    H274783   3.893   5.049  13.556 -1.0231 -0.6279 -0.5813
17790TIP3   OH274784   6.613   3.594  15.092  0.5097 -0.1178 -0.1574
17790TIP3    H174785   6.578   3.508  15.115 -1.5720  0.4740 -0.8986
17790TIP3    H274786   6.699   3.597  15.134  1.2878 -3.1123 -1.3244
17791TIP3   OH274787   3.703   5.850   3.535 -0.4136  0.2129 -0.3992
17791TIP3    H174788   3.636   5.851   3.466 -0.3081 -1.0487 -0.5427
17791TIP3    H274789   3.662   5.805   3.608  0.0355  0.0789 -0.2272
17792TIP3   OH274790   3.021   2.104  11.796 -0.3608  0.6015  0.8885
17792TIP3    H174791   2.993   2.108  11.887 -0.0893 -0.1206  1.0090
17792TIP3    H274792   3.086   2.174  11.788  0.8486 -0.3911  1.7021
17793TIP3   OH274793   6.709   3.169   6.017 -0.4537  0.7517  0.7294
17793TIP3    H174794   6.659   3.105   5.968 -1.5247  0.7463  1.7670
17793TIP3    H274795   6.789   3.182   5.966 -1.1124  0.0965 -0.5176
17794TIP3   OH274796   2.467   3.476   5.036 -0.6330 -0.0909  0.3368
17794TIP3    H174797   2.529   3.490   5.108 -0.9574  0.5004  0.5143
17794TIP3    H274798   2.394   3.428   5.076 -0.4399 -0.4954  0.2057
17795TIP3   OH274799   0.082   4.151   2.773  0.3851 -0.1797 -0.5700
17795TIP3    H174800   0.113   4.149   2.682  0.3943  0.1775 -0.5761
17795TIP3    H274801   0.035   4.068   2.784 -0.0433 -0.0100 -1.0520
17796TIP3   OH274802   2.672   5.657   3.420  0.5310 -0.3262 -0.3727
17796TIP3    H174803   2.586   5.626   3.394  0.0688  0.2266  0.4472
17796TIP3    H274804   2.692   5.607   3.500 -0.0865  1.1920  0.7894
17797TIP3   OH274805   3.720   6.386   2.382  0.6689 -0.6029  0.1682
17797TIP3    H174806   3.691   6.431   2.303 -0.5728 -1.7355 -0.0623
17797TIP3    H274807   3.757   6.455   2.437  0.7197  0.3419 -1.0136
17798TIP3   OH274808   0.494   6.470   0.212  0.4351  0.6580  0.1960
17798TIP3    H174809   0.405   6.506   0.217  0.0236 -0.1084 -1.0987
17798TIP3    H274810   0.485   6.381   0.246 -0.2551 -0.9423 -3.7030
17799TIP3   OH274811   2.802   1.969   2.301 -0.5954  0.3415  0.0100
17799TIP3    H174812   2.798   2.064   2.313 -1.1661  0.1416  1.8593
17799TIP3    H274813   2.884   1.943   2.344  1.3189  0.2798 -3.3953
17800TIP3   OH274814   1.459   1.099   4.834 -0.3005 -0.8200  0.0618
17800TIP3    H174815   1.517   1.024   4.818  0.2955 -0.7226  1.6003
17800TIP3    H274816   1.496   1.141   4.912  0.3307  1.9933 -1.6036
17801TIP3   OH274817   2.352   2.791   5.928  0.0183 -0.2490 -0.0885
17801TIP3    H174818   2.309   2.860   5.978 -0.3967 -1.1222  0.7979
17801TIP3    H274819   2.318   2.710   5.965 -0.9581 -0.9662 -2.3582
17802TIP3   OH274820   0.029   5.471  14.979 -0.2707  0.3289 -0.1018
17802TIP3    H174821   0.056   5.452  15.068  0.1083  0.5823 -0.1592
17802TIP3    H274822  -0.057   5.429  14.970  0.2814 -0.8607 -0.0504
17803TIP3   OH274823   3.430   4.845   3.718 -0.0612  0.2407 -0.0732
17803TIP3    H174824   3.499   4.909   3.733  1.2693 -1.2503  0.3607
17803TIP3    H274825   3.373   4.853   3.795  1.0504 -0.2555  0.8312
17804TIP3   OH274826   3.019   6.376  12.330 -0.3942  0.1704 -0.0006
17804TIP3    H174827   2.989   6.392  12.240 -0.1469  4.2938  0.4695
17804TIP3    H274828   2.938   6.371  12.381 -0.5804  2.9407  0.1249
17805TIP3   OH274829   5.900   2.104  12.260 -0.2905 -0.3488  0.5658
17805TIP3    H174830   5.847   2.025  12.259  1.7813 -2.0320  3.9653
17805TIP3    H274831   5.970   2.087  12.197  0.2491 -1.4151  1.4063
17806TIP3   OH274832   1.662   2.348   3.474 -0.5116  0.4508  0.7588
17806TIP3    H174833   1.669   2.441   3.494  0.2403  0.2831  1.3038
17806TIP3    H274834   1.741   2.310   3.510  0.0257 -0.1452 -0.9770
17807TIP3   OH274835   3.276   6.014  13.052  0.4909  0.4243 -0.2180
17807TIP3    H174836   3.228   6.070  12.991 -1.5340 -0.1489  0.7680
17807TIP3    H274837   3.209   5.974  13.106  1.9448 -2.1114 -0.1402
17808TIP3   OH274838   5.776   2.789   4.116  0.4252  0.2973 -0.6125
17808TIP3    H174839   5.694   2.810   4.070 -0.4613  0.0417  0.7912
17808TIP3    H274840   5.840   2.850   4.079 -0.6444  1.2485 -0.9775
17809TIP3   OH274841   1.971   1.290  14.425  0.2346  0.1730 -0.5513
17809TIP3    H174842   1.910   1.352  14.466  1.8699  1.8893 -0.5988
17809TIP3    H274843   1.993   1.229  14.495  0.2390  0.9247  0.1242
17810TIP3   OH274844   0.058   6.035   2.351  0.3767 -0.5658  0.0438
17810TIP3    H174845   0.117   6.110   2.360  1.1674 -1.1446 -0.1905
17810TIP3    H274846  -0.013   6.067   2.295  0.6144  0.0650  0.1019
17811TIP3   OH274847   6.564   0.503   4.404  0.3831  0.1870 -0.0341
17811TIP3    H174848   6.470   0.522   4.407  0.4950  0.6914  0.4489
17811TIP3    H274849   6.605   0.581   4.441  0.8820 -0.9723  1.9423
17812TIP3   OH274850   5.084   3.119  15.188 -0.0526 -0.3191  0.3176
17812TIP3    H174851   5.015   3.076  15.139 -1.9757  0.4058  2.2388
17812TIP3    H274852   5.165   3.093  15.143 -1.5739 -0.0959 -2.8895
17813TIP3   OH274853   6.499   1.428  13.747 -0.1734 -0.2870 -0.3815
17813TIP3    H174854   6.573   1.380  13.710  0.7859  0.2295  0.7740
17813TIP3    H274855   6.424   1.371  13.734  1.0163 -2.5116  1.5794
17814TIP3   OH274856   4.626   1.085  12.467 -0.2569 -0.8494 -0.2496
17814TIP3    H174857   4.578   1.142  12.407 -0.9394 -1.7481 -0.5875
17814TIP3    H274858   4.567   1.010  12.481  0.8867 -1.7949 -0.3592
17815TIP3   OH274859   6.002   5.130  15.874 -0.1428 -0.1895 -0.2839
17815TIP3    H174860   5.921   5.180  15.885 -0.4164 -0.3632 -1.3905
17815TIP3    H274861   6.015   5.086  15.958 -0.2975  1.1373  0.4457
17816TIP3   OH274862   5.438   1.380   2.081 -0.0978  0.4861  0.3801
17816TIP3    H174863   5.350   1.417   2.091 -0.0245  0.3095  2.1090
17816TIP3    H274864   5.492   1.428   2.144  0.5886 -0.7259  0.7539
17817TIP3   OH274865   1.896   0.863  17.033 -0.0738  0.2432  0.0016
17817TIP3    H174866   1.880   0.775  16.999  0.9891 -0.2814  0.7973
17817TIP3    H274867   1.907   0.917  16.955  0.0691 -0.4985 -0.5009
17818TIP3   OH274868   3.918   0.200  16.616 -0.2839  0.3841  0.1153
17818TIP3    H174869   3.887   0.118  16.576 -0.8374  0.5307  0.2409
17818TIP3    H274870   4.013   0.187  16.627 -0.1130  0.3334 -1.2311
17819TIP3   OH274871   4.817   2.412   4.297 -0.3083  0.2458  0.3792
17819TIP3    H174872   4.767   2.370   4.368 -0.5108 -1.5886 -0.7807
17819TIP3    H274873   4.908   2.402   4.324 -0.4094  0.3602  0.7870
17820TIP3   OH274874   4.837   1.021   3.690 -0.0406 -0.0979  0.0334
17820TIP3    H174875   4.895   1.094   3.672 -0.2208  0.6382  2.2134
17820TIP3    H274876   4.852   0.960   3.618  1.8900  0.9933 -0.5452
17821TIP3   OH274877   0.229   4.240  12.371  0.0006  0.0747  0.3497
17821TIP3    H174878   0.179   4.315  12.403 -1.2210 -0.0768 -1.1123
17821TIP3    H274879   0.315   4.276  12.348 -0.4961  0.9654 -0.1189
17822TIP3   OH274880   4.972   3.441   5.200 -0.4517  0.6576  0.2996
17822TIP3    H174881   4.957   3.347   5.207  0.0994  0.1712 -3.2276
17822TIP3    H274882   4.884   3.480   5.200 -0.7455 -0.0013  0.4542
17823TIP3   OH274883   5.776   6.196  12.007 -0.3451  0.4769  0.4183
17823TIP3    H174884   5.827   6.118  12.028  0.7839  0.8688 -0.7498
17823TIP3    H274885   5.841   6.261  11.981 -1.4494  0.1958 -3.7453
17824TIP3   OH274886   0.843   6.483   2.938  1.0071  0.1158  0.8924
17824TIP3    H174887   0.862   6.575   2.956  0.9318  0.1634  0.7346
17824TIP3    H274888   0.886   6.466   2.854  0.2382  0.2681  0.4515
17825TIP3   OH274889   5.479   6.469   1.233 -0.1163  0.2151 -0.3134
17825TIP3    H174890   5.471   6.482   1.139 -0.2454  0.7415 -0.2321
17825TIP3    H274891   5.571   6.488   1.252 -0.2245  0.6940 -0.2485
17826TIP3   OH274892   0.062   6.745   0.431  0.6308 -0.3079  0.1656
17826TIP3    H174893   0.116   6.823   0.441  1.3289 -0.9255  1.6020
17826TIP3    H274894   0.015   6.758   0.349  2.1814  0.7212 -0.6026
17827TIP3   OH274895   1.020   5.301   1.160  0.0628 -0.1002  0.5113
17827TIP3    H174896   0.989   5.372   1.216  2.0876  0.2196  1.3051
17827TIP3    H274897   1.080   5.343   1.098 -1.3336 -0.6175 -1.2628
17828TIP3   OH274898   2.558   4.806   5.084 -0.1608  0.7201 -0.0665
17828TIP3    H174899   2.630   4.788   5.145  0.2847  1.0617 -0.4920
17828TIP3    H274900   2.549   4.901   5.085 -1.2336  0.6235  0.7008
17829TIP3   OH274901   6.162   6.379  14.348  0.5428  0.1530 -0.3713
17829TIP3    H174902   6.168   6.302  14.405 -0.9514 -0.4313 -0.9587
17829TIP3    H274903   6.098   6.355  14.282  1.4636  1.2204 -1.6978
17830TIP3   OH274904   6.696   0.477  16.001 -0.7719 -0.7061  0.3994
17830TIP3    H174905   6.762   0.444  15.941  0.8083  0.6072  1.3266
17830TIP3    H274906   6.744   0.499  16.081 -2.2351  0.6765  0.9797
17831TIP3   OH274907   0.547   4.040  11.996  0.1433 -0.0456 -0.0478
17831TIP3    H174908   0.576   4.077  11.912 -2.5955 -0.3473 -1.2333
17831TIP3    H274909   0.612   3.974  12.016  1.6625  1.0229 -1.1791
17832TIP3   OH274910   4.705   6.575   4.531 -0.0039 -0.3362  0.0650
17832TIP3    H174911   4.715   6.483   4.557  0.7730  0.1234  1.5057
17832TIP3    H274912   4.767   6.585   4.458 -0.3209 -1.0258 -0.3100
17833TIP3   OH274913   0.967   4.951   3.477  0.3110 -0.8742  0.0681
17833TIP3    H174914   0.996   4.948   3.568 -0.2427 -3.6255  0.2364
17833TIP3    H274915   0.949   5.044   3.461 -0.6586 -0.4158  3.1070
17834TIP3   OH274916   4.337   5.850  15.745  0.3252 -0.3590  0.0166
17834TIP3    H174917   4.310   5.777  15.801  0.0209 -1.3143 -1.3300
17834TIP3    H274918   4.422   5.823  15.710  1.5946  1.2241  1.7239
17835TIP3   OH274919   4.176   5.254  11.374 -0.0968  0.2007 -0.7348
17835TIP3    H174920   4.091   5.288  11.345  0.1308  1.8171  0.3282
17835TIP3    H274921   4.210   5.322  11.432  2.4316  0.1123 -1.9790
17836TIP3   OH274922   1.821   4.673   2.066  0.1893  0.3451  0.1263
17836TIP3    H174923   1.780   4.695   1.982  0.8589  0.5022 -0.1644
17836TIP3    H274924   1.843   4.580   2.058 -0.6514  0.1046  0.5165
17837TIP3   OH274925   4.735   3.840  15.721  0.4555  0.2537  0.2194
17837TIP3    H174926   4.696   3.877  15.642 -1.1012 -0.2968  0.6925
17837TIP3    H274927   4.804   3.782  15.689  0.4161  0.6926 -0.6924
17838TIP3   OH274928   2.458   0.033  14.751 -0.6773 -0.0193  0.1957
17838TIP3    H174929   2.548   0.001  14.760 -1.8005 -3.5133  0.6898
17838TIP3    H274930   2.454   0.069  14.662  1.6546  2.2431  0.8855
17839TIP3   OH274931   6.427   6.003  14.165  0.0812  0.1170 -0.7560
17839TIP3    H174932   6.468   5.947  14.231  0.8005  0.1773 -1.1378
17839TIP3    H274933   6.469   5.978  14.083 -2.1710 -1.3455 -1.5596
17840TIP3   OH274934   3.841   6.406   3.871  0.5883  0.0176  0.6913
17840TIP3    H174935   3.797   6.322   3.864  1.6320 -0.4822  0.0227
17840TIP3    H274936   3.782   6.467   3.827  0.4818 -0.6128 -0.0506
17841TIP3   OH274937   3.508   3.750   0.931 -0.0553  0.1737 -0.4958
17841TIP3    H174938   3.472   3.731   1.017 -2.2581  1.9364 -0.9128
17841TIP3    H274939   3.481   3.677   0.876 -1.3355  0.4919 -0.3222
17842TIP3   OH274940   3.622   5.570  16.183  0.8534  0.2815  0.6662
17842TIP3    H174941   3.574   5.575  16.266  0.6557  1.0446  0.5195
17842TIP3    H274942   3.706   5.532  16.207  0.0040 -1.5854  0.8348
17843TIP3   OH274943   2.431   4.231  13.445  0.6518  0.6092  0.2480
17843TIP3    H174944   2.438   4.263  13.535  1.5256  0.7840  0.1282
17843TIP3    H274945   2.509   4.266  13.401 -0.1887  1.2487 -0.8040
17844TIP3   OH274946   2.126   4.843   3.180  0.0249  0.7205  0.0974
17844TIP3    H174947   2.057   4.890   3.227 -0.2757 -0.0150  0.4054
17844TIP3    H274948   2.090   4.828   3.093 -1.5321 -2.3428  1.1096
17845TIP3   OH274949   2.087   6.284  11.893 -0.0844 -0.0456 -0.3387
17845TIP3    H174950   2.082   6.375  11.920  0.4416  0.9150 -3.1329
17845TIP3    H274951   1.996   6.257  11.882 -0.2333  0.4526 -0.3555
17846TIP3   OH274952   5.853   5.783   1.153 -0.2213  0.3317 -0.6782
17846TIP3    H174953   5.894   5.734   1.224 -0.6607 -1.2956 -1.5159
17846TIP3    H274954   5.785   5.835   1.197 -0.4772 -0.6334  0.0955
17847TIP3   OH274955   6.189   1.539  16.590 -0.1278  0.0262  0.1279
17847TIP3    H174956   6.219   1.592  16.516 -0.5305 -0.1569 -0.1692
17847TIP3    H274957   6.174   1.452  16.554  4.0571 -1.4301  1.3068
17848TIP3   OH274958   4.025   4.371   4.962 -0.1135 -0.2325 -0.6118
17848TIP3    H174959   3.939   4.347   4.995  0.6736 -0.9052  1.0713
17848TIP3    H274960   4.059   4.292   4.920  0.0059 -0.2075 -0.5638
17849TIP3   OH274961   2.505   4.438   0.416 -0.0688  0.1943 -0.1886
17849TIP3    H174962   2.415   4.419   0.390 -0.4891 -0.1684  1.4636
17849TIP3    H274963   2.537   4.355   0.452 -0.3965  1.2866  2.8516
17850TIP3   OH274964   6.307   1.533   1.574 -1.1136  0.1787  0.6469
17850TIP3    H174965   6.274   1.509   1.660 -0.6540  0.0299  0.7832
17850TIP3    H274966   6.315   1.451   1.527 -0.0555  0.1102  0.9311
17851TIP3   OH274967   5.492   3.157  13.921  0.4085  0.2612 -0.3784
17851TIP3    H174968   5.463   3.082  13.973  2.8343 -0.6708 -0.2368
17851TIP3    H274969   5.460   3.233  13.969 -0.8232 -0.6536  0.2884
17852TIP3   OH274970   3.498   0.606  14.673  0.3895 -0.1910  0.7346
17852TIP3    H174971   3.411   0.569  14.661  0.2226  0.2361  0.6328
17852TIP3    H274972   3.558   0.533  14.653  0.2471  0.6906 -4.0753
17853TIP3   OH274973   4.813   1.850  17.205  0.3000 -0.5807 -0.0694
17853TIP3    H174974   4.817   1.852  17.109 -0.3131 -0.9958 -0.1093
17853TIP3    H274975   4.875   1.917  17.233  0.1880 -0.1834 -0.7634
17854TIP3   OH274976   2.699   5.743  14.418  0.2274 -0.3528  0.1026
17854TIP3    H174977   2.742   5.789  14.490  1.6369  0.1986 -1.0535
17854TIP3    H274978   2.741   5.657  14.415  0.6503 -0.1349 -0.4628
17855TIP3   OH274979   4.197   4.401  17.167  0.1793  0.2272  0.0791
17855TIP3    H174980   4.258   4.363  17.230  1.8743  0.1242 -1.5312
17855TIP3    H274981   4.175   4.328  17.108 -0.8056  0.4980  0.0819
17856TIP3   OH274982   6.193   0.732   2.104 -0.5248  1.0427  0.4830
17856TIP3    H174983   6.169   0.820   2.134  0.2661  1.6760 -0.6684
17856TIP3    H274984   6.288   0.736   2.092 -0.7237  0.6724 -1.5265
17857TIP3   OH274985   2.363   4.482  16.771  0.3897  0.2143  0.8126
17857TIP3    H174986   2.298   4.548  16.795 -1.5993 -1.0284 -0.7954
17857TIP3    H274987   2.342   4.407  16.826  1.8106  0.4257  1.7035
17858TIP3   OH274988   0.126   4.600   0.366 -0.2014  0.6884 -0.6061
17858TIP3    H174989   0.046   4.640   0.400  0.8463  1.2347  1.3502
17858TIP3    H274990   0.180   4.585   0.443  0.1185 -3.1751 -1.4020
17859TIP3   OH274991   3.502   4.012  13.037  0.0858  0.6750  0.6786
17859TIP3    H174992   3.583   4.042  13.078 -0.4110  1.6126  0.9952
17859TIP3    H274993   3.435   4.072  13.069 -0.3487  1.3844 -1.4034
17860TIP3   OH274994   2.443   5.444   6.006  0.1636  0.2936  0.2527
17860TIP3    H174995   2.389   5.514   5.970  0.9408  0.4482 -0.6773
17860TIP3    H274996   2.495   5.414   5.931  1.7449  0.5356  1.2117
17861TIP3   OH274997   2.624   1.660   3.880  0.0753 -0.7022  0.2859
17861TIP3    H174998   2.563   1.723   3.918 -0.2504  0.0700 -1.4241
17861TIP3    H274999   2.706   1.674   3.927 -0.3838  0.0216  0.8859
17862TIP3   OH275000   6.335   4.117  15.592  0.1068 -0.4838 -0.2721
17862TIP3    H175001   6.315   4.165  15.512 -0.4600 -1.4984 -0.7675
17862TIP3    H275002   6.285   4.035  15.583  1.2560 -1.2792  0.4037
17863TIP3   OH275003   5.313   2.960   0.177 -0.1625 -0.4011 -0.1955
17863TIP3    H175004   5.370   2.937   0.250 -1.3986  1.6190  1.5197
17863TIP3    H275005   5.230   2.919   0.197 -0.5742  0.3404 -0.3392
17864TIP3   OH275006   3.199   5.054   3.326  0.2376 -0.0618  0.1135
17864TIP3    H175007   3.132   5.120   3.307  0.7321  0.6317  0.7567
17864TIP3    H275008   3.267   5.070   3.261  0.5519  0.3424  0.5403
17865TIP3   OH275009   4.087   1.526   0.917 -0.4707 -0.5028  0.0505
17865TIP3    H175010   4.129   1.442   0.897 -1.2726 -0.6075 -1.2759
17865TIP3    H275011   4.005   1.502   0.960 -0.2799 -0.3550  0.5102
17866TIP3   OH275012   3.859   4.662   1.296 -0.2551  0.8150 -0.4603
17866TIP3    H175013   3.949   4.648   1.266 -0.5133  1.8773 -1.8175
17866TIP3    H275014   3.815   4.578   1.281  0.4458  0.3532  0.0184
17867TIP3   OH275015   0.043   4.144  15.669 -0.0753 -0.1306  0.2029
17867TIP3    H175016  -0.041   4.153  15.624  1.0855 -1.5907 -2.4968
17867TIP3    H275017   0.030   4.072  15.731 -0.2589 -2.0857 -1.9694
17868TIP3   OH275018   1.554   1.873   2.229 -0.5268  0.6335  0.3491
17868TIP3    H175019   1.540   1.845   2.320  0.3905  0.3360  0.4060
17868TIP3    H275020   1.514   1.803   2.177  0.9116 -0.3459  0.5080
17869TIP3   OH275021   2.465   5.373  14.591  0.3774  0.0053  0.0857
17869TIP3    H175022   2.379   5.341  14.617 -0.6269  0.6406 -2.2645
17869TIP3    H275023   2.526   5.329  14.651 -1.2851 -2.8724 -0.1812
17870TIP3   OH275024   2.387   0.135   0.242  0.1320  0.3194 -0.3459
17870TIP3    H175025   2.442   0.098   0.312 -0.4496 -1.6786 -0.8818
17870TIP3    H275026   2.426   0.221   0.225  1.8072 -0.1639  0.7205
17871TIP3   OH275027   0.791   1.470  13.387 -0.2404  0.6261 -0.3829
17871TIP3    H175028   0.882   1.498  13.378 -0.1181 -0.1979 -2.0490
17871TIP3    H275029   0.782   1.396  13.327 -2.0926  0.8786 -0.4914
17872TIP3   OH275030   4.706   3.438   1.955  0.6430  0.5356 -0.4790
17872TIP3    H175031   4.732   3.362   1.904 -0.9246 -0.6820  0.4062
17872TIP3    H275032   4.633   3.476   1.906 -1.0588 -0.8035  0.8206
17873TIP3   OH275033   0.581   6.362  12.674  0.5505  0.9065 -0.1262
17873TIP3    H175034   0.589   6.331  12.764 -1.4562 -2.3987 -0.9207
17873TIP3    H275035   0.489   6.388  12.666  0.9226  1.9946 -0.9923
17874TIP3   OH275036   4.660   5.065   3.442 -0.2750 -0.1811  0.1452
17874TIP3    H175037   4.629   5.153   3.418  1.3682  0.3076 -0.2694
17874TIP3    H275038   4.604   5.006   3.392  0.4176  0.7112 -1.7797
17875TIP3   OH275039   0.786   1.002  12.537 -0.0453 -0.5848  0.0171
17875TIP3    H175040   0.815   1.092  12.552 -0.0347 -0.5120 -0.4179
17875TIP3    H275041   0.865   0.949  12.549  0.1601 -0.4410 -0.6213
17876TIP3   OH275042   1.795   0.303   1.049 -0.2698  0.4127 -0.0567
17876TIP3    H175043   1.870   0.243   1.045  0.2275  1.0672 -1.5617
17876TIP3    H275044   1.753   0.294   0.963 -0.3580  1.9628 -0.2065
17877TIP3   OH275045   5.899   0.455  15.373 -0.3075  0.7249 -0.4136
17877TIP3    H175046   5.871   0.368  15.399  1.3458 -0.6521 -2.8427
17877TIP3    H275047   5.818   0.507  15.371 -2.0955 -1.8529 -2.7783
17878TIP3   OH275048   0.568   1.431   2.039  0.1089 -0.1832  0.8142
17878TIP3    H175049   0.531   1.378   1.969  0.7885 -1.2153  1.2043
17878TIP3    H275050   0.663   1.427   2.025  0.3158 -1.1016  2.2307
17879TIP3   OH275051   2.339   2.419  11.326  0.3392  0.1273  0.3544
17879TIP3    H175052   2.384   2.394  11.246  1.7818  0.5920  0.9887
17879TIP3    H275053   2.318   2.336  11.369  1.2686 -0.0905  0.3962
17880TIP3   OH275054   6.247   3.956  15.308  0.5950  0.0746 -0.0370
17880TIP3    H175055   6.248   3.990  15.219 -2.5250  0.5617 -0.0250
17880TIP3    H275056   6.266   3.863  15.299 -1.7913 -0.3599 -1.6115
17881TIP3   OH275057   2.550   0.572  16.455 -0.1933  0.7735  0.2169
17881TIP3    H175058   2.586   0.508  16.393  0.1680  0.5594  0.6450
17881TIP3    H275059   2.505   0.520  16.521 -0.6293  1.0059  0.1091
17882TIP3   OH275060   1.600   5.076  11.409  0.1519  0.0734 -0.5117
17882TIP3    H175061   1.556   4.992  11.421 -0.6016  0.6108  0.7149
17882TIP3    H275062   1.649   5.066  11.328  0.5560 -1.7479 -0.0802
17883TIP3   OH275063   0.979   2.779   0.467  0.1803 -0.3788  0.1908
17883TIP3    H175064   0.987   2.733   0.550  0.1610  0.1621  0.5011
17883TIP3    H275065   0.899   2.831   0.476  0.2274 -0.2452 -0.1324
17884TIP3   OH275066   5.663   3.867  10.647  0.3392  0.3763 -0.2179
17884TIP3    H175067   5.750   3.863  10.607  0.3096  0.8124 -0.3266
17884TIP3    H275068   5.613   3.926  10.590  0.0761  0.4020  0.0388
17885TIP3   OH275069   0.263   0.161   1.932  0.0091  0.0937  0.1170
17885TIP3    H175070   0.210   0.227   1.975 -0.5895  0.2868 -0.8819
17885TIP3    H275071   0.353   0.194   1.938 -0.3799  1.5201 -1.2165
17886TIP3   OH275072   5.704   6.743  13.310  0.4695  0.0034  0.1329
17886TIP3    H175073   5.630   6.798  13.336  1.6527  1.6633  0.0860
17886TIP3    H275074   5.685   6.720  13.219 -0.1198  0.1860  0.2052
17887TIP3   OH275075   6.192   2.121  17.148 -0.0792  0.7834  0.4312
17887TIP3    H175076   6.143   2.054  17.100 -0.8575  0.6919  1.3239
17887TIP3    H275077   6.125   2.180  17.183  0.1584 -0.5547  3.5305
17888TIP3   OH275078   0.254   4.788  17.148  0.0930 -0.3292  0.2496
17888TIP3    H175079   0.171   4.790  17.196  1.1670 -0.0327  2.1943
17888TIP3    H275080   0.275   4.695  17.141 -0.1440 -0.3804  0.2033
17889TIP3   OH275081   1.049   5.178   2.673  0.4466 -0.0951 -0.3997
17889TIP3    H175082   1.033   5.113   2.605 -2.1062  0.0956 -0.1057
17889TIP3    H275083   1.139   5.163   2.701  0.9917 -1.3328 -2.5600
17890TIP3   OH275084   3.689   2.282   0.826  0.4646 -0.0930  0.3191
17890TIP3    H175085   3.744   2.345   0.779  1.4617  0.5538  2.2339
17890TIP3    H275086   3.751   2.226   0.873 -0.4567 -1.5293 -0.1179
17891TIP3   OH275087   2.135   0.031  12.265 -0.0192 -0.0677 -0.2851
17891TIP3    H175088   2.059  -0.006  12.220  0.3878 -0.5002 -0.6202
17891TIP3    H275089   2.130   0.125  12.247 -0.8654  0.0113  0.2863
17892TIP3   OH275090   3.180   4.017  14.019  0.4144  0.0946  0.3475
17892TIP3    H175091   3.119   4.029  14.092 -0.8387 -2.7370 -0.1034
17892TIP3    H275092   3.125   4.028  13.940  0.8062 -1.0201 -0.0897
17893TIP3   OH275093   5.192   6.046   0.372  0.0363  0.4591  0.6200
17893TIP3    H175094   5.132   6.087   0.434 -0.4778  1.3846 -0.4459
17893TIP3    H275095   5.270   6.025   0.423 -0.1441  1.7311  1.4496
17894TIP3   OH275096   5.521   3.958  11.178  0.6016 -0.6147 -0.3421
17894TIP3    H175097   5.559   3.907  11.106 -1.0069 -1.5789 -0.5330
17894TIP3    H275098   5.469   4.026  11.135  1.4842  0.2687 -0.0696
17895TIP3   OH275099   5.300   4.923   0.569  0.4465  0.4294 -0.2022
17895TIP3    H175100   5.207   4.941   0.587  0.0444  1.5993 -2.8958
17895TIP3    H275101   5.342   4.928   0.654 -2.0413 -0.8509  1.2363
17896TIP3   OH275102   5.805   2.407  13.923  0.2588 -0.4684 -0.3700
17896TIP3    H175103   5.768   2.462  13.854  0.1572  1.0982  0.8887
17896TIP3    H275104   5.839   2.330  13.876 -2.8951 -1.1611 -1.7921
17897TIP3   OH275105   0.004   4.094  10.457  0.3880 -0.4488  0.4110
17897TIP3    H175106   0.019   4.003  10.431  2.8066 -0.3414  1.1531
17897TIP3    H275107   0.082   4.141  10.426 -0.4894  1.2432  0.6588
17898TIP3   OH275108   6.107   3.124  13.262  0.1437 -0.0560 -0.4853
17898TIP3    H175109   6.053   3.172  13.199 -0.5014 -1.0825 -0.7454
17898TIP3    H275110   6.047   3.060  13.300  0.9514 -0.5699 -0.0504
17899TIP3   OH275111   4.177   5.154  12.954 -0.2684  0.1610  0.3528
17899TIP3    H175112   4.145   5.100  12.882  0.9880 -0.0655 -0.0681
17899TIP3    H275113   4.230   5.094  13.007  2.5672  1.2413 -1.0370
17900TIP3   OH275114   1.936   0.976   0.896  0.1289  0.4581 -0.0277
17900TIP3    H175115   1.923   1.017   0.810 -0.8426  1.3953  0.5432
17900TIP3    H275116   1.943   0.883   0.877 -1.3418  0.5171 -1.0268
17901TIP3   OH275117   4.669   0.298   5.625 -0.5716 -0.4916 -0.1641
17901TIP3    H175118   4.657   0.287   5.531 -0.3052  2.0751 -0.5678
17901TIP3    H275119   4.670   0.209   5.660 -0.4664 -1.5114 -2.6018
17902TIP3   OH275120   2.850   4.541   5.757  0.0499  0.1219  0.3490
17902TIP3    H175121   2.895   4.493   5.687  2.1976 -0.9370  2.3324
17902TIP3    H275122   2.859   4.633   5.732 -1.3768 -0.2963 -1.9451
17903TIP3   OH275123   5.991   3.263   4.287  0.2759  0.0932  0.3146
17903TIP3    H175124   5.932   3.218   4.347 -1.3444  2.4506  0.6097
17903TIP3    H275125   6.045   3.318   4.344  2.8879 -1.9476  0.0494
17904TIP3   OH275126   3.791   0.184   0.782  0.2073  0.1376 -0.5085
17904TIP3    H175127   3.710   0.159   0.827 -0.1080 -1.3210 -1.7659
17904TIP3    H275128   3.851   0.208   0.851  0.0634 -2.9220  0.8397
17905TIP3   OH275129   1.978   2.423   3.807 -0.6841 -0.2837  0.6517
17905TIP3    H175130   1.977   2.340   3.855 -0.8536 -0.7928 -0.2267
17905TIP3    H275131   1.887   2.453   3.810 -0.6942 -0.3134  0.6360
17906TIP3   OH275132   1.970   0.567   0.062 -0.1642  0.3979 -0.1083
17906TIP3    H175133   1.922   0.545  -0.018  1.3251 -0.2690 -0.8656
17906TIP3    H275134   1.911   0.544   0.133 -2.3607  2.8644 -0.9514
17907TIP3   OH275135   4.908   1.533  15.514 -0.4469 -0.4685 -0.1591
17907TIP3    H175136   4.943   1.525  15.425 -0.8743 -0.6521 -0.3106
17907TIP3    H275137   4.956   1.466  15.564  0.7945  0.5544  0.0717
17908TIP3   OH275138   0.137   0.295  11.434  0.3601 -0.5320  0.1831
17908TIP3    H175139   0.055   0.318  11.390  1.0987  1.6394 -0.1462
17908TIP3    H275140   0.199   0.363  11.407  2.3525 -2.2142  0.2704
17909TIP3   OH275141   2.739   3.315   5.683 -0.8584 -0.1436 -0.0192
17909TIP3    H175142   2.648   3.288   5.701 -0.8608  0.8576  1.6691
17909TIP3    H275143   2.762   3.267   5.604 -3.0877  0.0888 -0.9020
17910TIP3   OH275144   3.295   0.449   6.340  0.1011  0.1746 -0.1481
17910TIP3    H175145   3.262   0.482   6.423 -0.7138  1.5002 -0.9673
17910TIP3    H275146   3.384   0.484   6.333  0.8318 -1.3721  0.9307
17911TIP3   OH275147   3.941   2.819   5.795  0.5591 -0.1481 -0.1190
17911TIP3    H175148   3.940   2.783   5.883  0.6659 -0.6943 -0.3393
17911TIP3    H275149   3.870   2.774   5.749  0.4933  0.1444 -0.3095
17912TIP3   OH275150   2.129   2.076  13.699 -0.3393  0.2971 -0.5660
17912TIP3    H175151   2.193   2.121  13.753  1.2225 -3.2100  0.7973
17912TIP3    H275152   2.163   2.083  13.610 -0.2306  1.7940 -0.4352
17913TIP3   OH275153   5.400   6.733  16.266 -0.1360  0.2535 -0.2077
17913TIP3    H175154   5.327   6.717  16.207 -0.9928  0.8318  0.6711
17913TIP3    H275155   5.385   6.673  16.340  0.7262 -0.2026 -0.3762
17914TIP3   OH275156   5.242   5.315  16.729  0.2572  0.3346  0.0748
17914TIP3    H175157   5.307   5.385  16.733  1.4595 -0.6392 -1.2200
17914TIP3    H275158   5.288   5.243  16.686 -1.3711 -0.7765  0.1150
17915TIP3   OH275159   3.204   5.416   1.551  0.4803  0.8142 -0.1666
17915TIP3    H175160   3.218   5.383   1.463 -5.5389 -0.0956 -1.2015
17915TIP3    H275161   3.245   5.350   1.608 -0.2192 -1.6760 -2.3343
17916TIP3   OH275162   5.586   5.803  10.899 -0.0150 -0.3264 -0.7648
17916TIP3    H175163   5.618   5.714  10.886 -2.2000 -0.8683 -3.2683
17916TIP3    H275164   5.502   5.793  10.944  1.0137  0.7554  1.5848
17917TIP3   OH275165   1.553   0.783   1.019  0.2151  0.6679  0.5060
17917TIP3    H175166   1.627   0.723   1.012  0.2520  0.9027 -1.7168
17917TIP3    H275167   1.479   0.735   0.981 -0.0757  1.5192 -0.0220
17918TIP3   OH275168   5.864   2.319   5.902 -0.1322  0.0115  0.5721
17918TIP3    H175169   5.800   2.368   5.852  1.0222  0.6652 -0.3167
17918TIP3    H275170   5.924   2.284   5.837 -0.8313 -2.4999  1.2022
17919TIP3   OH275171   0.360   3.448  12.742 -0.2797  0.1033  0.2591
17919TIP3    H175172   0.426   3.386  12.773  1.0625  0.7768 -1.1383
17919TIP3    H275173   0.320   3.483  12.822  1.5591  0.1859  1.1900
17920TIP3   OH275174   6.720   2.847   1.953  0.1096 -0.2225  1.0770
17920TIP3    H175175   6.625   2.848   1.960  0.1829 -1.3074  2.5431
17920TIP3    H275176   6.738   2.880   1.865 -1.5637  1.0765  1.1695
17921TIP3   OH275177   4.054   3.738  11.659  0.2372  0.4104 -0.0850
17921TIP3    H175178   3.993   3.684  11.709  0.5011 -0.3902 -0.5958
17921TIP3    H275179   4.113   3.674  11.619 -0.3241  0.9875 -1.8873
17922TIP3   OH275180   3.699   2.380   5.911  0.2812  0.0775  0.4332
17922TIP3    H175181   3.696   2.285   5.899  0.4696 -0.0554  1.3560
17922TIP3    H275182   3.775   2.394   5.967 -0.1363  0.7103  0.8473
17923TIP3   OH275183   3.113   2.752  13.164  0.1752 -0.0470  0.1762
17923TIP3    H175184   3.075   2.721  13.247  0.1620  0.1968  0.2631
17923TIP3    H275185   3.084   2.688  13.099  1.4859 -1.1201  0.6144
17924TIP3   OH275186   4.894   4.375   0.449  0.2019 -0.3015  0.1339
17924TIP3    H175187   4.846   4.399   0.528  1.3905  0.2061  0.7147
17924TIP3    H275188   4.841   4.412   0.378  0.2931  1.2218  0.8243
17925TIP3   OH275189   3.390   4.518   0.743 -0.2767 -0.1799  0.3141
17925TIP3    H175190   3.381   4.457   0.816 -0.0040 -1.5025 -0.7313
17925TIP3    H275191   3.331   4.485   0.676  1.0189 -0.2173 -0.8626
17926TIP3   OH275192   4.779   1.643  14.193 -0.0976 -0.1177 -0.0658
17926TIP3    H175193   4.837   1.702  14.241 -0.1784 -0.5962  0.6328
17926TIP3    H275194   4.734   1.593  14.261  1.5106 -2.5090 -0.6543
17927TIP3   OH275195   5.719   3.363   3.731  0.3485 -0.0367 -0.1879
17927TIP3    H175196   5.627   3.345   3.747  0.4037 -0.0160  0.1587
17927TIP3    H275197   5.720   3.421   3.655  0.0302  0.7519  0.4001
17928TIP3   OH275198   6.172   5.319  15.246  0.2032 -0.2849 -0.2686
17928TIP3    H175199   6.201   5.410  15.241  0.1640 -0.3404 -3.0524
17928TIP3    H275200   6.080   5.321  15.222 -0.2281 -0.9377  1.1788
17929TIP3   OH275201   0.872   1.053  14.701 -0.3920  0.1898 -0.2236
17929TIP3    H175202   0.839   1.066  14.790 -0.1377 -0.2117 -0.0699
17929TIP3    H275203   0.948   1.112  14.694  1.4658 -1.9292  0.8564
17930TIP3   OH275204   4.061   6.118  13.507 -0.5775 -0.3894  0.0460
17930TIP3    H175205   4.071   6.174  13.584  1.4570 -0.6629  0.0283
17930TIP3    H275206   4.097   6.034  13.534  0.1646 -0.4894 -1.1962
17931TIP3   OH275207   6.249   4.365  16.273 -0.4487 -0.2623 -0.4351
17931TIP3    H175208   6.289   4.360  16.186 -0.9692 -0.4071 -0.6657
17931TIP3    H275209   6.320   4.340  16.333 -0.5088 -1.6940 -0.9227
17932TIP3   OH275210   5.012   2.664   3.434 -0.1641  0.5534  0.0365
17932TIP3    H175211   5.039   2.692   3.521  3.3368 -1.3599 -0.2419
17932TIP3    H275212   5.063   2.718   3.374  0.6330 -0.9009 -0.6610
17933TIP3   OH275213   0.319   0.979   2.263  0.1152 -0.2149  0.0627
17933TIP3    H175214   0.359   1.063   2.286 -1.3429  0.4167  0.4232
17933TIP3    H275215   0.255   0.963   2.332 -0.5407 -0.9825 -0.6931
17934TIP3   OH275216   2.727   0.752   6.779  0.9818  0.1248  0.1629
17934TIP3    H175217   2.762   0.787   6.698  0.4301 -0.2932 -0.2629
17934TIP3    H275218   2.693   0.828   6.826  2.3514  0.5237  0.5438
17935TIP3   OH275219   4.062   2.984   4.087  0.3991  0.4778  0.4374
17935TIP3    H175220   4.135   2.966   4.028 -0.4971 -0.7122 -0.3547
17935TIP3    H275221   3.984   2.976   4.032 -0.3420  1.9998  1.1978
17936TIP3   OH275222   4.375   4.519  11.751 -0.0648 -0.5321 -0.4217
17936TIP3    H175223   4.417   4.600  11.780  3.3108 -1.8022 -1.2605
17936TIP3    H275224   4.400   4.455  11.818 -4.4077 -0.6713  1.3745
17937TIP3   OH275225   5.467   1.891   2.908  0.5427 -0.0156 -0.4567
17937TIP3    H175226   5.374   1.871   2.895  0.9883 -1.1716 -2.1982
17937TIP3    H275227   5.467   1.979   2.943 -1.2034  0.3033 -1.1141
17938TIP3   OH275228   0.295   2.713  10.643  0.3657 -0.1991 -0.1211
17938TIP3    H175229   0.249   2.693  10.561  1.6272 -0.4045 -0.7950
17938TIP3    H275230   0.325   2.803  10.632  0.9317 -0.3807 -0.0791
17939TIP3   OH275231   5.459   3.127   1.144  0.9054 -0.7289 -0.5679
17939TIP3    H175232   5.549   3.107   1.116  0.9863 -0.2339 -0.6742
17939TIP3    H275233   5.438   3.208   1.098  0.3577 -0.9077 -0.6339
17940TIP3   OH275234   4.889   2.665   4.586 -0.1748 -0.0854 -0.2569
17940TIP3    H175235   4.834   2.648   4.509 -0.6718 -0.4082  0.1622
17940TIP3    H275236   4.855   2.606   4.653  0.9688 -0.5993 -0.1087
17941TIP3   OH275237   0.319   2.081   6.289 -0.1589 -0.0435  0.1027
17941TIP3    H175238   0.348   2.074   6.198  0.6616 -0.8076  0.4112
17941TIP3    H275239   0.292   1.992   6.312  2.3864 -0.5375  1.4910
17942TIP3   OH275240   1.315   3.603  14.425  1.1459 -0.4510 -0.7420
17942TIP3    H175241   1.347   3.628  14.338  2.9216 -0.4069 -0.1176
17942TIP3    H275242   1.269   3.520  14.411  1.2769 -0.3697 -1.7405
17943TIP3   OH275243   5.192   1.310  14.819 -0.3356 -0.0784  0.2322
17943TIP3    H175244   5.244   1.237  14.852 -0.7808 -0.1062  0.8737
17943TIP3    H275245   5.256   1.365  14.773  0.3634  0.1324  1.4063
17944TIP3   OH275246   2.991   1.100   3.172  0.5914  0.0721 -0.1136
17944TIP3    H175247   2.946   1.031   3.123  0.6929 -0.0956  0.0289
17944TIP3    H275248   2.974   1.180   3.122 -0.6044  0.1652  0.4133
17945TIP3   OH275249   0.157   1.139   3.240 -0.3299  0.1951 -0.2380
17945TIP3    H175250   0.253   1.142   3.246 -0.4142  0.9055  1.1379
17945TIP3    H275251   0.134   1.057   3.285 -0.4449  0.8549  0.9359
17946TIP3   OH275252   4.771   2.087  15.416  0.2064  0.2883 -0.0023
17946TIP3    H175253   4.723   2.170  15.409 -0.5989 -0.2247 -0.6516
17946TIP3    H275254   4.798   2.068  15.326 -1.3161 -1.1430 -0.1957
17947TIP3   OH275255   2.887   1.092  12.198 -0.7214  0.0981 -0.3670
17947TIP3    H175256   2.933   1.084  12.281  1.0868  1.5886 -1.1526
17947TIP3    H275257   2.944   1.048  12.135 -1.0475  0.7752 -1.1507
17948TIP3   OH275258   0.342   3.436   3.209 -0.3821  0.5037 -0.1691
17948TIP3    H175259   0.398   3.462   3.282 -0.0243  2.6043 -1.0995
17948TIP3    H275260   0.403   3.422   3.137 -0.9191  1.5498 -0.8560
17949TIP3   OH275261   4.557   2.812  14.040  0.8056  0.4793 -0.2861
17949TIP3    H175262   4.518   2.883  13.990  2.7047  0.4824 -1.8905
17949TIP3    H275263   4.589   2.750  13.975  0.1020 -1.3916  1.0543
17950TIP3   OH275264   4.502   4.132  17.116  0.8306  0.3364 -0.4404
17950TIP3    H175265   4.549   4.215  17.120  1.0313  0.2159 -0.2866
17950TIP3    H275266   4.428   4.144  17.176  2.2563 -0.4670  1.6184
17951TIP3   OH275267   4.245   4.043  14.024 -0.0839  0.3333 -0.8261
17951TIP3    H175268   4.321   4.038  13.966  0.5096  0.8089 -0.1035
17951TIP3    H275269   4.232   4.137  14.039  0.3033  0.1951  0.4804
17952TIP3   OH275270   0.194   5.250  16.189 -0.5611 -0.4643 -0.3921
17952TIP3    H175271   0.200   5.192  16.265 -0.1984  0.8788  0.6494
17952TIP3    H275272   0.150   5.329  16.222 -0.1915  0.2395 -1.5075
17953TIP3   OH275273   0.089   4.723   4.463  0.0557 -0.0548 -0.1610
17953TIP3    H175274   0.052   4.773   4.390  2.7728  0.1197 -1.5267
17953TIP3    H275275   0.014   4.681   4.504 -1.7010  0.8742 -2.2634
17954TIP3   OH275276   5.081   6.378  11.905  0.3331  0.3842  0.4736
17954TIP3    H175277   5.162   6.415  11.940 -0.7488  1.4420  2.0408
17954TIP3    H275278   5.069   6.422  11.820 -0.1518  2.6819  1.6271
17955TIP3   OH275279   6.634   1.106   3.494 -0.1646 -0.4221  0.4006
17955TIP3    H175280   6.647   1.175   3.429  0.4680  1.6961  2.5991
17955TIP3    H275281   6.715   1.056   3.493  0.4491  0.5377  0.5437
17956TIP3   OH275282   6.772   1.455   6.632 -0.2166  0.3425 -0.3836
17956TIP3    H175283   6.857   1.499   6.624 -0.5661  0.8692 -1.3640
17956TIP3    H275284   6.730   1.495   6.708  1.1291 -1.1909  1.2711
17957TIP3   OH275285   3.627   0.452   6.508  0.2600  0.1720  0.1202
17957TIP3    H175286   3.630   0.529   6.565 -0.0577  0.1911  0.1119
17957TIP3    H275287   3.593   0.485   6.425 -0.1706 -0.0343  0.2129
17958TIP3   OH275288   4.089   0.709   1.007  0.2483  0.0415  0.6093
17958TIP3    H175289   4.010   0.702   1.060 -0.2440 -0.9522 -0.2076
17958TIP3    H275290   4.136   0.627   1.024  0.9884  0.5196  0.9060
17959TIP3   OH275291   5.432   6.761   4.939  0.2369  1.0440  0.5969
17959TIP3    H175292   5.413   6.686   4.997 -1.0964  1.4126  0.6636
17959TIP3    H275293   5.454   6.721   4.855 -0.3217  0.5554  0.6712
17960TIP3   OH275294   1.507   2.896   4.681 -0.2310  0.2436 -0.0895
17960TIP3    H175295   1.543   2.904   4.592 -0.6803  1.1244 -0.2034
17960TIP3    H275296   1.473   2.807   4.685  0.4135 -0.0295 -0.5656
17961TIP3   OH275297   3.402   4.770  16.763 -0.0424 -0.2774  0.4219
17961TIP3    H175298   3.407   4.684  16.805 -1.1791  0.0478  1.3109
17961TIP3    H275299   3.481   4.816  16.792  0.7011 -1.0885 -0.2697
17962TIP3   OH275300   0.905   2.827   0.769  0.0391 -0.1121  0.4338
17962TIP3    H175301   0.874   2.845   0.858 -0.1994  1.3396  0.0881
17962TIP3    H275302   0.833   2.854   0.712  1.0622  1.2896 -0.2864
17963TIP3   OH275303   0.177   5.359   1.980 -0.0266  0.0705 -0.1745
17963TIP3    H175304   0.161   5.377   1.888  2.9229 -0.4244 -0.9068
17963TIP3    H275305   0.096   5.319   2.012 -0.7658 -0.7845 -2.8449
17964TIP3   OH275306   0.433   3.435   5.100 -0.0764 -0.0176 -0.7330
17964TIP3    H175307   0.358   3.471   5.052 -0.7348  2.8224  2.0865
17964TIP3    H275308   0.509   3.478   5.061 -0.4489  1.1079 -0.2477
17965TIP3   OH275309   1.170   4.132   0.062 -0.0198 -0.2161 -0.0483
17965TIP3    H175310   1.225   4.058   0.084 -0.2132 -0.6552 -0.9885
17965TIP3    H275311   1.225   4.209   0.079  0.5391 -0.6092 -0.0531
17966TIP3   OH275312   3.197   6.616  10.856  0.3936 -0.0446 -0.8228
17966TIP3    H175313   3.292   6.624  10.859  0.4150 -0.3937 -0.4625
17966TIP3    H275314   3.168   6.686  10.797  0.7509  1.0759  0.3050
17967TIP3   OH275315   4.430   3.882  17.067 -0.1928  0.4678  0.4150
17967TIP3    H175316   4.447   3.977  17.063  3.5195 -0.0810 -3.6466
17967TIP3    H275317   4.496   3.849  17.128  0.1640  0.2658 -0.0805
17968TIP3   OH275318   5.169   1.706   6.244  0.0608 -0.1759  0.3484
17968TIP3    H175319   5.241   1.652   6.278 -0.3523 -0.3230  1.0182
17968TIP3    H275320   5.090   1.657   6.268 -0.2703  0.0461 -0.2671
17969TIP3   OH275321   4.261   6.122   4.759  0.1989  0.0833 -0.3781
17969TIP3    H175322   4.167   6.116   4.772  0.3577 -0.8975  0.4482
17969TIP3    H275323   4.294   6.155   4.843  0.5076  1.3546 -0.9811
17970TIP3   OH275324   3.382   1.367   1.918 -0.4639  0.4350  0.1332
17970TIP3    H175325   3.350   1.278   1.905 -0.8441  0.4921  0.6476
17970TIP3    H275326   3.383   1.405   1.830 -0.8746  0.1168 -0.0125
17971TIP3   OH275327   6.401   2.469  13.280 -0.1161  0.2822 -0.7877
17971TIP3    H175328   6.447   2.486  13.363  0.8557 -1.1715 -0.9957
17971TIP3    H275329   6.393   2.556  13.240 -0.4803  1.0040  0.7508
17972TIP3   OH275330   1.552   0.312   0.333  0.3861 -0.2793  0.0145
17972TIP3    H175331   1.519   0.321   0.244 -0.4348 -1.7604  0.1205
17972TIP3    H275332   1.613   0.238   0.329  0.7474 -0.0223  0.5762
17973TIP3   OH275333   1.901   4.077   1.946 -0.0587 -0.2229  0.4710
17973TIP3    H175334   1.981   4.095   1.995 -0.0272 -0.5616  0.5441
17973TIP3    H275335   1.834   4.065   2.013  0.6835 -4.4338  0.6972
17974TIP3   OH275336   4.786   1.156   5.547  0.1915  0.1924 -0.1821
17974TIP3    H175337   4.742   1.149   5.632  0.2132 -0.2427 -0.2031
17974TIP3    H275338   4.730   1.213   5.495 -1.5439 -2.0663 -0.9516
17975TIP3   OH275339   6.012   4.606  16.773 -0.2180  0.0179  0.0627
17975TIP3    H175340   6.018   4.511  16.782  0.1127  0.0913  0.6399
17975TIP3    H275341   6.102   4.635  16.759 -0.2065  0.3225  0.7062
17976TIP3   OH275342   5.885   5.379   2.511 -0.0324  0.2058  0.2747
17976TIP3    H175343   5.897   5.385   2.416 -0.6705 -1.6785  0.0236
17976TIP3    H275344   5.851   5.464   2.537  0.1448  0.7498 -1.1890
17977TIP3   OH275345   4.167   5.401  14.671 -0.0376  0.0791 -0.2607
17977TIP3    H175346   4.240   5.411  14.732  1.0796 -0.5985 -1.4266
17977TIP3    H275347   4.189   5.323  14.620 -0.6942  0.8797 -1.8369
17978TIP3   OH275348   2.979   5.577  11.368  0.2924  0.7341 -0.7165
17978TIP3    H175349   3.055   5.574  11.310  1.1955 -0.7619  0.4663
17978TIP3    H275350   2.986   5.661  11.412  0.3525  1.2998 -1.7845
17979TIP3   OH275351   2.083   3.141  15.082  0.4657 -0.4318  0.4690
17979TIP3    H175352   2.000   3.147  15.129  0.2107  1.7068 -0.1202
17979TIP3    H275353   2.139   3.206  15.123  0.9012  0.0788 -0.8617
17980TIP3   OH275354   0.104   5.171  14.891  0.3164  0.1274 -0.5173
17980TIP3    H175355   0.025   5.141  14.936 -0.3250  1.4883 -0.6978
17980TIP3    H275356   0.097   5.266  14.890  1.1894  0.2065 -1.9314
17981TIP3   OH275357   2.462   5.309  12.200  0.2704  0.1636 -0.2025
17981TIP3    H175358   2.394   5.260  12.246 -4.2981  3.0285 -3.0622
17981TIP3    H275359   2.481   5.257  12.122  1.6118 -0.7106  0.6713
17982TIP3   OH275360   1.309   2.959  12.105 -0.0174 -0.2119  0.2757
17982TIP3    H175361   1.327   3.012  12.027  2.1625  1.3614  1.7407
17982TIP3    H275362   1.389   2.910  12.120 -0.6796 -1.0655  1.1046
17983TIP3   OH275363   6.009   0.810  16.973 -0.5799  0.3482 -0.6706
17983TIP3    H175364   6.055   0.781  17.052 -0.6912  1.0461 -0.3446
17983TIP3    H275365   6.010   0.733  16.916  1.0684  0.3667 -0.7212
17984TIP3   OH275366   3.394   6.292   1.594 -0.1911 -0.5386 -0.2672
17984TIP3    H175367   3.413   6.290   1.500  1.5262 -2.6138  0.0423
17984TIP3    H275368   3.352   6.207   1.612 -0.7716 -0.0481  0.7993
17985TIP3   OH275369   1.305   5.203  12.228 -0.0947  0.5710  0.3378
17985TIP3    H175370   1.216   5.237  12.220  0.0052  0.5511 -1.2643
17985TIP3    H275371   1.353   5.244  12.155  0.7449 -0.8010  0.0707
17986TIP3   OH275372   4.920   2.232   5.813  0.1307  0.1131  0.0010
17986TIP3    H175373   4.930   2.146   5.854  1.0550 -0.8912 -2.1931
17986TIP3    H275374   5.007   2.253   5.782 -0.4276  1.0888 -0.9427
17987TIP3   OH275375   5.350   1.149   4.460  0.0887 -0.0798  0.0979
17987TIP3    H175376   5.433   1.156   4.508  0.9489 -1.1080 -1.1912
17987TIP3    H275377   5.297   1.089   4.513  0.5551 -0.2421  0.3836
17988TIP3   OH275378   1.688   2.795  12.897  0.4245  0.1091  0.3300
17988TIP3    H175379   1.775   2.764  12.921  0.3451 -0.6920 -0.3589
17988TIP3    H275380   1.635   2.715  12.893  0.0368  0.4069 -0.7936
17989TIP3   OH275381   0.360   1.367   3.401 -0.6943  0.6875 -0.0448
17989TIP3    H175382   0.400   1.301   3.345 -0.4856 -0.6513  1.5724
17989TIP3    H275383   0.434   1.412   3.442 -0.8358  2.0421 -1.2341
17990TIP3   OH275384   4.519   1.113  14.642  0.4966  0.3761 -0.2784
17990TIP3    H175385   4.470   1.130  14.722  0.3829  0.9591 -0.4634
17990TIP3    H275386   4.505   1.021  14.624  0.3953  0.2768  0.2865
17991TIP3   OH275387   1.745   4.314   3.892  0.2988  0.0444  0.4306
17991TIP3    H175388   1.803   4.374   3.939  1.8919 -1.3007  0.2712
17991TIP3    H275389   1.798   4.235   3.879 -0.9636 -0.5720 -1.3441
17992TIP3   OH275390   0.717   6.239   0.170 -0.4851 -0.8760  0.3195
17992TIP3    H175391   0.766   6.255   0.251  3.2040 -1.7871 -1.4983
17992TIP3    H275392   0.691   6.147   0.176 -0.5573 -0.8402  0.6082
17993TIP3   OH275393   4.497   5.727   5.193 -0.0864 -0.0816 -0.3821
17993TIP3    H175394   4.497   5.815   5.230 -0.9999  0.3096 -1.2858
17993TIP3    H275395   4.405   5.705   5.182  0.0413 -1.8660  1.4386
17994TIP3   OH275396   1.003   4.028   5.070 -0.2274 -0.6036  0.1401
17994TIP3    H175397   1.049   3.944   5.073  0.8128 -0.0225  2.7141
17994TIP3    H275398   1.027   4.065   4.985 -1.2138 -3.0988 -1.3608
17995TIP3   OH275399   0.751   2.804  12.225  0.1075  0.6316  0.6508
17995TIP3    H175400   0.714   2.719  12.248  1.9380 -0.4620 -0.1661
17995TIP3    H275401   0.811   2.825  12.297  2.7361 -0.8184 -0.9568
17996TIP3   OH275402   2.160   6.704   1.903 -0.1241 -0.3201 -0.3157
17996TIP3    H175403   2.152   6.778   1.843  3.1088  0.8129  0.4416
17996TIP3    H275404   2.251   6.675   1.894 -0.1137 -1.4889  2.3937
17997TIP3   OH275405   3.736   6.596  12.063 -0.2918  0.1685  0.2993
17997TIP3    H175406   3.669   6.581  12.129  0.9971 -2.1483  1.1924
17997TIP3    H275407   3.731   6.690  12.045 -2.5994  0.3528  1.5550
17998TIP3   OH275408   3.208   5.845  16.410  0.0840 -0.2940 -0.4745
17998TIP3    H175409   3.259   5.840  16.329  0.9904 -1.7204  0.1230
17998TIP3    H275410   3.246   5.776  16.465 -2.3393 -1.2393  0.1159
17999TIP3   OH275411   5.827   1.017  16.883 -0.0342 -0.1294 -0.0836
17999TIP3    H175412   5.851   1.008  16.791  0.0150 -0.4524 -0.0387
17999TIP3    H275413   5.893   0.967  16.931 -0.3484 -0.3835  0.0914
18000TIP3   OH275414   0.551   3.317  12.463  0.0446  0.0590  0.3741
18000TIP3    H175415   0.584   3.348  12.379  0.4741 -2.6270 -0.5776
18000TIP3    H275416   0.595   3.371  12.528  2.4288 -0.0164 -1.0414
18001TIP3   OH275417   0.519   4.824   1.028  0.3296 -0.4451  0.0903
18001TIP3    H175418   0.604   4.865   1.015  1.3064 -2.8452 -2.0544
18001TIP3    H275419   0.485   4.810   0.939 -2.4721  0.6174  0.8647
18002TIP3   OH275420   0.160   4.161   1.716 -0.2365 -0.0971 -0.0504
18002TIP3    H175421   0.181   4.239   1.664 -0.8856  1.3965  1.8168
18002TIP3    H275422   0.243   4.114   1.724  0.4157  0.9884 -0.2828
18003TIP3   OH275423   3.036   0.063   3.189 -0.2017  0.4239  0.5140
18003TIP3    H175424   3.130   0.047   3.189 -0.2824 -0.2002 -1.1242
18003TIP3    H275425   3.017   0.096   3.277  1.6555  1.2926  0.6301
18004TIP3   OH275426   1.136   4.926  13.958 -0.1416  0.3048  0.0727
18004TIP3    H175427   1.083   4.981  13.901 -0.7316  0.7953  1.0662
18004TIP3    H275428   1.209   4.898  13.903 -0.3584  1.2655 -0.7336
18005TIP3   OH275429   3.286   3.372   6.052 -0.2146  0.5418 -0.3106
18005TIP3    H175430   3.372   3.390   6.014  0.6634  0.6465  1.6398
18005TIP3    H275431   3.231   3.445   6.023  0.3762  0.5842 -1.3913
18006TIP3   OH275432   2.619   3.532   0.200  0.5849  0.2916  0.1780
18006TIP3    H175433   2.697   3.512   0.252  0.4892 -2.7288 -0.6843
18006TIP3    H275434   2.653   3.581   0.125  1.3500  0.7500  0.8041
18007TIP3   OH275435   1.109   1.409  13.102 -0.6071 -0.8143  0.1629
18007TIP3    H175436   1.046   1.437  13.035 -0.5938  1.0445  0.8642
18007TIP3    H275437   1.109   1.481  13.165  2.8308 -0.3729 -0.1991
18008TIP3   OH275438   5.451   6.311   6.070  0.0764  0.1659  0.1055
18008TIP3    H175439   5.457   6.216   6.082 -0.8264  0.0861 -0.0069
18008TIP3    H275440   5.518   6.347   6.128 -0.1691 -0.4922  0.8110
18009TIP3   OH275441   5.028   0.284  13.459  0.0824 -0.1572 -0.6020
18009TIP3    H175442   5.059   0.300  13.370 -1.7702  0.0321 -1.2673
18009TIP3    H275443   5.107   0.269  13.510  1.2524  0.6083 -2.1009
18010TIP3   OH275444   5.080   2.353   4.422  0.1871  0.2059 -0.0462
18010TIP3    H175445   5.067   2.327   4.513  1.8887 -0.0227  0.1733
18010TIP3    H275446   5.171   2.382   4.418 -0.0315  0.7798 -1.5470
18011TIP3   OH275447   1.056   6.275  15.026  0.0879  0.9806 -0.6385
18011TIP3    H175448   1.007   6.217  15.085  1.3478  0.7499  0.2270
18011TIP3    H275449   1.039   6.363  15.059  1.2800  0.8183  0.5266
18012TIP3   OH275450   0.059   2.549  12.441 -0.0403 -0.3410 -0.1106
18012TIP3    H175451   0.032   2.624  12.494 -2.3525  0.1424 -1.8213
18012TIP3    H275452   0.014   2.474  12.481  0.1841 -0.3946  0.0452
18013TIP3   OH275453   1.433   4.817   5.805  0.2576 -0.4399  0.2225
18013TIP3    H175454   1.514   4.844   5.848  0.8704 -3.1569  0.9648
18013TIP3    H275455   1.364   4.850   5.861  0.9546 -0.4273  1.0998
18014TIP3   OH275456   4.326   0.729   3.761 -0.6693 -0.0369 -0.1474
18014TIP3    H175457   4.258   0.747   3.696  0.0946 -0.1969 -0.9975
18014TIP3    H275458   4.284   0.670   3.824 -0.4660 -2.6935 -2.3033
18015TIP3   OH275459   2.836   1.728   1.687  0.2737  0.4768  0.1158
18015TIP3    H175460   2.756   1.680   1.710 -0.1322  0.7795 -0.6405
18015TIP3    H275461   2.891   1.721   1.765  0.2269 -1.2191  0.0211
18016TIP3   OH275462   3.916   2.449   1.585 -0.1356 -0.4393  0.1307
18016TIP3    H175463   3.957   2.497   1.513  0.0999 -2.3787 -1.1321
18016TIP3    H275464   3.970   2.370   1.595 -1.2225 -1.0933  1.2057
18017TIP3   OH275465   3.273   4.486  15.477  0.3816 -0.1100 -0.0504
18017TIP3    H175466   3.338   4.524  15.537 -0.5041 -0.1865  1.0061
18017TIP3    H275467   3.220   4.561  15.449 -1.1550 -0.4152  1.7700
18018TIP3   OH275468   5.732   3.004   3.422 -0.1259 -0.1269 -0.0827
18018TIP3    H175469   5.734   3.027   3.329 -0.9154 -0.9309 -0.3153
18018TIP3    H275470   5.729   2.908   3.423 -1.1002 -0.1092  0.7403
18019TIP3   OH275471   6.390   0.861   4.491 -0.0944  0.4970  0.2934
18019TIP3    H175472   6.319   0.816   4.537 -1.5054  2.8071  0.4890
18019TIP3    H275473   6.346   0.920   4.431  1.7227  0.4357 -1.1647
18020TIP3   OH275474   3.689   0.174   6.286 -0.0371  0.0993  0.0411
18020TIP3    H175475   3.783   0.181   6.269 -0.1644  0.7379 -0.4456
18020TIP3    H275476   3.660   0.264   6.300 -0.4712 -0.1465  0.8048
18021TIP3   OH275477   0.583   2.547  12.213  0.1468  0.1234  0.1413
18021TIP3    H175478   0.566   2.460  12.176 -0.0185  0.8234 -1.5503
18021TIP3    H275479   0.498   2.576  12.246  0.4426 -0.8070  1.8395
18022TIP3   OH275480   4.335   5.020  17.252  0.4607 -0.2173 -0.3942
18022TIP3    H175481   4.364   5.111  17.242 -0.9145  0.4210  1.0456
18022TIP3    H275482   4.386   4.986  17.325  1.5386 -0.8936 -1.4248
18023TIP3   OH275483   5.082   5.723  11.273  0.2655  0.1797 -0.4115
18023TIP3    H175484   4.991   5.703  11.292  0.7006 -0.6631  0.9197
18023TIP3    H275485   5.081   5.813  11.240 -0.7528  1.3067  2.4077
18024TIP3   OH275486   6.572   0.531  16.324  0.0317  0.0581  0.1343
18024TIP3    H175487   6.478   0.544  16.335 -0.1060 -1.1109  0.5575
18024TIP3    H275488   6.589   0.448  16.368  1.2445  0.1927 -0.0548
18025TIP3   OH275489   4.013   6.430   3.370 -0.3591 -0.4812 -0.3473
18025TIP3    H175490   3.967   6.433   3.286 -1.3834 -0.0963  0.2087
18025TIP3    H275491   3.962   6.369   3.423 -1.1035  1.0408  0.7638
18026TIP3   OH275492   0.247   3.127  12.910 -0.2334 -0.2168  0.6135
18026TIP3    H175493   0.340   3.121  12.888 -0.3486 -2.1091  0.4998
18026TIP3    H275494   0.245   3.157  13.000  0.6341 -2.6212  1.5099
18027TIP3   OH275495   5.610   2.513  12.656  0.5772 -0.0089 -0.1908
18027TIP3    H175496   5.694   2.489  12.695  0.5565 -1.1640 -0.7966
18027TIP3    H275497   5.549   2.517  12.730  1.1499  0.8023  0.2465
18028TIP3   OH275498   4.951   1.708  13.467  0.1769  0.1439 -0.4643
18028TIP3    H175499   4.960   1.627  13.516 -1.6439 -0.8666 -1.7034
18028TIP3    H275500   4.965   1.683  13.376  0.5833  1.4340 -0.7888
18029TIP3   OH275501   6.148   5.846  16.816 -0.5270 -0.0725  0.0668
18029TIP3    H175502   6.096   5.770  16.787 -0.9696  0.0969  0.4132
18029TIP3    H275503   6.186   5.881  16.735 -0.2279 -0.7255 -0.0854
18030TIP3   OH275504   5.830   6.344   4.459 -0.7635  0.5213  0.3062
18030TIP3    H175505   5.843   6.401   4.383 -0.3352 -1.2411 -1.0112
18030TIP3    H275506   5.792   6.264   4.422 -0.5886 -0.3592  1.9643
18031TIP3   OH275507   3.830   4.279  13.368 -0.3480 -0.1581 -0.6601
18031TIP3    H175508   3.815   4.236  13.453 -0.7988 -1.6366 -1.4560
18031TIP3    H275509   3.905   4.336  13.384 -2.1524  1.8569  1.4959
18032TIP3   OH275510   5.511   4.399  14.043 -0.1737  0.6912  0.6793
18032TIP3    H175511   5.546   4.473  13.993  1.1439 -2.0440 -2.7701
18032TIP3    H275512   5.441   4.363  13.988  0.2539 -1.5343  1.5091
18033TIP3   OH275513   0.308   1.490  16.749 -0.2560 -0.1943  0.5116
18033TIP3    H175514   0.265   1.405  16.757 -2.6078  0.5966 -2.1362
18033TIP3    H275515   0.278   1.525  16.665  0.6818  3.2426  1.4243
18034TIP3   OH275516   0.512   1.348   0.948  0.4199  0.1170 -0.0487
18034TIP3    H175517   0.436   1.297   0.920  1.9353 -2.8285  0.7912
18034TIP3    H275518   0.527   1.321   1.039  1.6105  1.7199  0.2715
18035TIP3   OH275519   5.536   4.953   1.205  0.0555  0.4209 -0.3552
18035TIP3    H175520   5.607   4.909   1.158  0.3330  1.0210 -0.5094
18035TIP3    H275521   5.555   5.047   1.196 -0.2463  0.5627  0.4026
18036TIP3   OH275522   2.975   0.395   5.986 -0.5102  0.2166 -0.4896
18036TIP3    H175523   3.015   0.413   5.901 -1.1598  0.7476 -0.6983
18036TIP3    H275524   3.005   0.466   6.042  2.6807 -1.9078  0.7471
18037TIP3   OH275525   0.977   3.615  13.256 -0.3105  0.2382 -0.1261
18037TIP3    H175526   1.051   3.668  13.229 -0.5793  0.9616  0.5407
18037TIP3    H275527   0.944   3.577  13.174 -0.5481  1.6590 -0.7204
18038TIP3   OH275528   3.179   5.881  10.884 -0.0787  0.0268  0.7377
18038TIP3    H175529   3.143   5.923  10.806 -1.1167 -1.4120  0.3993
18038TIP3    H275530   3.126   5.916  10.956 -0.5238 -0.2099  0.5326
18039TIP3   OH275531   5.947   5.050  13.690 -0.6680 -0.0954 -0.4841
18039TIP3    H175532   5.928   4.956  13.689 -0.6345 -0.0993 -0.7162
18039TIP3    H275533   5.977   5.067  13.779 -2.0000 -0.0459 -0.0166
18040TIP3   OH275534   3.791   5.705   2.829 -0.4180 -0.8805  0.0326
18040TIP3    H175535   3.838   5.726   2.748 -1.4018  0.8459 -0.1372
18040TIP3    H275536   3.859   5.688   2.893  0.4580  1.3120 -0.2689
18041TIP3   OH275537   0.529   4.927   4.740 -0.0126 -0.0430  0.2465
18041TIP3    H175538   0.622   4.923   4.721  0.1217 -0.8236  0.9842
18041TIP3    H275539   0.516   4.863   4.810 -0.8093  1.2819  1.3581
18042TIP3   OH275540   0.535   1.668   3.232 -0.0965 -0.2186  0.0679
18042TIP3    H175541   0.568   1.584   3.265 -0.4505 -0.1314  0.6501
18042TIP3    H275542   0.546   1.662   3.137 -0.2002 -0.9599  0.0959
18043TIP3   OH275543   0.509   6.151   3.866  0.1418  0.3524 -0.2623
18043TIP3    H175544   0.519   6.231   3.916  1.0335  0.0986 -0.0282
18043TIP3    H275545   0.596   6.131   3.832 -0.1822 -0.1989 -0.8170
18044TIP3   OH275546   2.307   2.532   2.234 -0.1364  0.0813 -0.9201
18044TIP3    H175547   2.353   2.576   2.163 -0.4297 -0.1117 -1.2329
18044TIP3    H275548   2.359   2.552   2.313 -0.0854  0.7034 -1.1081
18045TIP3   OH275549   1.024   5.904  11.955  0.0576 -0.0791  0.5392
18045TIP3    H175550   1.056   5.956  12.029  0.0874  0.3574  0.2264
18045TIP3    H275551   1.082   5.928  11.883  0.1258 -0.6203  0.4154
18046TIP3   OH275552   0.334   1.036  13.419  0.4509  0.1132  0.3570
18046TIP3    H175553   0.322   0.959  13.474 -3.5990 -0.5145 -1.0248
18046TIP3    H275554   0.263   1.095  13.444  1.4895  1.9890 -0.8444
18047TIP3   OH275555   6.038   0.918   4.034  0.0645  0.5801  0.3387
18047TIP3    H175556   6.022   0.824   4.034 -0.0314  0.5903  0.9226
18047TIP3    H275557   5.977   0.953   4.099 -1.0735  1.2586 -1.0586
18048TIP3   OH275558   0.084   6.553  11.124 -0.4927  0.2324 -0.1121
18048TIP3    H175559   0.052   6.623  11.180 -0.8286 -1.5651  2.0788
18048TIP3    H275560   0.060   6.581  11.036 -1.2007  2.5282  0.7202
18049TIP3   OH275561   0.420   1.139  14.199 -0.3739  0.3329 -0.3902
18049TIP3    H175562   0.361   1.207  14.164 -1.6398 -1.4994 -2.0417
18049TIP3    H275563   0.406   1.142  14.293 -3.0362  0.1387 -0.6839
18050TIP3   OH275564   2.041   3.700  11.305 -0.3946 -0.1089 -0.3396
18050TIP3    H175565   2.076   3.694  11.216  0.9420  0.9441  0.0717
18050TIP3    H275566   2.096   3.765  11.348 -1.1903 -0.3905  1.1929
18051TIP3   OH275567   5.748   0.115   6.441  0.8267 -0.3110  0.5530
18051TIP3    H175568   5.679   0.182   6.446  0.4667 -0.5362 -0.8015
18051TIP3    H275569   5.803   0.143   6.368  1.5179 -0.7411  0.9016
18052TIP3   OH275570   5.007   3.239   2.614  0.3834  0.5756  0.1407
18052TIP3    H175571   5.005   3.184   2.535 -1.0609  0.8076 -0.0141
18052TIP3    H275572   5.100   3.245   2.636  0.6305 -1.7759  0.0682
18053TIP3   OH275573   3.069   3.248  12.299 -0.1268 -0.0117 -0.0130
18053TIP3    H175574   3.106   3.305  12.367  0.1419 -0.2284  0.0245
18053TIP3    H275575   3.111   3.278  12.218  0.5777 -0.6345  0.1085
18054TIP3   OH275576   4.330   3.280  14.984 -0.1471 -0.1158 -0.0344
18054TIP3    H175577   4.348   3.266  15.077  2.8892 -2.3136 -0.8115
18054TIP3    H275578   4.385   3.355  14.960  1.8951 -1.7652 -0.7232
18055TIP3   OH275579   3.519   1.959   0.256 -0.0106 -0.8540 -0.2734
18055TIP3    H175580   3.452   1.957   0.189 -0.9322 -2.3515  0.6309
18055TIP3    H275581   3.590   1.904   0.221  1.1694  1.3184 -1.5523
18056TIP3   OH275582   4.908   1.970   2.620  0.0294 -0.1247  0.1025
18056TIP3    H175583   4.814   1.967   2.605 -0.0695  1.0462  0.3755
18056TIP3    H275584   4.947   1.955   2.534 -0.3662 -1.6819  0.1615
18057TIP3   OH275585   4.465   5.980   0.217  0.1606  0.3964 -0.4847
18057TIP3    H175586   4.540   5.920   0.217 -0.6844 -0.7392 -2.0768
18057TIP3    H275587   4.393   5.926   0.249  0.1229  1.7261  1.9132
18058TIP3   OH275588   3.042   2.538   3.268 -0.0978  0.8224  0.4434
18058TIP3    H175589   3.100   2.614   3.265 -1.0879  1.6544  1.6650
18058TIP3    H275590   2.992   2.543   3.187 -0.0985  1.4259  0.4779
18059TIP3   OH275591   2.822   5.546  13.924 -0.2802  0.1695  0.4050
18059TIP3    H175592   2.830   5.616  13.859 -0.4742  0.3125  0.5355
18059TIP3    H275593   2.733   5.554  13.957 -0.5379 -0.5754 -0.0812
18060TIP3   OH275594   2.308   4.232   4.398  0.4014 -0.4371 -0.1137
18060TIP3    H175595   2.341   4.275   4.320  1.5010  0.3213  0.7332
18060TIP3    H275596   2.227   4.280   4.419 -0.0780 -0.8579 -0.9489
18061TIP3   OH275597   0.793   4.282   3.191  0.3015 -0.0986 -0.3818
18061TIP3    H175598   0.825   4.225   3.261 -0.5149 -1.5761 -1.1649
18061TIP3    H275599   0.735   4.226   3.138 -0.1502  1.3262 -1.4779
18062TIP3   OH275600   6.198   1.543  15.426 -0.2783 -0.3445 -0.3973
18062TIP3    H175601   6.252   1.497  15.489  0.9242  0.2698 -0.9511
18062TIP3    H275602   6.108   1.524  15.453  0.1919  0.4058  1.8500
18063TIP3   OH275603   3.878   5.198   5.750  0.6358  0.1026 -0.4840
18063TIP3    H175604   3.793   5.201   5.706  0.2622  1.5218  0.2799
18063TIP3    H275605   3.864   5.140   5.825  0.7209 -0.6994 -1.0702
18064TIP3   OH275606   0.061   2.643  11.577 -0.3910 -0.3046  0.6901
18064TIP3    H175607   0.064   2.730  11.617  1.4400  0.8928 -1.7172
18064TIP3    H275608   0.138   2.598  11.612  0.5646  0.3315 -0.4932
18065TIP3   OH275609   0.106   3.963  13.123  0.7947 -0.1238 -0.1757
18065TIP3    H175610   0.030   4.020  13.133  0.5872  0.0450 -2.3300
18065TIP3    H275611   0.071   3.874  13.130  0.2937 -0.0580 -1.5713
18066TIP3   OH275612   1.789   4.844  11.573  0.5699  0.3905 -0.5717
18066TIP3    H175613   1.749   4.761  11.544 -0.4223 -0.2099  2.2635
18066TIP3    H275614   1.806   4.891  11.491 -1.5819 -1.3409 -2.1578
18067TIP3   OH275615   0.668   6.006   5.927 -0.2128 -0.5277  0.3068
18067TIP3    H175616   0.725   6.016   5.851 -0.5272  1.8890  0.3228
18067TIP3    H275617   0.592   5.959   5.894 -1.5220  2.6495 -1.6251
18068TIP3   OH275618   0.331   0.417  14.099 -0.0550 -0.4723  0.5589
18068TIP3    H175619   0.397   0.354  14.069  0.1700  0.7516 -1.7919
18068TIP3    H275620   0.375   0.502  14.092 -2.0155  0.4760 -1.8552
18069TIP3   OH275621   6.502   0.475   3.619 -0.1846 -0.2624 -0.1270
18069TIP3    H175622   6.525   0.540   3.554 -2.9523  0.4202 -0.5387
18069TIP3    H275623   6.498   0.524   3.701 -0.4592 -0.3188 -0.1079
18070TIP3   OH275624   0.873   0.278  12.677 -0.3901 -0.8107  0.1482
18070TIP3    H175625   0.966   0.256  12.667 -0.3850 -1.7370  1.8097
18070TIP3    H275626   0.872   0.352  12.737 -0.6854  0.2808 -1.1571
18071TIP3   OH275627   2.550   0.731  16.663  0.0112  0.0300  0.0728
18071TIP3    H175628   2.553   0.664  16.594 -0.8845 -0.9678  0.9626
18071TIP3    H275629   2.464   0.771  16.652 -0.9562 -1.4360  1.7360
18072TIP3   OH275630   5.522   0.454   1.088  0.5259  0.3776 -0.3034
18072TIP3    H175631   5.490   0.396   1.158  0.5646 -1.1920 -1.5334
18072TIP3    H275632   5.535   0.538   1.132 -0.2972 -0.3104  1.3832
18073TIP3   OH275633   2.653   1.651  15.953  0.7469 -0.3375 -0.4094
18073TIP3    H175634   2.716   1.678  16.020 -0.0883  1.7086 -0.3622
18073TIP3    H275635   2.601   1.583  15.995  1.5034 -0.4781  0.3235
18074TIP3   OH275636   4.613   2.896  13.162 -0.6177  0.2364 -0.1511
18074TIP3    H175637   4.655   2.887  13.247  1.8842 -0.0708 -1.3220
18074TIP3    H275638   4.538   2.837  13.166  0.0304 -0.5306  1.4878
18075TIP3   OH275639   5.156   4.177   4.814 -0.4558 -0.6350 -0.4012
18075TIP3    H175640   5.072   4.137   4.796  0.0210 -1.6506 -0.4408
18075TIP3    H275641   5.221   4.113   4.785  0.3351 -0.4777  0.8994
18076TIP3   OH275642   1.022   1.409   5.114 -0.1249 -0.4830  0.0100
18076TIP3    H175643   1.042   1.458   5.034  0.4812 -1.0791 -0.2076
18076TIP3    H275644   0.933   1.376   5.099 -0.6536  0.7538  0.2733
18077TIP3   OH275645   5.822   4.552  15.069 -0.2613  0.4711 -0.1652
18077TIP3    H175646   5.743   4.596  15.039 -1.4358 -2.5946 -1.9624
18077TIP3    H275647   5.792   4.489  15.134  1.0917  0.8784  0.9136
18078TIP3   OH275648   5.383   1.471   3.454 -0.0166  0.0492 -0.0693
18078TIP3    H175649   5.354   1.454   3.364  0.5101  0.1566 -0.2610
18078TIP3    H275650   5.303   1.499   3.499 -0.4966 -0.9820 -0.2424
18079TIP3   OH275651   1.230   4.605  16.587 -0.1172 -0.0001 -0.0808
18079TIP3    H175652   1.250   4.526  16.637  1.0303  0.7602  0.6879
18079TIP3    H275653   1.149   4.638  16.626  0.7651  0.5867  1.3183
18080TIP3   OH275654   5.050   3.187  12.686  0.1443 -0.1965 -0.0398
18080TIP3    H175655   5.134   3.163  12.645 -0.0848  0.3778 -0.8803
18080TIP3    H275656   5.074   3.212  12.775  0.9581  0.4315 -0.4092
18081TIP3   OH275657   5.053   0.356  15.731 -0.1310 -0.2669  0.1442
18081TIP3    H175658   4.998   0.371  15.808 -0.1046 -1.1228  0.3420
18081TIP3    H275659   5.000   0.301  15.674 -0.1947  0.4637 -0.5125
18082TIP3   OH275660   3.030   1.669   1.901 -0.4267 -0.0927 -0.4959
18082TIP3    H175661   2.983   1.708   1.975  0.7617 -0.4525  0.4869
18082TIP3    H275662   3.045   1.578   1.928  0.0557 -0.2176 -1.1681
18083TIP3   OH275663   5.135   0.602  12.804  0.0740  0.2569  0.0535
18083TIP3    H175664   5.125   0.571  12.894 -3.2191  0.8012  0.0262
18083TIP3    H275665   5.197   0.541  12.764  0.5031 -0.8757  2.2859
18084TIP3   OH275666   5.077   4.718  12.404 -0.0345 -0.1783 -0.2531
18084TIP3    H175667   5.172   4.716  12.416 -0.0311  1.1542  0.0772
18084TIP3    H275668   5.042   4.670  12.479  0.3373  0.4617  0.3440
18085TIP3   OH275669   1.978   2.350  17.342 -0.4223  0.2065  0.4955
18085TIP3    H175670   1.892   2.381  17.373  0.3052  2.2300  0.6142
18085TIP3    H275671   1.960   2.312  17.256 -1.6228 -0.5667  1.0540
18086TIP3   OH275672   0.896   4.070   2.172 -0.8019 -0.7326 -0.3899
18086TIP3    H175673   0.941   3.987   2.188  1.4755  0.8857  2.4045
18086TIP3    H275674   0.937   4.105   2.094  1.5758 -0.2086  1.0059
18087TIP3   OH275675   4.644   2.954  15.619  0.1728 -0.3025 -0.4105
18087TIP3    H175676   4.635   3.048  15.633  3.5332  0.7179 -3.2931
18087TIP3    H275677   4.698   2.923  15.692 -1.0852 -0.0872  0.6374
18088TIP3   OH275678   6.255   6.544  11.057  0.4038 -0.2800  0.6576
18088TIP3    H175679   6.343   6.545  11.094  1.4658 -0.0568 -1.7288
18088TIP3    H275680   6.259   6.604  10.983 -1.4214 -1.1995 -0.2567
18089TIP3   OH275681   6.759   0.026  11.201  0.1967 -0.0500  0.1718
18089TIP3    H175682   6.689   0.090  11.209 -0.8599 -1.2232  0.7693
18089TIP3    H275683   6.803   0.027  11.286  0.0154 -0.2874  0.2702
18090TIP3   OH275684   3.167   2.658   5.901 -0.2340 -0.0187  0.0486
18090TIP3    H175685   3.121   2.595   5.955  0.7565  0.2230  1.2140
18090TIP3    H275686   3.099   2.695   5.845 -1.4625  0.2830  1.6559
18091TIP3   OH275687   6.004   2.405   3.986  0.0067 -0.2741 -0.2121
18091TIP3    H175688   5.991   2.420   3.892  1.4074  0.1255 -0.3683
18091TIP3    H275689   6.013   2.493   4.023 -1.2630 -0.4011  0.4228
18092TIP3   OH275690   2.971   3.813  14.897  0.5275  0.3341  0.2936
18092TIP3    H175691   2.965   3.832  14.803  0.3887 -2.6224 -0.4140
18092TIP3    H275692   2.909   3.873  14.938 -2.3972 -0.8523 -2.0089
18093TIP3   OH275693   0.816   2.509   5.989 -0.2088  0.3894  0.1867
18093TIP3    H175694   0.748   2.455   5.948 -1.1789  0.5467  1.5421
18093TIP3    H275695   0.831   2.469   6.075 -0.1345  1.6169  0.7636
18094TIP3   OH275696   5.485   0.526  15.182  0.5853 -0.5296 -0.1449
18094TIP3    H175697   5.428   0.503  15.109 -1.8444 -0.8634  1.7323
18094TIP3    H275698   5.502   0.443  15.226 -0.5985  0.0072  1.4109
18095TIP3   OH275699   3.556   4.181   0.031 -0.0228 -0.5799  0.1682
18095TIP3    H175700   3.499   4.116  -0.009 -0.6813  0.5982 -0.9021
18095TIP3    H275701   3.570   4.246  -0.038  1.1574  0.0673  0.9893
18096TIP3   OH275702   3.546   2.989   1.987  0.2190 -0.2313 -0.1033
18096TIP3    H175703   3.453   3.010   1.985  0.2855  0.0551 -2.1347
18096TIP3    H275704   3.560   2.935   1.909  1.5523 -1.2344  0.7844
18097TIP3   OH275705   1.222   4.038   4.583 -0.0864  0.2577 -0.3843
18097TIP3    H175706   1.203   4.094   4.658  2.7065  1.8180 -0.7174
18097TIP3    H275707   1.214   3.949   4.618 -1.6166  0.8765  0.9713
18098TIP3   OH275708   3.904   6.402  13.982  0.2895  0.7571  0.2317
18098TIP3    H175709   3.983   6.454  13.999  0.6008  0.3475  0.0517
18098TIP3    H275710   3.917   6.322  14.033  0.9674 -0.2363 -1.4371
18099TIP3   OH275711   0.049   6.373   1.698  0.0086 -0.0631  0.1263
18099TIP3    H175712  -0.022   6.327   1.742 -0.3210  0.4137  0.0962
18099TIP3    H275713   0.063   6.323   1.617 -1.8351  1.1166 -0.9863
18100TIP3   OH275714   4.499   4.603   3.812  0.3119  0.3531 -0.2991
18100TIP3    H175715   4.444   4.677   3.839  0.2069 -0.3039  1.3996
18100TIP3    H275716   4.436   4.533   3.793  0.4808  0.1186 -0.0020
18101TIP3   OH275717   5.559   3.695   0.355  0.8890 -0.5382 -0.6415
18101TIP3    H175718   5.631   3.724   0.411  0.6546  1.0921 -1.1288
18101TIP3    H275719   5.586   3.609   0.323  1.5744 -0.9627  0.9749
18102TIP3   OH275720   2.983   2.096  16.679 -0.4107 -0.0459 -0.1229
18102TIP3    H175721   2.895   2.073  16.708 -0.4693  2.5319  2.1322
18102TIP3    H275722   3.042   2.054  16.742 -0.1420  0.0848 -0.2795
18103TIP3   OH275723   5.457   6.138  15.287 -0.1712 -0.1103 -0.1100
18103TIP3    H175724   5.419   6.211  15.239  0.3052 -0.3426 -0.8653
18103TIP3    H275725   5.446   6.161  15.379 -2.4550 -0.3429 -0.2683
18104TIP3   OH275726   0.567   1.712  12.791 -0.0115  0.5932 -0.1855
18104TIP3    H175727   0.601   1.685  12.876 -0.9919  0.3214  0.1214
18104TIP3    H275728   0.644   1.748  12.746  1.1336 -1.6889 -0.2129
18105TIP3   OH275729   0.462   6.619  15.772 -0.9026 -0.3530 -0.4073
18105TIP3    H175730   0.506   6.535  15.783 -2.7046 -1.1341  1.2610
18105TIP3    H275731   0.451   6.653  15.861 -2.3417  0.4797 -0.8654
18106TIP3   OH275732   4.553   6.303  15.534 -0.4202 -0.4507 -0.9254
18106TIP3    H175733   4.536   6.294  15.440  0.4736  0.0762 -1.1454
18106TIP3    H275734   4.531   6.218  15.571  1.9215 -1.6143 -2.0279
18107TIP3   OH275735   0.619   0.458  14.874  0.3919  0.6798 -0.2248
18107TIP3    H175736   0.680   0.529  14.855 -1.2683  2.0149 -0.8326
18107TIP3    H275737   0.582   0.435  14.789 -0.0983  0.0222  0.1564
18108TIP3   OH275738   5.239   3.572  16.684  0.1163 -0.5598  0.8020
18108TIP3    H175739   5.223   3.544  16.594 -1.2393 -0.2911  0.9345
18108TIP3    H275740   5.298   3.647  16.676 -0.6452 -0.0211  0.0594
18109TIP3   OH275741   0.319   5.500  16.381  0.2438  0.0331  0.1410
18109TIP3    H175742   0.371   5.429  16.418  0.6554  0.4525  0.3778
18109TIP3    H275743   0.343   5.577  16.433 -1.0033  0.1334  0.5986
18110TIP3   OH275744   5.506   0.166  12.378  0.0175  0.3531  0.5059
18110TIP3    H175745   5.575   0.221  12.341  0.8202 -1.6145 -1.0987
18110TIP3    H275746   5.549   0.119  12.449 -0.0014  0.0151  0.2943
18111TIP3   OH275747   6.065   2.280  14.237  0.1944  0.5742 -0.0917
18111TIP3    H175748   6.141   2.323  14.196  0.6080  0.3819  0.4631
18111TIP3    H275749   6.095   2.256  14.324 -0.6540  0.9008  0.3045
18112TIP3   OH275750   0.758   1.700  13.207 -0.5187 -0.4462 -0.3794
18112TIP3    H175751   0.808   1.730  13.130  1.2773 -0.5599  0.6827
18112TIP3    H275752   0.793   1.613  13.225 -0.0309  0.0607  1.2723
18113TIP3   OH275753   1.242   6.669   2.606  0.4242  0.3349 -0.1655
18113TIP3    H175754   1.307   6.633   2.666  2.7394 -0.4493 -2.9388
18113TIP3    H275755   1.225   6.599   2.543 -0.7803  1.5929 -1.3229
18114TIP3   OH275756   2.748   3.954   2.945  0.3986  0.2174  0.2603
18114TIP3    H175757   2.740   3.948   2.849  0.4215 -0.8274  0.3094
18114TIP3    H275758   2.670   3.910   2.978 -0.1359  1.4748  0.7444
18115TIP3   OH275759   2.259   4.418   0.686  0.7443 -0.1159  0.0977
18115TIP3    H175760   2.268   4.506   0.649 -0.4189 -0.3734 -0.8792
18115TIP3    H275761   2.230   4.364   0.612 -1.2205 -0.7533  1.2397
18116TIP3   OH275762   1.254   0.189   0.883  0.0535 -0.5302 -0.0303
18116TIP3    H175763   1.259   0.114   0.824 -1.7992  0.0454 -0.9966
18116TIP3    H275764   1.338   0.234   0.872  0.2691 -1.1892 -1.1884
18117TIP3   OH275765   3.880   5.685   1.369 -0.3856 -0.3450  0.3855
18117TIP3    H175766   3.848   5.613   1.314 -0.7085 -0.1386  0.2971
18117TIP3    H275767   3.964   5.709   1.331 -0.7906  0.0676 -0.2795
18118TIP3   OH275768   1.749   3.133   0.508 -0.2355 -0.0517 -0.0349
18118TIP3    H175769   1.696   3.095   0.438  0.8222 -0.7666 -0.4590
18118TIP3    H275770   1.780   3.216   0.473 -0.0070 -0.2392 -0.2766
18119TIP3   OH275771   0.409   3.840  11.835  0.3282  0.0163 -0.2239
18119TIP3    H175772   0.375   3.794  11.758  1.3681  0.1059 -0.7561
18119TIP3    H275773   0.395   3.933  11.815 -0.5766 -0.0025  0.2749
18120TIP3   OH275774   4.401   6.654  11.556 -0.1233  0.2183  0.1426
18120TIP3    H175775   4.352   6.717  11.608  0.6822  1.7045 -0.8432
18120TIP3    H275776   4.492   6.668  11.581  0.0126 -1.1206  0.4812
18121TIP3   OH275777   4.098   2.881   1.549  0.1642 -0.0273 -0.2983
18121TIP3    H175778   4.172   2.921   1.595  0.3182 -0.2896 -0.3106
18121TIP3    H275779   4.025   2.941   1.563  0.2114 -0.0966  0.2818
18122TIP3   OH275780   0.982   6.604   0.706 -0.3764 -0.3476  0.3314
18122TIP3    H175781   0.968   6.601   0.800 -0.8635 -0.9418  0.2409
18122TIP3    H275782   0.907   6.559   0.668  0.7925 -1.9167 -0.2424
18123TIP3   OH275783   2.668   0.571   1.878 -0.1058  0.5406 -0.2034
18123TIP3    H175784   2.612   0.532   1.811 -0.1876  0.6073 -0.1747
18123TIP3    H275785   2.691   0.499   1.936  1.6953  0.0325 -1.4770
18124TIP3   OH275786   6.306   3.972  14.076 -0.0500 -0.6850  0.6934
18124TIP3    H175787   6.361   3.951  14.151  0.5625 -0.1931  0.3957
18124TIP3    H275788   6.366   3.970  14.001 -1.0531 -3.3280 -0.1313
18125TIP3   OH275789   4.615   2.253  13.747  0.0016 -0.8007 -0.4011
18125TIP3    H175790   4.665   2.193  13.692  0.3615 -0.7784 -0.1047
18125TIP3    H275791   4.678   2.321  13.772 -0.5504  0.0351 -1.2226
18126TIP3   OH275792   4.515   6.075  16.336 -0.3647 -0.6100 -0.6257
18126TIP3    H175793   4.497   6.059  16.428 -0.2791 -2.2052 -0.8569
18126TIP3    H275794   4.459   6.150  16.313 -1.1940 -0.8862  0.4449
18127TIP3   OH275795   3.240   3.486   5.723  0.7433 -0.7735  0.4785
18127TIP3    H175796   3.295   3.417   5.686  0.6364  0.0238 -1.2668
18127TIP3    H275797   3.290   3.519   5.798  0.4366 -3.2289  1.8964
18128TIP3   OH275798   4.178   1.927  15.517 -0.0829  0.1354  0.9458
18128TIP3    H175799   4.266   1.891  15.500 -0.4880  0.2121 -1.8147
18128TIP3    H275800   4.193   2.020  15.531  0.2075  0.4530 -1.1590
18129TIP3   OH275801   2.351   4.533  13.495  0.2278 -0.2194  0.3381
18129TIP3    H175802   2.377   4.463  13.554 -0.2742 -2.3645 -1.8171
18129TIP3    H275803   2.256   4.540  13.507  0.1575 -0.4995 -0.0540
18130TIP3   OH275804   2.786   4.883  13.881  0.0696  0.3028 -0.0126
18130TIP3    H175805   2.852   4.815  13.867 -1.5307 -1.5456  0.9484
18130TIP3    H275806   2.766   4.916  13.794 -0.4145 -1.7840 -0.7501
18131TIP3   OH275807   6.681   1.536  11.998 -0.1455 -0.3738 -0.2887
18131TIP3    H175808   6.742   1.594  11.952  0.2987 -1.7572 -1.5074
18131TIP3    H275809   6.599   1.546  11.950 -0.2826 -0.1987 -0.0229
18132TIP3   OH275810   6.531   5.079  16.783  0.7880  0.4149  0.0063
18132TIP3    H175811   6.533   5.172  16.808 -0.1108  0.6790 -0.8490
18132TIP3    H275812   6.618   5.062  16.747  0.4970  1.3375 -1.1974
18133TIP3   OH275813   1.645   0.469   3.349 -0.0055 -0.3405  0.1171
18133TIP3    H175814   1.729   0.441   3.313  0.9760  2.2386  0.2147
18133TIP3    H275815   1.600   0.511   3.276 -0.6857 -0.5618  0.3977
18134TIP3   OH275816   0.124   1.829   2.442 -0.5854  0.6305  0.3145
18134TIP3    H175817   0.161   1.897   2.499 -0.5355 -2.3972  4.4171
18134TIP3    H275818   0.198   1.800   2.389 -0.4072  3.0187 -0.8802
18135TIP3   OH275819   2.030   0.365   2.238 -0.4805  0.4726  0.4303
18135TIP3    H175820   2.029   0.461   2.250  2.2924  0.6762 -0.2742
18135TIP3    H275821   2.014   0.352   2.145  2.1777  0.5386 -0.1161
18136TIP3   OH275822   3.656   1.569   2.824 -0.2085 -0.4608  0.1304
18136TIP3    H175823   3.619   1.620   2.896  0.9692  0.0486  0.3806
18136TIP3    H275824   3.613   1.603   2.746 -0.5781 -0.1700  0.4573
18137TIP3   OH275825   5.936   6.436   1.735  0.4146 -0.1240  0.9015
18137TIP3    H175826   5.882   6.452   1.658  2.7100  0.1336 -0.7799
18137TIP3    H275827   5.922   6.513   1.790  1.4172  1.5445 -1.0071
18138TIP3   OH275828   6.262   2.611  14.512 -0.3049 -0.0439  0.3304
18138TIP3    H175829   6.326   2.539  14.511 -1.3997 -1.0729 -1.2610
18138TIP3    H275830   6.204   2.591  14.438 -0.6097  2.5512 -0.2007
18139TIP3   OH275831   4.875   2.804   0.476 -0.1072  0.2931 -0.3287
18139TIP3    H175832   4.785   2.795   0.508 -0.1769 -0.0544 -0.6170
18139TIP3    H275833   4.914   2.717   0.489 -0.2713  0.0089 -1.6003
18140TIP3   OH275834   6.417   3.121   0.015  0.8297  0.1302 -0.0502
18140TIP3    H175835   6.403   3.031   0.045  0.8302  0.2242  0.2345
18140TIP3    H275836   6.433   3.112  -0.080  0.1645 -0.0980 -0.1447
18141TIP3   OH275837   6.518   4.177   4.732  0.2055 -0.0971 -0.0015
18141TIP3    H175838   6.529   4.153   4.824  0.6497 -0.1181 -0.0577
18141TIP3    H275839   6.604   4.208   4.705  0.1095 -0.2052 -0.4434
18142TIP3   OH275840   3.905   6.376  12.055  0.0316 -0.0793  0.4882
18142TIP3    H175841   3.861   6.461  12.059  0.9594  0.3858  1.3725
18142TIP3    H275842   3.951   6.377  11.971 -0.1048  0.2318  0.4152
18143TIP3   OH275843   1.847   0.959   3.681  0.7110 -0.0074 -0.3161
18143TIP3    H175844   1.798   1.029   3.722  1.0807  0.2323 -0.2831
18143TIP3    H275845   1.786   0.920   3.618  0.4725  0.2683 -0.2535
18144TIP3   OH275846   5.156   3.105  17.103 -0.0850 -0.0364 -0.4617
18144TIP3    H175847   5.141   3.136  17.192 -0.4610  0.7412 -0.7760
18144TIP3    H275848   5.091   3.037  17.089  1.5128 -1.8791  0.6429
18145TIP3   OH275849   5.781   3.712   0.534 -0.0557  0.1241 -0.2023
18145TIP3    H175850   5.792   3.806   0.539 -0.5756  0.1432  1.0326
18145TIP3    H275851   5.807   3.680   0.621  0.5167 -0.9221 -0.7257
18146TIP3   OH275852   6.507   3.296  12.583 -0.2127  0.2485 -0.0718
18146TIP3    H175853   6.508   3.252  12.499 -1.4661  0.2982 -0.1322
18146TIP3    H275854   6.575   3.363  12.576  0.4889 -0.5149 -0.6113
18147TIP3   OH275855   3.301   2.302   4.442  0.8921  0.5704  0.7178
18147TIP3    H175856   3.257   2.386   4.449  0.3026  0.3730 -0.4031
18147TIP3    H275857   3.393   2.322   4.461  1.1729  1.9090 -1.5696
18148TIP3   OH275858   0.960   0.729  13.533  0.2552  0.0076  0.5053
18148TIP3    H175859   1.030   0.663  13.526  0.5309  0.1172  1.8955
18148TIP3    H275860   0.890   0.695  13.478  0.8497 -0.8560  0.2564
18149TIP3   OH275861   4.538   5.246   2.447  0.5794 -0.1893  0.3920
18149TIP3    H175862   4.573   5.258   2.536  1.3506 -0.1274  0.0842
18149TIP3    H275863   4.460   5.301   2.445 -1.3661 -2.5968  2.0802
18150TIP3   OH275864   6.626   3.914  12.581  0.0272  0.9207  0.3721
18150TIP3    H175865   6.695   3.973  12.553  0.1216  0.6959  0.1285
18150TIP3    H275866   6.653   3.885  12.669  0.9047 -0.1640 -0.2209
18151TIP3   OH275867   6.703   0.989   2.579  0.1237  0.0266  0.2876
18151TIP3    H175868   6.743   1.049   2.642  1.6243  0.3200 -0.8995
18151TIP3    H275869   6.616   1.026   2.563  0.7034  1.4108  0.2216
18152TIP3   OH275870   1.803   5.226  12.648  0.1112 -0.2706 -0.6873
18152TIP3    H175871   1.774   5.312  12.615 -1.6231 -1.2402 -1.8163
18152TIP3    H275872   1.723   5.175  12.654  0.9992 -1.5404  0.9105
18153TIP3   OH275873   5.316   3.292  16.410  0.2896 -0.4072 -0.4713
18153TIP3    H175874   5.349   3.270  16.497 -0.9111 -1.0498 -0.1552
18153TIP3    H275875   5.240   3.347  16.426 -0.3088 -1.0312 -1.0728
18154TIP3   OH275876   4.898   0.470  17.213 -0.5813  0.3430 -0.2014
18154TIP3    H175877   4.855   0.551  17.239 -0.3328  0.0877  1.0565
18154TIP3    H275878   4.963   0.497  17.149 -0.9443  1.0467 -0.2876
18155TIP3   OH275879   5.558   0.473   0.466 -0.5729  0.4541 -0.1504
18155TIP3    H175880   5.501   0.428   0.530 -1.4322  0.8830 -0.5919
18155TIP3    H275881   5.601   0.541   0.517 -0.9264  0.5193  0.0654
18156TIP3   OH275882   3.049   6.761   0.379  0.3246 -0.1053 -0.5580
18156TIP3    H175883   3.122   6.705   0.406  0.0302 -0.2502 -0.0404
18156TIP3    H275884   3.041   6.825   0.450 -0.2993 -0.3356 -0.4086
18157TIP3   OH275885   6.230   6.488  14.667  0.8002 -0.3345  0.3354
18157TIP3    H175886   6.247   6.518  14.578 -0.3203 -0.6738 -0.0048
18157TIP3    H275887   6.248   6.564  14.722  3.8158 -0.7430  0.1095
18158TIP3   OH275888   3.684   2.397  13.325  0.0355  0.1763  1.0883
18158TIP3    H175889   3.710   2.322  13.379  0.8755 -0.2790  0.0932
18158TIP3    H275890   3.766   2.443  13.307 -0.3899  0.9707  1.1280
18159TIP3   OH275891   4.447   5.141   3.925 -0.2676 -0.1441 -0.7074
18159TIP3    H175892   4.370   5.120   3.979 -0.8716  0.5937 -1.2546
18159TIP3    H275893   4.410   5.163   3.839  0.6435 -0.8050 -1.2888
18160TIP3   OH275894   5.755   6.170   3.344  0.2783 -0.0548  0.2229
18160TIP3    H175895   5.791   6.250   3.308 -0.3518 -0.0335 -0.3778
18160TIP3    H275896   5.693   6.199   3.411 -1.6496  0.0844 -1.5257
18161TIP3   OH275897   3.351   4.148   4.007 -0.1866  0.0904 -0.9021
18161TIP3    H175898   3.326   4.239   3.994  0.2080  0.3461  0.0419
18161TIP3    H275899   3.420   4.132   3.943  1.6997  1.2983  0.7372
18162TIP3   OH275900   4.620   0.131   4.880  0.1423  0.2928 -0.0630
18162TIP3    H175901   4.692   0.112   4.820 -0.9236 -0.6314 -1.0842
18162TIP3    H275902   4.577   0.047   4.894 -1.2744  0.9590 -0.1929
18163TIP3   OH275903   0.426   0.014  13.772  0.1873  0.1715  0.3827
18163TIP3    H175904   0.486  -0.051  13.735  1.6639  2.0699 -0.7951
18163TIP3    H275905   0.422   0.083  13.705 -2.2796  0.7468  1.0345
18164TIP3   OH275906   1.838   4.732  13.372 -0.8225  0.0868 -0.4402
18164TIP3    H175907   1.775   4.729  13.444 -0.6728 -1.1152 -0.3410
18164TIP3    H275908   1.786   4.712  13.294 -0.4836 -1.6361 -0.2715
18165TIP3   OH275909   2.191   3.224   4.856 -0.4248 -0.0569  0.1461
18165TIP3    H175910   2.167   3.309   4.821 -0.6950 -0.4772 -0.7078
18165TIP3    H275911   2.227   3.243   4.943  0.3366  1.0093 -0.3828
18166TIP3   OH275912   6.112   0.614   0.874  0.2844 -0.1075  0.2549
18166TIP3    H175913   6.099   0.633   0.967 -0.5476 -0.2480  0.1696
18166TIP3    H275914   6.073   0.528   0.861 -0.3991  0.2936 -0.4113
18167TIP3   OH275915   6.359   1.665  15.163  0.4703  0.7602  0.2501
18167TIP3    H175916   6.337   1.642  15.253  2.2812 -2.4884  0.0111
18167TIP3    H275917   6.283   1.715  15.132 -0.8280  0.7687  3.1173
18168TIP3   OH275918   5.459   5.798  10.657  0.1050  0.1810 -0.3579
18168TIP3    H175919   5.437   5.715  10.699 -0.9434  1.1542  1.1401
18168TIP3    H275920   5.379   5.824  10.612  0.1429  0.7914 -0.0812
18169TIP3   OH275921   3.847   3.967   1.849 -0.2473 -0.2974  0.1598
18169TIP3    H175922   3.869   3.893   1.792 -0.2308  0.5585 -1.0052
18169TIP3    H275923   3.883   4.043   1.802 -2.3620  0.7261  0.0927
18170TIP3   OH275924   5.373   0.964  13.371  0.0242 -0.4327  0.1843
18170TIP3    H175925   5.445   1.011  13.415 -0.4741 -0.3232  0.9081
18170TIP3    H275926   5.299   1.025  13.375  0.0645 -0.2628 -1.1861
18171TIP3   OH275927   6.361   5.310   4.333 -0.2705  0.3592 -0.2252
18171TIP3    H175928   6.419   5.252   4.384  1.0306 -1.1696 -3.1623
18171TIP3    H275929   6.408   5.394   4.331 -0.5961  0.6235  1.3971
18172TIP3   OH275930   4.498   2.345   5.961 -0.1657 -0.5925  0.4526
18172TIP3    H175931   4.420   2.304   5.923  0.1351  0.3335 -1.2480
18172TIP3    H275932   4.557   2.271   5.980 -0.2991 -1.1046 -0.9935
18173TIP3   OH275933   1.042   2.413   4.538  0.1388  0.0949 -0.6829
18173TIP3    H175934   0.982   2.386   4.467 -1.6693  1.8389  0.0703
18173TIP3    H275935   1.115   2.455   4.493 -0.8154  0.8609 -1.5908
18174TIP3   OH275936   1.906   6.034   1.213 -0.4391 -0.6890  0.1103
18174TIP3    H175937   1.931   6.126   1.206  1.5526 -1.0518  1.5049
18174TIP3    H275938   1.903   6.003   1.122 -1.5364  0.8135 -0.3951
18175TIP3   OH275939   6.577   1.620   3.920 -0.6051  0.3150 -0.0345
18175TIP3    H175940   6.521   1.657   3.988  0.3703  1.8628 -0.0141
18175TIP3    H275941   6.515   1.585   3.855 -1.5539 -1.6793  1.8139
18176TIP3   OH275942   4.090   6.739  16.421  0.5548 -0.0327  0.1910
18176TIP3    H175943   4.113   6.669  16.481  0.5568 -0.6114 -0.4746
18176TIP3    H275944   3.998   6.724  16.401  1.0803 -1.1010 -1.5789
18177TIP3   OH275945   6.734   0.360  11.671 -0.2834 -0.2212  0.7463
18177TIP3    H175946   6.644   0.327  11.666  0.0585 -1.1235 -3.3601
18177TIP3    H275947   6.730   0.447  11.633  0.5330 -0.1806  0.7361
18178TIP3   OH275948   5.518   2.588   2.605 -0.4845  0.0202  0.3939
18178TIP3    H175949   5.525   2.503   2.648 -2.4566 -1.2844 -1.6836
18178TIP3    H275950   5.554   2.574   2.518  0.8502  1.8658  0.5897
18179TIP3   OH275951   2.935   5.114  16.209 -0.2723 -0.0527  0.3826
18179TIP3    H175952   2.954   5.025  16.182 -1.3596 -0.0704 -0.3649
18179TIP3    H275953   2.853   5.136  16.166 -0.4298  1.0363  1.1797
18180TIP3   OH275954   5.865   4.228  14.781 -0.0507 -0.2494  0.2711
18180TIP3    H175955   5.789   4.238  14.723 -0.7528 -2.2647  0.7565
18180TIP3    H275956   5.932   4.188  14.726  0.8342  1.8179 -0.2417
18181TIP3   OH275957   3.350   2.943   3.894 -0.1604 -0.3607  0.1929
18181TIP3    H175958   3.401   2.872   3.855  0.7256 -0.1153  0.8670
18181TIP3    H275959   3.267   2.941   3.847 -0.8137 -2.8961  1.2374
18182TIP3   OH275960   5.467   5.415   2.462 -0.0329  0.4369 -0.4848
18182TIP3    H175961   5.489   5.354   2.532  0.9233  0.1609 -1.0018
18182TIP3    H275962   5.372   5.409   2.452 -0.0399 -0.3412  0.0350
18183TIP3   OH275963   0.785   4.854   3.284  0.3007 -0.3675 -0.2390
18183TIP3    H175964   0.778   4.759   3.278  0.4510 -0.3718 -0.3471
18183TIP3    H275965   0.824   4.870   3.371  0.2807 -0.4045 -0.2234
18184TIP3   OH275966   4.410   1.369  13.400  0.0981 -0.3294 -0.5883
18184TIP3    H175967   4.481   1.434  13.400 -1.0038  0.9173 -0.2974
18184TIP3    H275968   4.438   1.304  13.465 -0.9987  2.5160  3.1134
18185TIP3   OH275969   3.937   1.275   3.268  0.1755 -0.7091  0.3730
18185TIP3    H175970   3.845   1.295   3.250 -0.2119 -2.1588  0.6178
18185TIP3    H275971   3.936   1.234   3.355  0.6652 -3.3339 -0.7932
18186TIP3   OH275972   1.990   3.781   2.940 -0.2677  0.5338 -0.4274
18186TIP3    H175973   1.940   3.712   2.983  1.7406  0.3464  1.7585
18186TIP3    H275974   1.943   3.861   2.962  0.5823  0.4227  2.0425
18187TIP3   OH275975   2.589   0.156   0.814  0.2537  0.1736 -0.2816
18187TIP3    H175976   2.584   0.246   0.780  1.2533  0.8503  1.2605
18187TIP3    H275977   2.563   0.164   0.906  2.6557 -0.6579  0.5541
18188TIP3   OH275978   2.698   4.654  15.670 -0.6397 -0.0905 -0.1902
18188TIP3    H175979   2.678   4.653  15.763  1.2702  2.3451  0.3390
18188TIP3    H275980   2.723   4.563  15.650 -0.8603 -0.6086  1.6744
18189TIP3   OH275981   5.957   1.174   2.211  0.2927  0.2098  0.5557
18189TIP3    H175982   5.905   1.216   2.280 -0.7045 -0.5171  0.2699
18189TIP3    H275983   5.931   1.218   2.131  2.2602  1.8119  0.7326
18190TIP3   OH275984   1.090   1.245   3.004  0.0805  0.2172  0.0591
18190TIP3    H175985   1.098   1.167   3.059  0.4824  0.3323  0.1643
18190TIP3    H275986   1.174   1.252   2.959 -0.1038  0.3510 -0.2729
18191TIP3   OH275987   0.261   2.605   2.237 -0.0953 -0.2577  0.2308
18191TIP3    H175988   0.351   2.633   2.251 -0.2689  0.1336  0.5895
18191TIP3    H275989   0.246   2.619   2.144 -0.1172  0.6939  0.3606
18192TIP3   OH275990   6.177   0.220  13.257  0.5183 -0.4482  0.4023
18192TIP3    H175991   6.205   0.264  13.338 -2.9171  1.4226  0.7919
18192TIP3    H275992   6.123   0.147  13.287  0.0190 -0.3353 -0.1997
18193TIP3   OH275993   6.341   3.408   3.496 -0.2838  0.1239 -0.0665
18193TIP3    H175994   6.336   3.325   3.544 -1.0454 -0.4351 -1.0781
18193TIP3    H275995   6.415   3.453   3.535 -0.0248 -0.9144  0.6971
18194TIP3   OH275996   0.277   4.105  12.742 -0.2266 -0.2528 -0.4452
18194TIP3    H175997   0.367   4.138  12.737 -0.2415 -0.1808 -0.2259
18194TIP3    H275998   0.224   4.182  12.758 -0.3744 -0.2380 -0.9851
18195TIP3   OH275999   2.228   2.188  11.472 -0.7889 -0.1080  0.0700
18195TIP3    H176000   2.179   2.115  11.434 -2.5022  0.8082  0.4269
18195TIP3    H276001   2.168   2.227  11.535 -0.4685  2.4461 -1.0890
18196TIP3   OH276002   1.368   3.605  11.321 -0.1577 -0.4185  1.2457
18196TIP3    H176003   1.431   3.544  11.284  0.4109  0.4816  0.6814
18196TIP3    H276004   1.294   3.603  11.260  0.3780  0.3510  0.5407
18197TIP3   OH276005   2.675   6.250  12.674  0.1610  0.1695  0.3155
18197TIP3    H176006   2.623   6.300  12.737  1.4007  0.0599  1.4858
18197TIP3    H276007   2.624   6.170  12.658 -0.9511  0.9369 -0.1383
18198TIP3   OH276008   2.875   2.150  13.518  0.9437 -0.8068 -0.2933
18198TIP3    H176009   2.896   2.092  13.591  1.0887  1.4535  1.5787
18198TIP3    H276010   2.781   2.166  13.526  0.6984 -1.5642 -1.4452
18199TIP3   OH276011   5.137   2.354  14.579  0.2023 -0.1135 -0.3126
18199TIP3    H176012   5.085   2.305  14.643  0.2215  0.2825  0.0121
18199TIP3    H276013   5.097   2.333  14.495  1.1378 -1.8568 -0.3479
18200TIP3   OH276014   3.487   0.064   0.620 -0.0708 -0.6639 -0.2405
18200TIP3    H176015   3.562   0.072   0.562  0.2239 -0.2539  0.1921
18200TIP3    H276016   3.514   0.108   0.701 -1.1987  0.5966 -0.5009
18201TIP3   OH276017   0.556   0.591   2.524 -0.6954 -0.3293  0.5447
18201TIP3    H176018   0.463   0.602   2.504 -0.5546  0.2559  0.1784
18201TIP3    H276019   0.600   0.652   2.464 -0.0604 -0.8201  0.5028
18202TIP3   OH276020   1.183   3.666   0.141 -0.4822  0.2465 -0.2627
18202TIP3    H176021   1.253   3.703   0.088 -1.2700  0.2397 -1.3266
18202TIP3    H276022   1.222   3.655   0.228  1.1677 -0.7251 -1.0769
18203TIP3   OH276023   5.462   6.557   5.126  0.4165 -0.1161 -0.2700
18203TIP3    H176024   5.504   6.475   5.100  0.6173 -0.3072  0.6126
18203TIP3    H276025   5.395   6.530   5.190 -1.0013  0.1944 -1.5571
18204TIP3   OH276026   1.716   4.025  14.821  0.1239 -0.0420  0.3958
18204TIP3    H176027   1.702   4.118  14.838 -0.1164 -0.4511  2.6398
18204TIP3    H276028   1.809   4.012  14.839 -0.0360 -0.4132  0.9437
18205TIP3   OH276029   0.580   2.139  14.792  0.1082  0.0247 -0.0860
18205TIP3    H176030   0.653   2.179  14.839  0.5464 -1.2257  0.3570
18205TIP3    H276031   0.610   2.132  14.702  0.0540  0.6091 -0.1529
18206TIP3   OH276032   5.323   6.263   3.678 -0.4852 -0.4266  0.6644
18206TIP3    H176033   5.250   6.217   3.637  0.5959 -2.1146  0.5526
18206TIP3    H276034   5.292   6.282   3.767 -1.9758  1.1953 -0.1428
18207TIP3   OH276035   3.458   0.745  15.621 -0.5785 -0.0937 -0.0773
18207TIP3    H176036   3.389   0.690  15.584 -0.7065 -1.0219  1.4774
18207TIP3    H276037   3.456   0.825  15.568 -1.9768 -0.6255 -0.8689
18208TIP3   OH276038   2.717   3.654   1.102 -0.3208  0.3166 -0.4715
18208TIP3    H176039   2.679   3.566   1.110 -0.4213  0.4509  0.7009
18208TIP3    H276040   2.777   3.660   1.176 -0.5431  1.3499 -0.3693
18209TIP3   OH276041   4.957   2.262  14.381 -0.4077 -1.0071  0.2512
18209TIP3    H176042   4.919   2.323  14.319 -0.4376 -0.2985  0.9481
18209TIP3    H276043   4.979   2.184  14.329  0.8131  0.0601 -0.8997
18210TIP3   OH276044   3.143   5.308   2.413 -0.1755  0.3780  0.3707
18210TIP3    H176045   3.133   5.397   2.378  0.8814 -0.6493 -2.8130
18210TIP3    H276046   3.237   5.297   2.422 -0.1806 -0.9678 -0.9362
18211TIP3   OH276047   0.637   3.381  17.210  0.1976 -0.0501 -0.8635
18211TIP3    H176048   0.607   3.315  17.148 -0.7201 -0.1823 -0.3064
18211TIP3    H276049   0.666   3.331  17.286 -0.8882  0.1762 -0.2754
18212TIP3   OH276050   0.318   5.250   3.676  0.5111  0.2542 -0.6446
18212TIP3    H176051   0.377   5.221   3.607  0.7897  3.5319 -2.0012
18212TIP3    H276052   0.376   5.282   3.746  0.4880  2.6882 -1.6240
18213TIP3   OH276053   1.330   0.150   4.618 -0.4738 -0.0845 -0.0990
18213TIP3    H176054   1.417   0.183   4.592 -0.2960 -0.9780 -0.6812
18213TIP3    H276055   1.348   0.082   4.682 -0.8274  0.7354  0.8845
18214TIP3   OH276056   2.589   6.491  17.304 -0.0479  0.3894 -0.1118
18214TIP3    H176057   2.497   6.488  17.279  0.1704 -0.0314 -0.8991
18214TIP3    H276058   2.595   6.565  17.364 -0.8225  0.6870 -0.3891
18215TIP3   OH276059   4.615   5.019   1.620  0.3229  0.4426 -0.0302
18215TIP3    H176060   4.565   4.945   1.585  2.1602 -0.8325 -0.0895
18215TIP3    H276061   4.573   5.096   1.582 -0.2847 -0.6812 -1.7638
18216TIP3   OH276062   5.901   5.887  16.533 -0.6564 -0.1439 -0.4755
18216TIP3    H176063   5.974   5.926  16.484  2.1158 -1.0177  2.6505
18216TIP3    H276064   5.867   5.959  16.586  2.6792 -0.9357  3.2271
18217TIP3   OH276065   5.043   6.737  13.750  0.2419 -0.2134  0.1218
18217TIP3    H176066   5.079   6.732  13.839  0.4616  1.9719  0.2099
18217TIP3    H276067   5.070   6.655  13.709  1.5786 -0.5488  1.5609
18218TIP3   OH276068   5.421   0.788   6.445  0.3909  0.6837  0.1256
18218TIP3    H176069   5.503   0.772   6.491 -0.5789  0.7391  1.9728
18218TIP3    H276070   5.353   0.765   6.509 -1.0482 -0.4755 -1.7348
18219TIP3   OH276071   4.436   6.073   2.247  0.2837 -0.5436  0.1679
18219TIP3    H176072   4.397   6.025   2.173 -1.1495  1.3045 -0.3543
18219TIP3    H276073   4.444   6.163   2.216  2.8512 -0.3466  1.1312
18220TIP3   OH276074   4.375   5.762   4.198 -0.0774  0.6532  0.1239
18220TIP3    H176075   4.418   5.739   4.281  1.1229  0.9152 -0.4082
18220TIP3    H276076   4.283   5.773   4.222  0.1438  0.1280  1.3086
18221TIP3   OH276077   1.367   0.792   6.165  0.0030  0.7092 -0.8569
18221TIP3    H176078   1.426   0.835   6.226  0.3203  0.4628 -0.9902
18221TIP3    H276079   1.291   0.766   6.219 -0.6512  2.3070 -0.9588
18222TIP3   OH276080   2.417   3.503  17.019  0.6981 -0.4898 -0.5577
18222TIP3    H176081   2.334   3.458  17.005  0.5407 -0.0215 -1.2049
18222TIP3    H276082   2.394   3.596  17.020  0.9474 -0.4123  1.2552
18223TIP3   OH276083   3.023   5.583  10.950  0.0562 -0.3422 -0.3543
18223TIP3    H176084   2.967   5.649  10.909 -1.1803 -0.5987  0.8504
18223TIP3    H276085   3.108   5.626  10.958 -0.4865  0.7866 -0.4210
18224TIP3   OH276086   0.914   0.225   4.070  0.2184  0.1287 -0.3665
18224TIP3    H176087   0.968   0.159   4.112  3.3024  2.7823  0.2294
18224TIP3    H276088   0.842   0.239   4.132 -0.3162 -2.2814 -0.3527
18225TIP3   OH276089   6.101   6.256  12.396 -0.1597 -0.0287 -0.2173
18225TIP3    H176090   6.038   6.191  12.427 -0.5366 -0.0073 -0.9098
18225TIP3    H276091   6.050   6.338  12.394  0.2198  0.2308  0.3338
18226TIP3   OH276092   4.373   5.205  14.569 -0.1629  0.3033  0.4346
18226TIP3    H176093   4.388   5.290  14.526  0.8161  1.1771  2.3602
18226TIP3    H276094   4.408   5.141  14.508  1.7286  1.5432  0.1116
18227TIP3   OH276095   5.097   5.986  11.137 -0.0103 -0.2858  0.2428
18227TIP3    H176096   5.013   5.979  11.091 -0.3051  0.7562  0.6107
18227TIP3    H276097   5.076   6.028  11.220  1.1148  1.6731 -0.3950
18228TIP3   OH276098   2.019   4.946   1.783  0.1019  0.6938  0.5561
18228TIP3    H176099   1.987   4.953   1.693  2.9481  1.1677 -0.5109
18228TIP3    H276100   2.034   4.853   1.796 -1.1973  0.5102  0.9382
18229TIP3   OH276101   2.829   5.407  12.414 -0.3291 -0.0875 -0.2788
18229TIP3    H176102   2.847   5.313  12.424 -1.0076 -0.1176  0.9497
18229TIP3    H276103   2.906   5.450  12.453  0.1112 -0.1194 -1.0968
18230TIP3   OH276104   6.323   3.088   2.476 -0.3569 -0.3386 -0.0032
18230TIP3    H176105   6.262   3.161   2.473 -0.6991 -0.6395 -0.7146
18230TIP3    H276106   6.344   3.077   2.569 -1.0243  0.0606  0.1999
18231TIP3   OH276107   2.631   0.306   1.421  0.1200 -0.2670 -0.5743
18231TIP3    H176108   2.549   0.294   1.372  0.2281  0.8052 -1.0422
18231TIP3    H276109   2.644   0.401   1.424  0.3733 -0.3285  1.1394
18232TIP3   OH276110   0.343   3.391  16.367 -0.0182  0.0184 -0.3153
18232TIP3    H176111   0.305   3.442  16.438 -1.1109 -0.8737 -0.2172
18232TIP3    H276112   0.404   3.331  16.410  1.8192  1.6665 -0.5061
18233TIP3   OH276113   2.275   4.996   0.926 -0.2350  0.1575  0.0134
18233TIP3    H176114   2.296   5.089   0.929 -0.3999  0.2461 -1.0410
18233TIP3    H276115   2.267   4.969   1.017 -1.1170  1.3828  0.3097
18234TIP3   OH276116   2.225   3.989  15.174  0.4861 -0.1795 -0.5371
18234TIP3    H176117   2.313   3.952  15.166  1.1349  1.3851 -0.8245
18234TIP3    H276118   2.232   4.052  15.245 -0.3081  0.2391 -0.8235
18235TIP3   OH276119   5.636   0.733   1.200 -0.1028 -0.2462 -0.6232
18235TIP3    H176120   5.711   0.766   1.250  0.1146 -0.9090 -0.5124
18235TIP3    H276121   5.660   0.747   1.108  0.8893 -1.9794 -0.6649
18236TIP3   OH276122   6.593   3.225   1.946 -0.3824  0.7534  0.1592
18236TIP3    H176123   6.543   3.205   2.025 -0.6722  1.4612  0.1671
18236TIP3    H276124   6.665   3.281   1.977  1.3097 -1.4303  0.3760
18237TIP3   OH276125   4.641   1.356  14.695  0.0688  0.1512  0.2551
18237TIP3    H176126   4.613   1.275  14.652 -0.0353  0.4911 -0.3248
18237TIP3    H276127   4.736   1.345  14.708 -0.0722 -0.3882  0.8997
18238TIP3   OH276128   3.539   1.988  13.096  0.0496 -0.4822 -0.0924
18238TIP3    H176129   3.587   2.069  13.079  1.7549 -1.1646  1.1565
18238TIP3    H276130   3.498   2.001  13.181 -1.6227 -0.1156 -0.9027
18239TIP3   OH276131   3.498   3.159  12.695  0.5360 -0.2816  0.4109
18239TIP3    H176132   3.490   3.240  12.745 -1.2008  0.9042 -1.6422
18239TIP3    H276133   3.506   3.188  12.604  1.1456 -2.4088 -0.2629
18240TIP3   OH276134   5.447   2.267   1.835  0.2890 -0.3957  0.0647
18240TIP3    H176135   5.392   2.254   1.912 -0.2260  0.8607 -0.0566
18240TIP3    H276136   5.438   2.360   1.814 -0.2171 -0.8493 -1.9940
18241TIP3   OH276137   3.947   5.104   1.025  0.7071 -0.3718  0.2903
18241TIP3    H176138   3.864   5.086   1.070  0.0234 -1.4431 -1.3136
18241TIP3    H276139   3.977   5.187   1.062 -2.0261  1.0284 -0.3932
18242TIP3   OH276140   6.563   4.538   4.454  0.1394 -0.5562 -0.2574
18242TIP3    H176141   6.618   4.484   4.511  1.1614  0.2119 -0.4835
18242TIP3    H276142   6.473   4.512   4.475  0.5895 -2.0272 -0.0688
18243TIP3   OH276143   5.737   3.846   2.160 -0.0474  0.0285 -0.2662
18243TIP3    H176144   5.788   3.770   2.131 -0.8287 -0.4946 -0.3306
18243TIP3    H276145   5.754   3.913   2.094 -1.8249 -1.1510 -2.0607
18244TIP3   OH276146   1.071   3.958  16.410 -0.4195  0.1526 -0.3203
18244TIP3    H176147   1.024   3.894  16.357  0.2672  1.4567 -2.6105
18244TIP3    H276148   1.005   3.990  16.472 -1.2504 -1.3862 -0.3584
18245TIP3   OH276149   4.205   4.957   0.571  0.4240 -0.6820  0.3863
18245TIP3    H176150   4.190   5.003   0.654 -0.0720 -0.4421  0.1713
18245TIP3    H276151   4.263   4.885   0.594  0.7451 -0.2852  0.8354
18246TIP3   OH276152   3.319   3.277  16.894 -0.7472 -0.2505 -0.1088
18246TIP3    H176153   3.256   3.242  16.831 -0.8300  0.5760 -0.4992
18246TIP3    H276154   3.265   3.305  16.968 -0.5111 -2.6986  1.0691
18247TIP3   OH276155   6.092   0.248  12.097  0.2316 -0.2070 -0.0269
18247TIP3    H176156   6.119   0.241  12.188  0.2520 -1.4897 -0.1143
18247TIP3    H276157   6.005   0.208  12.095 -0.1135  0.5251 -0.4418
18248TIP3   OH276158   1.129   4.060   3.765 -0.3728 -0.0082  0.0178
18248TIP3    H176159   1.090   4.082   3.850 -2.3579 -2.9105 -0.0285
18248TIP3    H276160   1.129   4.143   3.717 -0.7534  1.3612  2.2142
18249TIP3   OH276161   4.783   2.348  13.460  0.1682  0.2467  0.3040
18249TIP3    H176162   4.870   2.315  13.483  0.1154 -0.0707  0.0597
18249TIP3    H276163   4.748   2.283  13.399  0.0056  0.6832 -0.0825
18250TIP3   OH276164   0.971   2.446   3.473 -0.3408 -0.1470 -0.0329
18250TIP3    H176165   0.947   2.356   3.493  1.5704 -0.9565 -1.0976
18250TIP3    H276166   1.036   2.469   3.539  0.7361 -0.3304 -0.9966
18251TIP3   OH276167   3.991   1.369  13.265 -0.1926 -0.1727 -0.1354
18251TIP3    H176168   3.991   1.375  13.169  0.3496 -0.3567 -0.1501
18251TIP3    H276169   3.903   1.396  13.291  0.5668  3.1062 -0.4867
18252TIP3   OH276170   2.330   6.273  15.980  0.2828  0.2465 -0.1712
18252TIP3    H176171   2.362   6.258  16.069  0.7132 -0.5151 -0.4413
18252TIP3    H276172   2.237   6.292  15.991  0.3632  0.3120  0.4533
18253TIP3   OH276173   0.080   3.127  10.766 -0.3688  0.2072  0.3810
18253TIP3    H176174   0.075   3.222  10.782  1.2679  0.0447  2.1655
18253TIP3    H276175   0.005   3.092  10.815  0.2269  0.4254  1.4898
18254TIP3   OH276176   3.555   3.412  14.234 -0.2517 -0.1076  0.0114
18254TIP3    H176177   3.487   3.365  14.283  0.6944  0.5078  1.9882
18254TIP3    H276178   3.525   3.503  14.234 -0.1603 -0.0742 -0.4541
18255TIP3   OH276179   5.201   0.201  14.016  0.2656  0.6283  0.3973
18255TIP3    H176180   5.277   0.231  14.067 -0.0997  2.1595  0.0811
18255TIP3    H276181   5.146   0.156  14.080  0.7559  0.7663  0.9291
18256TIP3   OH276182   0.955   5.432   3.656  0.6750  0.7055  0.0350
18256TIP3    H176183   1.018   5.504   3.658 -0.8967  2.1449  1.5047
18256TIP3    H276184   0.891   5.459   3.590 -0.9907  1.7235  1.9476
18257TIP3   OH276185   0.864   4.565   0.127  0.1875 -0.0643 -0.4295
18257TIP3    H176186   0.894   4.631   0.190  1.1668  1.6501 -2.5413
18257TIP3    H276187   0.842   4.489   0.180  0.6381  1.3827  1.9874
18258TIP3   OH276188   2.627   3.733  13.665  1.1253  0.0056  0.2517
18258TIP3    H176189   2.648   3.777  13.747  1.3091  1.0431 -0.3426
18258TIP3    H276190   2.603   3.803  13.604 -0.5665 -0.8444 -0.1494
18259TIP3   OH276191   5.386   2.241   2.376  0.1652  0.4657  0.1122
18259TIP3    H176192   5.480   2.256   2.372  0.2487 -0.1531 -3.1689
18259TIP3    H276193   5.355   2.297   2.447  2.7227  2.3019 -0.1031
18260TIP3   OH276194   4.903   4.215   1.653  0.2266  0.0202 -0.4359
18260TIP3    H176195   4.939   4.126   1.656 -1.2783 -0.6565 -1.5678
18260TIP3    H276196   4.890   4.233   1.560  2.1586  2.1610 -0.3817
18261TIP3   OH276197   4.633   5.101  16.944 -0.3146 -0.3295 -0.2641
18261TIP3    H176198   4.643   5.160  17.019  1.0745  0.5712 -1.1098
18261TIP3    H276199   4.671   5.018  16.974  0.1667  0.0042  0.0752
18262TIP3   OH276200   4.964   4.472  14.498 -0.0487  0.1929 -0.0599
18262TIP3    H176201   5.046   4.520  14.508 -0.5905  1.1197  0.0499
18262TIP3    H276202   4.990   4.380  14.500  0.7589  0.3788  2.4008
18263TIP3   OH276203   1.127   2.083   0.475  0.2863 -0.1632  0.0017
18263TIP3    H176204   1.220   2.108   0.482 -0.0530  0.8765  1.1086
18263TIP3    H276205   1.081   2.167   0.471 -0.6297 -0.6760 -0.4379
18264TIP3   OH276206   0.385   4.737   0.753 -0.7571 -0.3995  0.1992
18264TIP3    H176207   0.302   4.729   0.800  0.5863  0.1746  2.8310
18264TIP3    H276208   0.383   4.825   0.715 -1.3654 -0.4235  0.1635
18265TIP3   OH276209   5.812   1.499   5.943  0.6414 -0.6354 -0.1308
18265TIP3    H176210   5.902   1.469   5.958  0.7511 -0.0428  0.4799
18265TIP3    H276211   5.799   1.567   6.009 -0.2908 -0.7786 -0.1603
18266TIP3   OH276212   4.937   1.604   2.545 -0.1003 -0.4293  0.2598
18266TIP3    H176213   5.001   1.561   2.602  0.2137  0.4898  0.6150
18266TIP3    H276214   4.864   1.625   2.602  1.0451  2.3433  0.8709
18267TIP3   OH276215   2.949   4.336  14.377  0.0215 -0.2420 -0.2832
18267TIP3    H176216   3.023   4.279  14.397  1.4094  1.6105  0.2444
18267TIP3    H276217   2.908   4.351  14.462  0.3529  0.3829 -0.2211
18268TIP3   OH276218   2.105   4.889   5.043 -1.0078 -0.1939  0.3549
18268TIP3    H176219   2.074   4.881   4.953  0.2758 -0.8754 -0.0488
18268TIP3    H276220   2.053   4.961   5.079 -3.5254 -1.6670 -0.0347
18269TIP3   OH276221   4.212   1.752  11.561  0.3447 -0.0133  0.0068
18269TIP3    H176222   4.293   1.711  11.532 -0.2190 -0.2865 -1.2481
18269TIP3    H276223   4.217   1.842  11.529  0.3199  0.0780  0.2568
18270TIP3   OH276224   2.397   6.614  12.919 -0.0313  0.0431  0.0935
18270TIP3    H176225   2.314   6.585  12.958 -0.3425  1.8090  0.8269
18270TIP3    H276226   2.378   6.624  12.826 -1.4436  2.8754  0.5884
18271TIP3   OH276227   4.777   5.953  15.115 -0.5463  0.1775 -0.2420
18271TIP3    H176228   4.810   5.983  15.031 -3.4593  1.1398 -1.1676
18271TIP3    H276229   4.764   5.859  15.104 -0.0727  0.1429 -0.5317
18272TIP3   OH276230   6.299   3.559  13.264 -0.2779 -0.1720  0.1447
18272TIP3    H176231   6.324   3.627  13.202 -0.8359  0.4877  0.6415
18272TIP3    H276232   6.223   3.594  13.310  0.2980 -0.5347  1.4050
18273TIP3   OH276233   0.785   3.117  14.331  0.2939 -0.4859 -0.3179
18273TIP3    H176234   0.721   3.115  14.401 -0.6023 -0.0927 -1.1018
18273TIP3    H276235   0.747   3.064  14.261  0.4451  0.3868 -1.0895
18274TIP3   OH276236   0.098   2.427  17.061 -0.0480 -0.1129  0.3178
18274TIP3    H176237   0.040   2.352  17.077  0.4328 -0.2984  1.2784
18274TIP3    H276238   0.181   2.402  17.103  0.5520  0.3809 -0.5511
18275TIP3   OH276239   1.347   3.065   6.475 -0.3542 -0.7442 -0.6826
18275TIP3    H176240   1.362   3.003   6.403  1.9329 -0.8885 -0.1661
18275TIP3    H276241   1.432   3.108   6.487 -1.0634  0.2730  1.0351
18276TIP3   OH276242   1.968   5.395   5.042  0.2221 -0.0076  0.1234
18276TIP3    H176243   1.887   5.344   5.051 -0.8528  1.4784 -0.7198
18276TIP3    H276244   1.944   5.483   5.071  2.0805  0.0466  1.6871
18277TIP3   OH276245   3.238   2.669  12.840 -0.7314 -0.2968  0.2423
18277TIP3    H176246   3.313   2.661  12.898 -0.0992 -1.0047 -0.6461
18277TIP3    H276247   3.243   2.758  12.806 -0.6632 -0.1389  0.6504
18278TIP3   OH276248   2.223   5.132  16.434  0.4884  0.3860 -1.0314
18278TIP3    H176249   2.295   5.130  16.498 -0.8290 -1.2916  0.5200
18278TIP3    H276250   2.223   5.045  16.395 -0.6257  0.3996 -1.0832
18279TIP3   OH276251   3.676   4.307  13.795 -0.2342  0.2871  0.2465
18279TIP3    H176252   3.595   4.352  13.773 -1.8900 -1.5723  2.1189
18279TIP3    H276253   3.708   4.351  13.874 -1.2987 -1.0532  1.4737
18280TIP3   OH276254   5.933   6.214   0.381 -0.2217  0.0666 -0.0665
18280TIP3    H176255   5.898   6.137   0.426 -0.6058  0.2791  0.0003
18280TIP3    H276256   5.885   6.216   0.298  0.3554 -0.2227 -0.4146
18281TIP3   OH276257   6.252   0.099   5.871  0.3016  0.2614  0.1591
18281TIP3    H176258   6.273   0.100   5.778 -0.0878  1.0255  0.0745
18281TIP3    H276259   6.280   0.012   5.901 -0.6995 -0.4608 -0.9209
18282TIP3   OH276260   2.226   5.061  13.883 -0.3128 -0.4722  0.0930
18282TIP3    H176261   2.305   5.105  13.915 -0.2096 -1.3933  1.1604
18282TIP3    H276262   2.259   4.995  13.821 -0.3727  0.0925 -0.5545
18283TIP3   OH276263   6.278   5.531  17.301  0.8694 -0.1360  0.5463
18283TIP3    H176264   6.356   5.579  17.329  0.2454  0.7179  0.8775
18283TIP3    H276265   6.278   5.536  17.206  0.9509  0.2891  0.5700
18284TIP3   OH276266   1.277   0.819  12.240  0.4989 -0.4096 -0.4241
18284TIP3    H176267   1.202   0.762  12.224 -0.1027  0.2784 -0.0896
18284TIP3    H276268   1.350   0.759  12.256  0.4792 -1.1237 -2.6198
18285TIP3   OH276269   2.821   2.721  10.811  0.2571 -0.4824  0.0651
18285TIP3    H176270   2.769   2.667  10.752  1.3906 -0.9067 -0.5765
18285TIP3    H276271   2.841   2.663  10.884  0.4006 -0.5353 -0.0151
18286TIP3   OH276272   3.098   6.381  16.453 -0.3091 -0.3011 -0.1448
18286TIP3    H176273   3.110   6.426  16.369 -1.7013  2.1563  0.8371
18286TIP3    H276274   3.003   6.376  16.463 -0.2017  0.5220  1.7456
18287TIP3   OH276275   3.557   0.215   1.639 -0.2226 -0.4373  0.3680
18287TIP3    H176276   3.628   0.198   1.577 -0.3048  0.4087  0.0204
18287TIP3    H276277   3.502   0.281   1.595  0.0641  0.6536  1.5890
18288TIP3   OH276278   4.293   3.275   2.268  0.4627  0.4908  0.4313
18288TIP3    H176279   4.350   3.310   2.200 -1.0227 -0.3401 -1.3003
18288TIP3    H276280   4.205   3.284   2.233 -0.2935 -0.6489  1.9348
18289TIP3   OH276281   0.990   4.172  10.927 -0.0874 -0.1387  0.5372
18289TIP3    H176282   0.982   4.103  10.861  1.2615  0.4431 -0.2817
18289TIP3    H276283   0.990   4.125  11.010 -1.7498 -0.8933  0.1531
18290TIP3   OH276284   0.779   4.916   0.208  0.7868  0.0934  0.4797
18290TIP3    H176285   0.710   4.966   0.251  1.1870  0.7275  0.3899
18290TIP3    H276286   0.856   4.974   0.209  0.8049  0.1399 -1.0920
18291TIP3   OH276287   0.880   6.262  15.547 -0.2714 -0.4067  0.3196
18291TIP3    H176288   0.888   6.278  15.641 -0.6439 -0.6196  0.3929
18291TIP3    H276289   0.904   6.170  15.537  0.3362 -0.2288  0.1237
18292TIP3   OH276290   1.610   0.379   3.027  1.1026 -0.0758 -0.0566
18292TIP3    H176291   1.538   0.344   3.079  1.3584  0.5705  0.7541
18292TIP3    H276292   1.573   0.455   2.982  0.9313 -0.5258 -0.6906
18293TIP3   OH276293   6.396   3.353   4.607 -0.0300  0.8615 -0.3757
18293TIP3    H176294   6.487   3.379   4.594  0.5691 -0.9292 -0.0315
18293TIP3    H276295   6.377   3.377   4.698  0.3871  0.4976 -0.1859
18294TIP3   OH276296   4.191   0.036   0.700 -0.4924 -0.4761 -0.1092
18294TIP3    H176297   4.182   0.027   0.605  0.2041  0.5298 -0.2896
18294TIP3    H276298   4.267  -0.018   0.721  1.3615  1.7396 -0.6404
18295TIP3   OH276299   4.996   3.963   1.715 -0.0857 -0.0968  0.4414
18295TIP3    H176300   5.083   3.922   1.716 -0.4760 -0.9424  0.4161
18295TIP3    H276301   4.935   3.891   1.730 -0.9309  0.1530 -1.5193
18296TIP3   OH276302   4.209   5.859  15.272  0.1800  0.1359  0.4597
18296TIP3    H176303   4.225   5.790  15.209 -1.3103  0.1579  0.0134
18296TIP3    H276304   4.290   5.910  15.274  0.8263 -0.8434 -0.1718
18297TIP3   OH276305   0.917   5.459   5.100  0.1825 -0.2791  0.1331
18297TIP3    H176306   0.927   5.527   5.033 -1.6477  0.3877  0.5018
18297TIP3    H276307   0.971   5.490   5.173 -2.1076  1.8367  1.0486
18298TIP3   OH276308   3.910   1.101  11.284 -0.1200  0.4724  0.2797
18298TIP3    H176309   3.833   1.095  11.341  0.2521  0.7060  0.8191
18298TIP3    H276310   3.877   1.083  11.196 -0.6321 -0.2883  0.6251
18299TIP3   OH276311   4.327   3.973  11.053  0.3673  0.7031 -0.1669
18299TIP3    H176312   4.235   3.946  11.061 -0.3117  2.1973 -2.1130
18299TIP3    H276313   4.377   3.902  11.094 -1.5792 -0.7463 -0.1718
18300TIP3   OH276314   6.339   5.749   3.648  0.2651 -0.5102  0.6258
18300TIP3    H176315   6.339   5.654   3.659 -0.3703 -0.8779 -1.8597
18300TIP3    H276316   6.248   5.775   3.664  0.5697 -0.1875  1.9537
18301TIP3   OH276317   0.829   2.992  10.579  0.6946 -0.0787 -0.3844
18301TIP3    H176318   0.828   2.933  10.503  0.3966 -0.4847 -0.0688
18301TIP3    H276319   0.752   2.967  10.629  1.8910 -1.0882  1.0216
18302TIP3   OH276320   1.811   3.791  13.987 -0.2462 -0.2704 -0.1696
18302TIP3    H176321   1.810   3.770  14.080 -1.4833  1.3972  0.2304
18302TIP3    H276322   1.785   3.883  13.982 -0.8741 -0.5052 -2.2080
18303TIP3   OH276323   0.689   4.280  13.454 -0.2488  0.2890  0.2321
18303TIP3    H176324   0.636   4.358  13.472  0.7593  0.5360  2.4714
18303TIP3    H276325   0.772   4.315  13.420  0.2843  0.2383  1.4433
18304TIP3   OH276326   3.336   5.294  14.270  0.1575  0.1874  0.0461
18304TIP3    H176327   3.325   5.201  14.289  0.3421  0.1541 -0.0102
18304TIP3    H276328   3.289   5.339  14.340 -0.1354  0.0475 -0.0595
18305TIP3   OH276329   1.283   1.899   1.974  0.3242 -0.2729 -0.6096
18305TIP3    H176330   1.371   1.881   1.939  0.9520 -1.6598  1.4837
18305TIP3    H276331   1.224   1.864   1.908  1.3001  1.0430 -2.2553
18306TIP3   OH276332   5.040   0.817   4.181  0.2726  0.3380 -0.4409
18306TIP3    H176333   5.013   0.840   4.092  2.9698 -2.3029 -2.1105
18306TIP3    H276334   5.130   0.849   4.187  0.5028 -0.5206  0.9278
18307TIP3   OH276335   2.942   0.710  14.375  0.2948  0.1574  0.1777
18307TIP3    H176336   3.023   0.731  14.328 -0.3296  0.5319 -0.7568
18307TIP3    H276337   2.947   0.762  14.455  0.4884  1.0183 -0.3790
18308TIP3   OH276338   3.016   5.494   5.250  0.3466  0.0641  0.5482
18308TIP3    H176339   3.074   5.463   5.180 -1.0263  0.8198 -1.0124
18308TIP3    H276340   3.064   5.568   5.289  0.2275  1.1059 -1.1535
18309TIP3   OH276341   1.283   1.830   2.615  0.1173  0.0838 -0.0536
18309TIP3    H176342   1.374   1.814   2.587 -0.5642 -0.3729 -2.2382
18309TIP3    H276343   1.285   1.917   2.654  1.3122  0.5883 -1.1582
18310TIP3   OH276344   0.937   5.753  13.274 -0.4316 -0.3977 -0.0835
18310TIP3    H176345   0.992   5.687  13.230  0.3344 -0.1516  0.4777
18310TIP3    H276346   0.851   5.712  13.281 -0.0136 -1.2663  0.0851
18311TIP3   OH276347   6.400   0.253   3.760 -0.3062 -0.0257  0.0436
18311TIP3    H176348   6.490   0.220   3.752 -0.9721 -1.6019 -2.0504
18311TIP3    H276349   6.399   0.333   3.709 -0.1063 -0.0625 -0.0198
18312TIP3   OH276350   4.817   1.976   5.079 -0.3878 -0.5147 -0.2067
18312TIP3    H176351   4.771   2.058   5.099  1.0610  0.1411  0.5605
18312TIP3    H276352   4.837   1.939   5.165  1.2831 -0.3189 -0.4728
18313TIP3   OH276353   5.788   3.181   3.206  0.3086 -0.4307  0.3814
18313TIP3    H176354   5.701   3.174   3.165  0.6534  0.0994 -0.4736
18313TIP3    H276355   5.788   3.269   3.246  0.8433  0.0310 -0.5965
18314TIP3   OH276356   6.241   1.848  12.662  0.1209  0.1547 -0.2512
18314TIP3    H176357   6.168   1.797  12.698 -1.5688  1.9175 -0.9821
18314TIP3    H276358   6.244   1.822  12.570  0.2605  0.2512 -0.2732
18315TIP3   OH276359   4.543   1.384   2.475  0.4477  0.5891  0.6353
18315TIP3    H176360   4.619   1.386   2.533  0.7519 -1.1683  0.3472
18315TIP3    H276361   4.479   1.330   2.522  0.7135 -0.9094 -0.6326
18316TIP3   OH276362   4.851   3.306   1.013  0.3207 -1.1368 -0.4138
18316TIP3    H176363   4.827   3.271   0.928  0.6390  0.0774 -1.0161
18316TIP3    H276364   4.859   3.228   1.069 -0.3216 -1.9112 -1.3622
18317TIP3   OH276365   0.999   5.068   0.169  0.3923  0.1701  0.5554
18317TIP3    H176366   0.996   5.162   0.188  3.2786  0.2397  1.0344
18317TIP3    H276367   1.042   5.062   0.084  0.7648 -0.7298  0.7963
18318TIP3   OH276368   3.011   0.674   5.875  0.1216  0.4480 -0.6649
18318TIP3    H176369   2.979   0.692   5.964 -0.5478  3.2930 -1.3953
18318TIP3    H276370   3.051   0.756   5.847  0.1384 -0.3318 -3.1068
18319TIP3   OH276371   2.435   2.256   4.583  0.1623  0.3018 -0.2524
18319TIP3    H176372   2.439   2.329   4.520 -1.1100 -0.2071 -0.9495
18319TIP3    H276373   2.513   2.204   4.563  1.6187  1.9317  0.8823
18320TIP3   OH276374   6.224   0.582   4.228 -0.3674 -0.6341  0.1552
18320TIP3    H176375   6.136   0.611   4.203 -0.8727 -0.6854  1.8144
18320TIP3    H276376   6.259   0.545   4.147 -1.1985  0.9321 -1.0108
18321TIP3   OH276377   0.765   6.552   3.437 -0.2411  0.4440 -0.1291
18321TIP3    H176378   0.796   6.592   3.356 -0.3058 -0.9405 -0.8793
18321TIP3    H276379   0.671   6.538   3.423 -0.0413 -0.8520 -0.3058
18322TIP3   OH276380   5.409   2.994   0.769 -0.1313  0.4898 -0.5850
18322TIP3    H176381   5.463   2.917   0.754 -0.6336 -0.5570  2.2805
18322TIP3    H276382   5.337   2.986   0.707 -1.3819 -2.6653  1.0306
18323TIP3   OH276383   6.533   3.382   2.939 -0.8917  0.3723 -0.2412
18323TIP3    H176384   6.464   3.343   2.993  0.1327  1.1199  1.7004
18323TIP3    H276385   6.608   3.391   2.998  1.1793 -1.1226 -2.4670
18324TIP3   OH276386   1.793   0.908  13.649  0.9085 -0.2587 -0.1648
18324TIP3    H176387   1.826   0.821  13.671 -0.1114 -0.1184  2.2106
18324TIP3    H276388   1.849   0.968  13.698 -0.3598  0.2130  0.7431
18325TIP3   OH276389   3.090   2.027   6.177 -0.6651 -0.5081  0.0620
18325TIP3    H176390   3.111   2.107   6.130  0.7081  0.3147  1.9290
18325TIP3    H276391   2.998   2.035   6.200 -0.4422  0.7606  0.5709
18326TIP3   OH276392   5.045   1.208  12.679  0.6025 -0.5807 -0.3943
18326TIP3    H176393   4.970   1.213  12.620 -0.9010 -0.4757  1.4092
18326TIP3    H276394   5.016   1.149  12.749  1.8876  0.0849  0.7538
18327TIP3   OH276395   5.175   1.386  17.078 -0.4529  0.2524 -0.6311
18327TIP3    H176396   5.231   1.408  17.152 -2.0992 -0.9985  1.0909
18327TIP3    H276397   5.144   1.471  17.046  0.2695  0.8258  0.1332
18328TIP3   OH276398   3.191   0.774  14.641  0.6398 -0.0400 -0.8657
18328TIP3    H176399   3.146   0.853  14.610  0.5216  0.1152 -0.3257
18328TIP3    H276400   3.260   0.759  14.577  0.5036  0.3581 -1.1142
18329TIP3   OH276401   6.459   2.968  14.150  0.1671  0.0746  0.3365
18329TIP3    H176402   6.393   3.035  14.132  1.4533  0.7241 -2.5943
18329TIP3    H276403   6.537   3.018  14.175  0.7032 -0.3743 -0.3769
18330TIP3   OH276404   1.062   5.126  15.716 -0.8851 -0.2110  0.2327
18330TIP3    H176405   1.098   5.211  15.741  0.8358 -0.5988 -0.7558
18330TIP3    H276406   1.121   5.062  15.755  0.9648 -0.8501 -3.2350
18331TIP3   OH276407   2.049   0.028  13.469  0.1173 -0.4212 -0.4804
18331TIP3    H176408   1.972   0.009  13.522  1.0434 -1.7470  0.4641
18331TIP3    H276409   2.070   0.119  13.488  0.6720 -0.9743  1.8269
18332TIP3   OH276410   6.617   6.562   3.527 -0.0832 -0.1485  0.3730
18332TIP3    H176411   6.712   6.550   3.533  0.1940  2.1369  1.8221
18332TIP3    H276412   6.581   6.507   3.597  0.1119 -1.1603 -0.2952
18333TIP3   OH276413   5.884   2.490  14.423  0.2405 -0.4837  0.3060
18333TIP3    H176414   5.881   2.536  14.507 -1.6286 -0.5678  0.3250
18333TIP3    H276415   5.941   2.543  14.368  1.5544 -0.4605  1.6255
18334TIP3   OH276416   3.054   2.033  14.541 -0.3746  0.6183 -0.3460
18334TIP3    H176417   3.116   1.966  14.512  0.0794  0.3207  1.2213
18334TIP3    H276418   3.108   2.107  14.566 -0.7911  1.0946 -0.8428
18335TIP3   OH276419   4.450   2.605  12.295 -0.3285  0.1055 -0.5978
18335TIP3    H176420   4.541   2.631  12.280 -0.0979  0.0971  0.6734
18335TIP3    H276421   4.409   2.683  12.333 -0.7688 -0.0068 -0.8386
18336TIP3   OH276422   3.107   2.733   2.557 -0.0252 -0.0875  0.2132
18336TIP3    H176423   3.196   2.770   2.557 -0.7882  1.9207  1.3439
18336TIP3    H276424   3.109   2.665   2.624  0.5822  0.2168  0.5180
18337TIP3   OH276425   6.215   0.193   6.126 -0.2941  0.7175  0.1072
18337TIP3    H176426   6.268   0.119   6.157  0.6460  1.8600  1.3615
18337TIP3    H276427   6.209   0.180   6.032  1.2627 -0.0964  0.0802
18338TIP3   OH276428   1.220   1.555   3.057  0.0855 -0.2744  0.3169
18338TIP3    H176429   1.261   1.474   3.086 -0.6600 -0.4750  0.8407
18338TIP3    H276430   1.211   1.607   3.137  2.3378  1.1677 -0.2908
18339TIP3   OH276431   1.264   3.041  14.260 -0.1325 -0.3716 -0.2253
18339TIP3    H176432   1.277   3.094  14.182 -0.2725  0.8840  0.5861
18339TIP3    H276433   1.256   2.951  14.226  1.8593 -0.1435 -1.4853
18340TIP3   OH276434   0.959   2.561  12.723 -0.1137 -0.2155  0.8967
18340TIP3    H176435   0.888   2.520  12.674  0.8650  0.0309 -0.8033
18340TIP3    H276436   0.934   2.653  12.728  0.0288 -0.1486  0.3955
18341TIP3   OH276437   1.422   1.477  11.624 -0.2851 -0.8798 -0.1410
18341TIP3    H176438   1.369   1.555  11.639 -2.2439 -2.2469  0.4269
18341TIP3    H276439   1.410   1.424  11.703  2.7619 -0.8711  0.4684
18342TIP3   OH276440   5.136   1.133   5.092  0.0691  0.7891  0.0901
18342TIP3    H176441   5.200   1.104   5.156  2.0849  2.3122 -1.1074
18342TIP3    H276442   5.186   1.142   5.010 -1.6574  2.0649 -0.9071
18343TIP3   OH276443   4.092   2.301   1.250 -0.1661 -0.2387 -0.3064
18343TIP3    H176444   4.042   2.316   1.170  1.0290  0.9610 -0.8689
18343TIP3    H276445   4.182   2.285   1.220  0.3456  0.4477  0.7887
18344TIP3   OH276446   4.044   0.623   4.795  0.1083  0.6293 -0.1980
18344TIP3    H176447   4.083   0.651   4.711 -0.3738 -0.0021 -0.6405
18344TIP3    H276448   4.119   0.606   4.851  0.4326  1.6110 -0.3118
18345TIP3   OH276449   0.608   2.284  16.113  0.1337  0.4874 -0.2112
18345TIP3    H176450   0.611   2.353  16.047  0.6102  0.9687  0.3016
18345TIP3    H276451   0.527   2.237  16.095 -2.2060  3.3991  1.6423
18346TIP3   OH276452   1.741   3.167  14.514  0.2855 -0.0649 -0.2861
18346TIP3    H176453   1.799   3.219  14.571 -0.4061  0.3651  0.0317
18346TIP3    H276454   1.750   3.207  14.428 -0.1101  0.4839 -0.0796
18347TIP3   OH276455   1.421   4.620  13.363 -0.3924 -0.4426 -0.3987
18347TIP3    H176456   1.467   4.540  13.388 -1.2817 -0.7692  0.2867
18347TIP3    H276457   1.416   4.617  13.268  0.3327 -0.7661 -0.4340
18348TIP3   OH276458   1.474   1.975  12.559  0.2194  0.1595 -0.3388
18348TIP3    H176459   1.434   1.893  12.529 -1.5252  1.2967 -1.3378
18348TIP3    H276460   1.568   1.962  12.545  0.0477 -1.8300  0.0101
18349TIP3   OH276461   6.373   5.600   2.665  0.1440 -0.0868 -0.2133
18349TIP3    H176462   6.279   5.609   2.648 -0.4586  0.9990  3.0188
18349TIP3    H276463   6.414   5.665   2.608 -1.2152  0.4603 -0.6094
18350TIP3   OH276464   3.534   5.404  12.421  0.2558 -0.5145 -0.5873
18350TIP3    H176465   3.558   5.313  12.433  1.4385 -0.1854 -0.2824
18350TIP3    H276466   3.520   5.438  12.509  1.1463 -0.0751 -0.6028
18351TIP3   OH276467   6.516   4.484  11.171  0.3001  0.2337 -0.0371
18351TIP3    H176468   6.542   4.573  11.148 -0.4306  0.0510 -1.6844
18351TIP3    H276469   6.517   4.436  11.089 -2.7000 -0.4015  0.1837
18352TIP3   OH276470   4.966   3.983   4.764  0.0082  0.4148  0.4799
18352TIP3    H176471   4.891   3.993   4.823 -0.3099  2.5186 -0.2191
18352TIP3    H276472   4.927   3.955   4.681  0.1629  0.0677  0.5239
18353TIP3   OH276473   2.462   4.542  16.141 -0.2380 -0.3372 -0.3320
18353TIP3    H176474   2.406   4.588  16.203  1.4659  1.1466  0.2150
18353TIP3    H276475   2.474   4.604  16.070 -1.2092 -1.5750 -1.6413
18354TIP3   OH276476   1.240   6.680   3.232 -0.4483 -0.2293  0.0372
18354TIP3    H176477   1.202   6.740   3.296 -3.1660  0.2467 -1.8752
18354TIP3    H276478   1.212   6.594   3.261  4.2196 -1.0345  3.3207
18355TIP3   OH276479   1.904   6.552   5.496  0.2869  0.1975  0.0582
18355TIP3    H176480   1.812   6.573   5.476  0.8991  1.8063 -1.3223
18355TIP3    H276481   1.931   6.619   5.558  0.7181  0.1197 -0.0427
18356TIP3   OH276482   1.354   3.662  13.686  0.3316 -0.5353 -0.0094
18356TIP3    H176483   1.297   3.659  13.608  0.7405 -1.1470 -0.2968
18356TIP3    H276484   1.304   3.616  13.754  0.9589 -2.2030 -0.6106
18357TIP3   OH276485   1.818   6.500   6.284 -0.1581 -0.0904  0.6451
18357TIP3    H176486   1.804   6.464   6.372 -1.2751  0.7062  0.8143
18357TIP3    H276487   1.742   6.555   6.268  0.5626  0.6518 -0.3896
18358TIP3   OH276488   5.781   0.543  15.776 -0.0480 -0.1496 -0.4111
18358TIP3    H176489   5.748   0.454  15.777 -0.5871 -0.0291 -2.5841
18358TIP3    H276490   5.703   0.598  15.778  0.2746  0.2994  0.7668
18359TIP3   OH276491   6.155   6.332   2.540 -0.4695 -0.2161  0.3373
18359TIP3    H176492   6.174   6.407   2.596 -1.9492  0.9427 -0.6133
18359TIP3    H276493   6.188   6.257   2.588  2.6249  1.1592  0.5661
18360TIP3   OH276494   4.618   3.156  14.182  0.2517 -0.0380  0.4972
18360TIP3    H176495   4.560   3.228  14.160  0.9147  0.6732  1.0122
18360TIP3    H276496   4.675   3.146  14.105  0.4994  0.3431  0.6273
18361TIP3   OH276497   1.941   4.821  16.618 -0.1943 -0.7908 -0.6482
18361TIP3    H176498   1.853   4.839  16.652  0.1042 -0.2491 -0.1530
18361TIP3    H276499   1.977   4.907  16.598  0.6566 -0.9269  0.2446
18362TIP3   OH276500   5.960   5.329   2.780 -0.0448 -0.1958  0.1047
18362TIP3    H176501   5.940   5.333   2.687  0.2361 -0.2315  0.0447
18362TIP3    H276502   5.938   5.239   2.805 -2.9602  0.5729  0.7073
18363TIP3   OH276503   1.771   5.160   2.073  0.4749  0.3136  0.1646
18363TIP3    H176504   1.763   5.230   2.138  2.2627 -2.0160  3.1160
18363TIP3    H276505   1.728   5.085   2.113  1.0725 -1.0771 -1.6511
18364TIP3   OH276506   0.096   0.849   5.931 -0.0340  0.7244 -0.0961
18364TIP3    H176507   0.030   0.915   5.951  1.4325  1.3920  3.3673
18364TIP3    H276508   0.062   0.769   5.971  0.2373  0.5098 -0.2919
18365TIP3   OH276509   5.063   0.072  14.558  0.0853  0.2675 -0.7324
18365TIP3    H176510   4.991   0.130  14.584 -1.0396 -0.3952 -2.2202
18365TIP3    H276511   5.082   0.021  14.636 -2.4900 -0.9752 -0.8233
18366TIP3   OH276512   4.396   4.315  16.584 -0.8792 -0.3617  0.2641
18366TIP3    H176513   4.328   4.262  16.626 -0.1888  1.0892  3.5431
18366TIP3    H276514   4.429   4.261  16.513 -3.5623 -2.2174  0.3119
18367TIP3   OH276515   6.376   5.461   1.083 -0.5760  0.4892 -0.4761
18367TIP3    H176516   6.340   5.536   1.035 -0.7422  1.4735  1.1124
18367TIP3    H276517   6.301   5.426   1.131  0.0531  1.0310  0.9382
18368TIP3   OH276518   3.348   0.437  11.568  0.0577  0.6496 -0.3662
18368TIP3    H176519   3.322   0.509  11.510 -1.3366 -0.9323 -1.8245
18368TIP3    H276520   3.288   0.365  11.546  0.5445 -0.5704  1.9295
18369TIP3   OH276521   4.520   2.580   6.942 -0.0080  0.3397 -0.4400
18369TIP3    H176522   4.509   2.629   6.860 -1.0611  0.4800 -0.2262
18369TIP3    H276523   4.604   2.535   6.931  0.3435  1.1370 -1.1861
18370TIP3   OH276524   4.607   4.536  14.075  0.1212 -0.0766 -0.2960
18370TIP3    H176525   4.538   4.542  14.009 -0.8000 -1.7059  0.4683
18370TIP3    H276526   4.564   4.562  14.156  0.8220  0.3339 -0.0487
18371TIP3   OH276527   4.577   3.799   1.612  0.0365 -0.1997 -0.7664
18371TIP3    H176528   4.525   3.878   1.593 -2.7685 -1.6451  0.2751
18371TIP3    H276529   4.578   3.794   1.708  1.0504 -0.9153 -0.8020
18372TIP3   OH276530   1.859   5.857   1.920  0.0463 -0.1583 -0.1492
18372TIP3    H176531   1.926   5.815   1.974 -2.0266 -0.7638  2.1070
18372TIP3    H276532   1.805   5.784   1.889 -0.6629  0.4732 -0.4016
18373TIP3   OH276533   1.783   4.072  14.199 -0.0805 -0.3079  0.5037
18373TIP3    H176534   1.734   4.052  14.119  0.6421 -1.2576  0.2844
18373TIP3    H276535   1.804   4.165  14.192 -1.5534  0.0425  0.4516
18374TIP3   OH276536   6.716   5.601   0.465 -0.1782  0.1329 -0.0347
18374TIP3    H176537   6.751   5.513   0.447  1.1695  0.8366 -1.0200
18374TIP3    H276538   6.681   5.595   0.554 -3.4414 -2.3963 -1.2486
18375TIP3   OH276539   5.996   5.107   3.244 -0.0472 -0.2507  0.0959
18375TIP3    H176540   5.913   5.124   3.200 -0.9343 -1.9158  1.0343
18375TIP3    H276541   6.055   5.079   3.174 -0.4771  0.2597 -0.4801
18376TIP3   OH276542   3.370   5.693  13.600 -0.0906  1.2017 -1.0865
18376TIP3    H176543   3.371   5.686  13.505  2.4218 -1.7875 -0.9894
18376TIP3    H276544   3.410   5.612  13.631 -2.0760  1.4254  2.6150
18377TIP3   OH276545   1.256   0.965  11.448  0.2961  0.2622 -0.3974
18377TIP3    H176546   1.305   0.926  11.375 -0.0777 -0.4817 -0.2583
18377TIP3    H276547   1.233   0.891  11.504  0.1636  0.7726  0.2303
18378TIP3   OH276548   1.126   3.097   1.029 -0.4882  0.1107  0.5831
18378TIP3    H176549   1.047   3.139   1.062  0.0702  0.8775  0.9594
18378TIP3    H276550   1.163   3.159   0.967 -0.5182 -0.5214 -0.0761
18379TIP3   OH276551   1.536   5.858   4.337 -0.3369  0.2025  0.1225
18379TIP3    H176552   1.607   5.794   4.341 -3.1286 -3.2676 -0.3122
18379TIP3    H276553   1.489   5.846   4.419 -1.4176  1.0930 -0.3471
18380TIP3   OH276554   3.674   1.710   2.347  0.3288  0.5410 -0.0222
18380TIP3    H176555   3.657   1.803   2.331 -2.3287 -0.0651 -1.3643
18380TIP3    H276556   3.588   1.668   2.337  1.3923 -2.0430  0.8066
18381TIP3   OH276557   1.571   3.545  16.795  0.4135  0.4237  0.5702
18381TIP3    H176558   1.573   3.594  16.713  1.1267  0.7917  0.7942
18381TIP3    H276559   1.648   3.489  16.790  0.3496  0.3070  0.9062
18382TIP3   OH276560   0.222   5.146  12.328  0.8150 -0.1683  0.0444
18382TIP3    H176561   0.150   5.194  12.287  0.5660 -1.1328 -0.6859
18382TIP3    H276562   0.301   5.182  12.289  0.6487 -0.1106 -0.2400
18383TIP3   OH276563   0.290   2.557  14.959 -0.5702  0.0276 -0.8285
18383TIP3    H176564   0.347   2.553  15.036 -2.8419  1.4579  1.0550
18383TIP3    H276565   0.349   2.543  14.885  2.2087  1.2759  0.9764
18384TIP3   OH276566   0.470   0.679  14.099 -0.1251  0.6330  0.2210
18384TIP3    H176567   0.434   0.741  14.162  0.3676  0.8970  0.2499
18384TIP3    H276568   0.561   0.666  14.126 -0.8008 -1.9227  1.6453
18385TIP3   OH276569   0.038   0.168   3.734 -0.4085  0.1497 -0.3515
18385TIP3    H176570  -0.028   0.103   3.758 -0.0657 -0.2012 -0.3495
18385TIP3    H276571   0.009   0.248   3.777 -1.0791  0.1131 -0.7212
18386TIP3   OH276572   2.138   3.773  12.590  0.0416 -0.1310  0.0841
18386TIP3    H176573   2.213   3.819  12.551  0.2823  0.1173  0.8232
18386TIP3    H276574   2.158   3.771  12.684 -1.4705  1.0684  0.4749
18387TIP3   OH276575   1.507   2.343  13.093  0.1030 -0.2880 -0.7824
18387TIP3    H176576   1.479   2.315  13.180 -0.0664  0.0424 -0.7288
18387TIP3    H276577   1.466   2.281  13.033 -1.3870  0.6211 -0.7690
18388TIP3   OH276578   5.801   0.924   2.185  0.6486  0.3977  0.2067
18388TIP3    H176579   5.705   0.922   2.191  0.7036  1.0798  2.2906
18388TIP3    H276580   5.821   1.014   2.158  0.6976  0.4738  0.4858
18389TIP3   OH276581   0.797   4.941   4.638  0.0520  0.7189  0.3016
18389TIP3    H176582   0.855   5.008   4.674 -0.8834  0.9404  1.4624
18389TIP3    H276583   0.741   4.987   4.575 -0.7099  1.0951  1.2284
18390TIP3   OH276584   0.112   1.713  11.922 -0.4102 -0.2890 -0.2908
18390TIP3    H176585   0.129   1.770  11.847 -1.6177  0.2452 -0.1793
18390TIP3    H276586   0.057   1.766  11.980  1.6927 -0.1431  1.6832
18391TIP3   OH276587   3.712   6.333   1.278  1.2640  0.2039  0.0519
18391TIP3    H176588   3.735   6.419   1.244  0.3278  0.1463 -0.7631
18391TIP3    H276589   3.765   6.272   1.226  0.9363  0.2117 -0.2969
18392TIP3   OH276590   3.867   3.595   5.239  0.1003 -0.7565 -0.0797
18392TIP3    H176591   3.932   3.552   5.295 -0.5668 -2.7841 -0.7642
18392TIP3    H276592   3.916   3.662   5.192  1.1747 -0.6394  1.1484
18393TIP3   OH276593   4.465   5.704   0.309 -0.7377 -0.6351 -0.0853
18393TIP3    H176594   4.542   5.653   0.281 -1.6974 -1.3348 -1.6005
18393TIP3    H276595   4.426   5.652   0.379 -1.4251 -1.7910 -1.2779
18394TIP3   OH276596   0.503   1.270   1.235 -0.0810  0.2571  0.0185
18394TIP3    H176597   0.578   1.327   1.217  0.1597  0.5343  1.7555
18394TIP3    H276598   0.474   1.296   1.322 -1.4821 -0.6520 -0.1570
18395TIP3   OH276599   2.049   5.923   6.045 -0.1915  0.0922  0.2536
18395TIP3    H176600   1.957   5.898   6.045 -0.0069 -0.6648 -0.8622
18395TIP3    H276601   2.080   5.904   6.133 -1.1193  0.4292  0.6581
18396TIP3   OH276602   2.846   1.706   4.019 -0.3873 -0.1228  0.0819
18396TIP3    H176603   2.861   1.750   4.102 -1.5903  0.7524 -0.1460
18396TIP3    H276604   2.876   1.616   4.034 -0.0354  0.1748  1.2607
18397TIP3   OH276605   6.685   1.282   3.272  0.2309  0.1115 -0.0047
18397TIP3    H176606   6.769   1.266   3.231  0.5429 -1.3080  1.1031
18397TIP3    H276607   6.677   1.377   3.276  2.2543  0.2870  0.7873
18398TIP3   OH276608   6.066   2.517   2.336  0.1862 -0.0440 -0.1860
18398TIP3    H176609   6.117   2.503   2.256  0.6574 -1.7209  0.3769
18398TIP3    H276610   6.131   2.533   2.404 -0.0870 -0.9024  0.2916
18399TIP3   OH276611   6.760   1.099  13.951  0.5364  0.0124  0.1278
18399TIP3    H176612   6.835   1.055  13.992  1.0118  0.1679 -0.5601
18399TIP3    H276613   6.690   1.093  14.017  1.0825 -0.3276  0.6905
18400TIP3   OH276614   1.933   2.905   4.475 -0.7098  0.5085 -0.0934
18400TIP3    H176615   1.912   2.897   4.568 -0.1005  1.4463  0.1374
18400TIP3    H276616   2.002   2.971   4.471 -1.3126  1.1098 -1.2954
18401TIP3   OH276617   3.598   0.339  12.939  0.4165 -0.1988 -0.5685
18401TIP3    H176618   3.564   0.250  12.954 -1.1174  0.4464  0.0081
18401TIP3    H276619   3.562   0.365  12.854 -0.6880  0.5328  0.0963
18402TIP3   OH276620   5.086   1.596   0.136 -0.2439  0.9573  0.2093
18402TIP3    H176621   5.138   1.657   0.084 -1.0644  1.0135 -0.5780
18402TIP3    H276622   5.055   1.647   0.210  1.5043  0.7018  1.1734
18403TIP3   OH276623   2.264   2.576  15.174  0.3531 -0.1340  0.5144
18403TIP3    H176624   2.207   2.631  15.121 -0.4201  0.8405  2.2909
18403TIP3    H276625   2.222   2.490  15.173 -0.0312  0.0546  0.1546
18404TIP3   OH276626   6.435   5.511  12.048 -0.0036  0.2532 -0.2179
18404TIP3    H176627   6.441   5.606  12.058  0.6623  0.1381  0.5934
18404TIP3    H276628   6.525   5.483  12.032 -0.5641  0.0838 -3.9486
18405TIP3   OH276629   0.007   6.334  15.693  0.2559  0.1797  0.0954
18405TIP3    H176630  -0.021   6.310  15.604 -0.0790  2.1918 -0.3856
18405TIP3    H276631   0.037   6.424  15.685 -0.0712  0.5035  2.0935
18406TIP3   OH276632   1.750   6.523  16.298 -0.0129  0.3342 -0.1469
18406TIP3    H176633   1.839   6.495  16.278  0.8629  3.3524 -1.0908
18406TIP3    H276634   1.752   6.618  16.284 -3.2138  0.5941  0.5055
18407TIP3   OH276635   4.796   5.039  15.836 -0.1020 -0.2221 -0.4727
18407TIP3    H176636   4.863   4.991  15.787 -0.4583 -1.6874  0.4058
18407TIP3    H276637   4.845   5.093  15.898  0.3115  0.7746 -1.6276
18408TIP3   OH276638   1.401   2.197  16.801 -1.0471  0.6965  0.4395
18408TIP3    H176639   1.494   2.186  16.778 -0.5730  2.4194  1.3317
18408TIP3    H276640   1.358   2.120  16.764  0.6678  0.0675 -0.3754
18409TIP3   OH276641   6.376   4.445  13.098 -0.2358  0.2742 -0.8141
18409TIP3    H176642   6.391   4.451  13.003  0.6490  4.4843 -0.6308
18409TIP3    H276643   6.462   4.423  13.135  0.3219  2.0266 -0.9337
18410TIP3   OH276644   4.645   3.405   2.428  0.4199 -0.0009  0.2423
18410TIP3    H176645   4.595   3.377   2.505  1.4126  1.6553  1.5598
18410TIP3    H276646   4.601   3.363   2.354 -1.5657 -0.3416  1.5502
18411TIP3   OH276647   1.100   2.877   0.220  0.3308 -0.1738 -0.9419
18411TIP3    H176648   1.069   2.833   0.299 -0.0726 -0.0480 -1.0313
18411TIP3    H276649   1.026   2.873   0.160  0.6833 -0.3882 -1.3644
18412TIP3   OH276650   1.367   6.722   3.633 -0.3014 -0.1199 -0.0189
18412TIP3    H176651   1.350   6.628   3.628 -2.2706  0.2359 -0.5359
18412TIP3    H276652   1.297   6.756   3.688  0.0442  1.1416 -0.3363
18413TIP3   OH276653   1.355   1.639   5.288  0.4969 -0.2843  0.4493
18413TIP3    H176654   1.367   1.731   5.311  0.0724  0.0072 -0.4426
18413TIP3    H276655   1.440   1.612   5.252  1.0833 -0.6730  2.0402
18414TIP3   OH276656   2.061   0.900   4.023 -0.6924  0.2402  0.0496
18414TIP3    H176657   2.031   0.836   3.959 -0.1185  0.0872 -0.0754
18414TIP3    H276658   2.157   0.895   4.019 -0.6395  1.0216  0.1165
18415TIP3   OH276659   3.540   0.305   4.044  0.1209 -0.6775  0.3990
18415TIP3    H176660   3.459   0.262   4.016 -0.3560  0.3315  0.1649
18415TIP3    H276661   3.515   0.397   4.055  0.8911 -0.6071  1.7555
18416TIP3   OH276662   6.356   0.685  11.192 -0.5068  0.1294  0.5880
18416TIP3    H176663   6.411   0.706  11.268 -1.8066 -0.7653  1.8441
18416TIP3    H276664   6.274   0.732  11.208 -1.4756 -1.5118  0.7287
18417TIP3   OH276665   3.470   3.829   3.013 -0.4868 -0.1109 -0.2389
18417TIP3    H176666   3.498   3.817   2.923 -1.8145  0.3147 -0.7334
18417TIP3    H276667   3.449   3.922   3.020 -1.9329 -0.4193  0.0200
18418TIP3   OH276668   1.108   6.727   5.570 -0.0198  0.4689  0.4686
18418TIP3    H176669   1.151   6.759   5.491  2.0508 -0.3302  1.1855
18418TIP3    H276670   1.045   6.795   5.592 -0.1190  1.0593 -1.4342
18419TIP3   OH276671   1.492   1.795   3.188  0.2705  0.5428  0.1770
18419TIP3    H176672   1.563   1.817   3.128  0.5714  2.0517  1.0325
18419TIP3    H276673   1.484   1.700   3.182  1.5585  0.4690 -0.8159
18420TIP3   OH276674   3.815   2.687  13.372 -0.3201 -0.0032  0.3285
18420TIP3    H176675   3.837   2.614  13.429  1.9852  1.1527  1.0221
18420TIP3    H276676   3.855   2.665  13.288  2.4208  1.3966  1.1637
18421TIP3   OH276677   2.383   6.665   3.335 -0.3700 -0.5772 -0.4901
18421TIP3    H176678   2.440   6.591   3.355  0.1126 -0.1657 -0.3161
18421TIP3    H276679   2.312   6.659   3.399 -0.2760 -0.8263 -0.4077
18422TIP3   OH276680   5.937   0.288  11.554  0.0278  0.3543  0.1739
18422TIP3    H176681   5.954   0.197  11.580 -1.6037  0.0123  0.1288
18422TIP3    H276682   5.848   0.306  11.585  0.6089  2.2143  0.8971
18423TIP3   OH276683   0.272   3.812   4.131 -0.0784  0.4079  0.4440
18423TIP3    H176684   0.363   3.827   4.158 -0.3146  1.2390  0.8034
18423TIP3    H276685   0.227   3.789   4.213 -0.5495  1.7490  0.5794
18424TIP3   OH276686   4.478   3.190  10.890  0.3070  0.7921  0.1396
18424TIP3    H176687   4.495   3.156  10.978  0.3362  1.2220  0.3014
18424TIP3    H276688   4.463   3.112  10.837 -0.0432  0.5402  0.5981
18425TIP3   OH276689   2.717   4.989  14.139  0.0636  0.9051 -0.1449
18425TIP3    H176690   2.760   4.955  14.061 -0.3409  1.4876 -0.6345
18425TIP3    H276691   2.735   5.083  14.137 -0.9024  1.1020 -0.1601
18426TIP3   OH276692   0.723   1.217   6.530 -0.0306  0.9268 -0.4013
18426TIP3    H176693   0.719   1.122   6.526 -0.0573  0.9272 -0.3832
18426TIP3    H276694   0.688   1.239   6.617 -1.4483  1.0338 -0.9638
18427TIP3   OH276695   6.451   5.025   2.834 -0.3347 -0.0655  0.1728
18427TIP3    H176696   6.450   5.074   2.752  0.0652 -1.7940 -0.9020
18427TIP3    H276697   6.488   5.086   2.898  0.7827  0.8127 -1.2697
18428TIP3   OH276698   3.382   6.191   6.091 -0.5066 -0.1404 -0.2071
18428TIP3    H176699   3.395   6.225   6.180  1.0349  0.7430 -0.7403
18428TIP3    H276700   3.290   6.211   6.072 -0.4493  1.0396  0.6270
18429TIP3   OH276701   5.825   0.243   3.492  0.3291  0.4341 -0.1503
18429TIP3    H176702   5.761   0.301   3.535 -2.2071 -2.0359 -0.3359
18429TIP3    H276703   5.817   0.264   3.399  0.1979  0.5335 -0.1183
18430TIP3   OH276704   2.515   4.203  17.141 -0.0116 -0.4889  0.0394
18430TIP3    H176705   2.540   4.272  17.202  1.5958 -1.6042  0.7141
18430TIP3    H276706   2.557   4.227  17.059  1.5770 -1.2189  0.5894
18431TIP3   OH276707   3.791   1.966  12.256  0.2276 -0.0591  0.3259
18431TIP3    H176708   3.803   2.060  12.264  0.0646 -0.1546  2.3559
18431TIP3    H276709   3.753   1.953  12.170  0.4331  1.7073 -0.0637
18432TIP3   OH276710   2.504   5.110   5.815  0.1944 -0.2510  0.3487
18432TIP3    H176711   2.571   5.042   5.816 -0.6952 -1.3027 -2.0668
18432TIP3    H276712   2.547   5.187   5.851  3.4732 -0.2705 -2.9026
18433TIP3   OH276713   3.625   4.887   2.861  0.0618  0.1323 -0.2530
18433TIP3    H176714   3.537   4.920   2.876  0.3957  0.8495  0.2038
18433TIP3    H276715   3.681   4.965   2.863  0.7223 -0.3245 -0.3717
18434TIP3   OH276716   2.433   0.236   5.769  0.1997 -0.2233 -0.2035
18434TIP3    H176717   2.479   0.273   5.844 -1.5360  2.5147 -0.3492
18434TIP3    H276718   2.451   0.296   5.697 -0.1820 -1.4212 -1.3528
18435TIP3   OH276719   2.078   1.996   5.215  0.0625 -0.2748 -0.3533
18435TIP3    H176720   1.996   2.007   5.168  0.6386 -1.5080 -1.7405
18435TIP3    H276721   2.138   2.059   5.175  0.1578 -0.3189 -0.2820
18436TIP3   OH276722   5.789   4.417  16.402 -0.0374 -0.0400 -0.3158
18436TIP3    H176723   5.778   4.487  16.466  0.9666 -1.1940  1.1816
18436TIP3    H276724   5.801   4.463  16.319  0.4503  1.5647  0.5925
18437TIP3   OH276725   6.046   1.259   5.364 -0.0181  0.4654 -0.3476
18437TIP3    H176726   6.042   1.286   5.456  2.2850  0.3528 -0.1582
18437TIP3    H276727   6.076   1.168   5.368 -3.4189 -0.8578 -1.1419
18438TIP3   OH276728   4.639   5.995  16.734  0.3041  0.2557 -0.7090
18438TIP3    H176729   4.605   5.966  16.819  1.9699  1.2842  0.3728
18438TIP3    H276730   4.561   6.012  16.681 -0.7761 -0.4512  0.6003
18439TIP3   OH276731   0.309   0.979  16.954  0.4994 -0.6585  0.2576
18439TIP3    H176732   0.296   1.011  17.043  1.9744 -1.9151  0.9633
18439TIP3    H276733   0.244   1.027  16.902  1.3486  2.0940  1.5308
18440TIP3   OH276734   4.550   0.538   4.690  0.7186  0.0042  0.0990
18440TIP3    H176735   4.599   0.619   4.678 -1.4824  1.4653  0.4738
18440TIP3    H276736   4.586   0.499   4.769  1.3178  1.0098  0.3353
18441TIP3   OH276737   0.894   5.429  14.313  0.8717 -0.5406 -0.0214
18441TIP3    H176738   0.804   5.396  14.313  0.5144  0.3568 -0.7688
18441TIP3    H276739   0.945   5.360  14.271  0.1260 -0.1562 -1.6442
18442TIP3   OH276740   4.846   0.279   3.844 -0.1351 -0.4935 -0.1037
18442TIP3    H176741   4.781   0.233   3.792  0.7385 -0.7876 -0.9724
18442TIP3    H276742   4.929   0.264   3.798  0.2146  1.8332 -0.3627
18443TIP3   OH276743   4.359   4.991   2.649 -0.2740  0.1078  0.2066
18443TIP3    H176744   4.327   5.078   2.624  0.0228 -0.0178 -0.6486
18443TIP3    H276745   4.344   4.986   2.744  1.4911  1.8671  0.6587
18444TIP3   OH276746   5.713   0.624  11.878  0.5016  0.1603  0.6488
18444TIP3    H176747   5.698   0.554  11.942  0.5672  0.4934  1.0307
18444TIP3    H276748   5.636   0.621  11.821 -0.0636  0.5312  1.3686
18445TIP3   OH276749   6.332   5.199   1.489  0.4272  0.0400  0.1252
18445TIP3    H176750   6.237   5.185   1.488  0.4549 -0.1611 -0.0866
18445TIP3    H276751   6.365   5.138   1.555  0.6465 -1.6804 -1.4638
18446TIP3   OH276752   4.079   4.803  12.064  0.0261  0.0524 -0.2162
18446TIP3    H176753   4.004   4.744  12.076 -0.6696  0.9733  0.0802
18446TIP3    H276754   4.096   4.801  11.970 -0.4734 -0.0417 -0.3067
18447TIP3   OH276755   0.518   3.686   1.990 -0.1173  0.0884  0.0890
18447TIP3    H176756   0.458   3.696   1.917  1.5173 -0.8968 -1.4890
18447TIP3    H276757   0.552   3.597   1.980  0.3719  0.0452  1.8898
18448TIP3   OH276758   5.882   1.059   0.330 -0.4883 -0.6504  0.2694
18448TIP3    H176759   5.852   0.985   0.278 -0.1682 -1.2265  0.8943
18448TIP3    H276760   5.959   1.091   0.284 -1.2988  0.0456 -0.6484
18449TIP3   OH276761   0.280   0.762  13.875 -0.1100 -0.4393 -0.9306
18449TIP3    H176762   0.337   0.699  13.920  0.2406  0.8137  0.4733
18449TIP3    H276763   0.216   0.708  13.829  0.6763 -1.8313 -0.4546
18450TIP3   OH276764   4.712   3.796   1.184 -0.2010 -0.0342  0.0420
18450TIP3    H176765   4.618   3.786   1.193 -0.1522 -0.9995 -0.3592
18450TIP3    H276766   4.723   3.850   1.106 -0.4209  0.0471  0.0667
18451TIP3   OH276767   5.990   2.583   5.162  0.1902  0.6250  0.2161
18451TIP3    H176768   6.022   2.647   5.099  1.5381 -0.6620 -0.4719
18451TIP3    H276769   6.025   2.611   5.246  1.0557  0.6215 -0.1356
18452TIP3   OH276770   5.685   2.290  12.443 -0.0661  0.1791 -0.0149
18452TIP3    H176771   5.741   2.240  12.502  1.3780  0.6002 -0.9966
18452TIP3    H276772   5.698   2.382  12.469  1.1893  0.4421 -1.4346
18453TIP3   OH276773   4.907   5.430   0.498  0.2844  0.1373 -0.3038
18453TIP3    H176774   4.970   5.486   0.544  0.4781 -1.5045  1.5883
18453TIP3    H276775   4.829   5.486   0.487  0.4900  0.8535  1.4489
18454TIP3   OH276776   5.251   1.768   5.814 -0.0262 -0.1631 -0.3639
18454TIP3    H176777   5.236   1.722   5.732  1.3732 -0.1306 -0.6676
18454TIP3    H276778   5.296   1.849   5.789  1.6025 -0.7589  0.5081
18455TIP3   OH276779   6.476   3.018  17.091 -0.1334  0.1771 -0.0274
18455TIP3    H176780   6.491   2.927  17.064 -0.6703  0.2397 -0.5795
18455TIP3    H276781   6.505   3.070  17.016  1.7080  0.5621  0.9086
18456TIP3   OH276782   4.836   0.325   5.072 -0.0988 -0.0226 -0.4771
18456TIP3    H176783   4.909   0.345   5.131 -1.4565  0.5349  1.0851
18456TIP3    H276784   4.863   0.245   5.027  2.3435  1.2484 -1.5075
18457TIP3   OH276785   6.550   3.456  13.337  0.0004 -0.0487  0.5575
18457TIP3    H176786   6.464   3.489  13.309  0.0854 -1.2896 -1.4017
18457TIP3    H276787   6.600   3.535  13.357 -0.8781  0.8500 -0.5867
18458TIP3   OH276788   3.784   3.067   4.206 -0.1652 -0.3529  0.2293
18458TIP3    H176789   3.848   3.010   4.163  0.1961 -0.8581  1.4058
18458TIP3    H276790   3.773   3.140   4.145  1.5768 -0.2257  0.0090
18459TIP3   OH276791   4.487   2.544  16.866  0.0358 -0.3479  0.3836
18459TIP3    H176792   4.580   2.523  16.870  0.4460  1.3025  0.5300
18459TIP3    H276793   4.460   2.548  16.958  0.3937  1.3200  0.4539
18460TIP3   OH276794   1.655   1.537   3.708  0.0790 -0.1887 -0.3280
18460TIP3    H176795   1.610   1.615   3.740 -2.1600 -1.2848 -0.6412
18460TIP3    H276796   1.720   1.518   3.775 -1.1678  0.4181  1.1066
18461TIP3   OH276797   4.870   4.167   2.915  0.1248  0.1873  0.1086
18461TIP3    H176798   4.782   4.203   2.900 -0.0409 -1.2132 -3.0461
18461TIP3    H276799   4.929   4.238   2.891 -0.1363  0.4071  0.1003
18462TIP3   OH276800   3.047   1.733  17.084 -0.3673  0.2707  0.2285
18462TIP3    H176801   3.008   1.775  17.160 -1.5371 -0.4719  0.0791
18462TIP3    H276802   3.068   1.644  17.113  1.6124  0.7528  0.4038
18463TIP3   OH276803   6.218   1.447  11.078  0.1371 -0.1283  0.1279
18463TIP3    H176804   6.286   1.498  11.122  1.8190 -0.6574 -1.7066
18463TIP3    H276805   6.179   1.509  11.015  1.7806 -0.8278 -1.6868
18464TIP3   OH276806   2.029   6.453   0.731  0.5718  0.1567  0.2111
18464TIP3    H176807   2.101   6.414   0.780  0.9317 -1.2153 -1.3175
18464TIP3    H276808   2.005   6.386   0.667  1.0566  2.3043 -2.3985
18465TIP3   OH276809   6.223   5.610  12.266  0.5488  0.4226 -0.1186
18465TIP3    H176810   6.142   5.646  12.303  0.0649 -0.0751 -0.6594
18465TIP3    H276811   6.199   5.521  12.239  1.3481  0.1840 -0.0637
18466TIP3   OH276812   6.430   0.572  11.515 -0.0369 -0.2181  0.0217
18466TIP3    H176813   6.356   0.631  11.529 -0.4398 -0.9790  1.2787
18466TIP3    H276814   6.502   0.614  11.562  0.6780  1.0633 -2.0678
18467TIP3   OH276815   6.151   4.206  14.325  0.0649  0.2880  0.1896
18467TIP3    H176816   6.209   4.146  14.277 -0.1819  0.8200 -0.8092
18467TIP3    H276817   6.165   4.291  14.282 -1.0171  0.5396  0.3140
18468TIP3   OH276818   4.617   6.527  11.315  0.2123 -0.5129 -0.3753
18468TIP3    H176819   4.531   6.519  11.275 -0.6313  1.4809  0.8485
18468TIP3    H276820   4.613   6.472  11.393 -0.6913  0.9651  0.6890
18469TIP3   OH276821   2.887   4.374  13.188 -1.2353 -0.2164 -0.0327
18469TIP3    H176822   2.953   4.431  13.229  1.0057 -2.2568 -0.5098
18469TIP3    H276823   2.854   4.424  13.114  0.1651  0.7398 -0.0654
18470TIP3   OH276824   1.528   0.364  13.077  0.2720  0.6518  0.7334
18470TIP3    H176825   1.487   0.287  13.037 -0.8844  1.4438  0.3533
18470TIP3    H276826   1.616   0.367  13.039  0.0634 -0.0570  0.1838
18471TIP3   OH276827   6.093   1.364   3.519  0.0034  0.2531  0.6324
18471TIP3    H176828   6.021   1.399   3.467  0.5432 -0.0356 -0.3267
18471TIP3    H276829   6.144   1.312   3.457  0.9813  0.3746  1.3225
18472TIP3   OH276830   4.052   5.659  11.176 -0.1891  0.2795  0.3378
18472TIP3    H176831   3.992   5.621  11.111  0.4096 -1.2697  0.6376
18472TIP3    H276832   4.134   5.612  11.163  0.0210  0.1006  2.0374
18473TIP3   OH276833   1.046   5.433  13.089  0.1240 -0.0167 -0.2496
18473TIP3    H176834   1.068   5.383  13.168 -1.9865  0.5414  0.7815
18473TIP3    H276835   1.117   5.497  13.080  1.6509 -1.6353 -0.2494
18474TIP3   OH276836   4.639   2.331  14.097  0.1901  0.2830 -0.5269
18474TIP3    H176837   4.621   2.251  14.048 -2.1667  0.2696  0.2737
18474TIP3    H276838   4.556   2.379  14.097  0.5149  0.9793  2.1478
18475TIP3   OH276839   2.139   1.614  12.764 -0.3422 -0.5823 -0.3365
18475TIP3    H176840   2.172   1.582  12.848  0.2103  0.3611 -0.1872
18475TIP3    H276841   2.086   1.541  12.731  0.2626 -1.3646  0.3483
18476TIP3   OH276842   3.036   3.564  16.017  0.5466  0.2943  0.1876
18476TIP3    H176843   2.971   3.612  16.067 -2.1428 -2.2191 -0.6516
18476TIP3    H276844   3.103   3.541  16.081  0.6807  2.8529  1.1016
18477TIP3   OH276845   4.273   5.695  12.152 -0.1925  0.1471  0.4807
18477TIP3    H176846   4.351   5.656  12.191  0.5367  1.1051  0.0052
18477TIP3    H276847   4.306   5.759  12.090 -1.3619  0.3601  0.0493
18478TIP3   OH276848   2.838   4.059  16.497  0.3027 -0.8627  0.6858
18478TIP3    H176849   2.907   4.125  16.500  0.4554 -1.0599  1.7060
18478TIP3    H276850   2.768   4.101  16.447  1.5683 -1.0855 -1.4142
18479TIP3   OH276851   2.829   3.769   1.966  0.4163 -0.0720 -0.0122
18479TIP3    H176852   2.771   3.760   1.890 -1.0123  0.3763  1.0063
18479TIP3    H276853   2.784   3.828   2.025  1.8914  0.2413  0.8550
18480TIP3   OH276854   0.824   1.776  12.696 -0.3258  0.3406  0.1951
18480TIP3    H176855   0.847   1.693  12.656 -1.3997 -0.0875  0.4375
18480TIP3    H276856   0.792   1.830  12.624 -0.0708  0.3778  0.1101
18481TIP3   OH276857   5.383   0.736   4.516  0.6983 -0.2471  0.1066
18481TIP3    H176858   5.362   0.737   4.422  0.3882  0.2490  0.1730
18481TIP3    H276859   5.327   0.805   4.553  0.3971 -0.8199  0.7479
18482TIP3   OH276860   2.372   5.625  16.825  0.0742 -0.2166  0.0789
18482TIP3    H176861   2.329   5.700  16.784 -1.2254  0.5113  2.5581
18482TIP3    H276862   2.459   5.658  16.849  0.0003  0.0745 -0.0467
18483TIP3   OH276863   5.098   1.088  15.904  0.2707 -0.3592  0.5226
18483TIP3    H176864   5.148   1.031  15.962 -2.1532 -1.2869  1.8324
18483TIP3    H276865   5.006   1.074  15.929 -0.6227  1.9515 -1.0961
18484TIP3   OH276866   2.324   0.042  15.533  0.3575 -0.2246 -0.6344
18484TIP3    H176867   2.408   0.000  15.512  0.5444 -0.7767  1.0851
18484TIP3    H276868   2.267  -0.031  15.559 -0.1742  0.3169 -0.2682
18485TIP3   OH276869   4.218   3.312  16.006 -0.2061  0.1739 -0.0544
18485TIP3    H176870   4.245   3.280  15.920 -1.4763 -1.9611  0.2705
18485TIP3    H276871   4.300   3.338  16.048  0.6115 -0.2161 -1.3311
18486TIP3   OH276872   1.931   2.249  15.360  0.4667 -0.1803 -0.2801
18486TIP3    H176873   1.943   2.269  15.453  2.0534  0.4212 -0.5837
18486TIP3    H276874   1.939   2.333  15.316  0.5482 -0.5718 -1.0235
18487TIP3   OH276875   3.458   4.748   1.501  0.8636 -0.1465  0.5067
18487TIP3    H176876   3.486   4.731   1.411  0.3955 -1.9822  0.6657
18487TIP3    H276877   3.530   4.714   1.555  0.8588  0.3698  0.8430
18488TIP3   OH276878   6.277   4.772  17.115  0.4619 -0.0271 -0.6866
18488TIP3    H176879   6.360   4.748  17.156 -0.2732  0.2195  1.0531
18488TIP3    H276880   6.252   4.854  17.158 -1.9704 -1.4646  0.9080
18489TIP3   OH276881   3.691   3.893  11.294 -0.4867  0.0766 -0.2533
18489TIP3    H176882   3.754   3.935  11.353 -0.1042 -0.6529 -0.1434
18489TIP3    H276883   3.723   3.914  11.206 -0.2147 -0.1053 -0.1990
18490TIP3   OH276884   4.635   2.315  15.418  0.2207 -0.4122 -0.2210
18490TIP3    H176885   4.594   2.377  15.478 -0.8143 -1.2484 -0.0263
18490TIP3    H276886   4.648   2.365  15.337 -3.0621 -0.5542 -0.9846
18491TIP3   OH276887   2.141   3.213  16.426  0.4474  0.2205 -0.3276
18491TIP3    H176888   2.091   3.186  16.348 -0.0833 -0.3974  0.2125
18491TIP3    H276889   2.230   3.230  16.393  0.0905  0.5285 -1.1604
18492TIP3   OH276890   0.871   5.556  11.165 -0.2634 -0.0750  0.2512
18492TIP3    H176891   0.878   5.553  11.070 -2.2325  1.0658  0.0036
18492TIP3    H276892   0.957   5.530  11.197  0.1813 -1.3672 -1.8124
18493TIP3   OH276893   0.865   4.638   3.606  0.1025 -0.4060  0.2883
18493TIP3    H176894   0.811   4.564   3.577  1.5485 -1.4607  0.1588
18493TIP3    H276895   0.802   4.704   3.634 -1.2552 -1.4075 -0.2643
18494TIP3   OH276896   0.229   0.036   3.895 -0.2309 -0.1331 -0.1235
18494TIP3    H176897   0.195  -0.038   3.844 -0.3446  0.0314 -0.2896
18494TIP3    H276898   0.193   0.114   3.852 -1.0948 -0.0200  0.7558
18495TIP3   OH276899   6.679   0.084  15.232  0.1809  0.4385  0.7862
18495TIP3    H176900   6.643   0.088  15.320 -2.2241  1.9829 -0.1279
18495TIP3    H276901   6.603   0.066  15.176  1.4403  0.5309 -1.0573
18496TIP3   OH276902   3.796   5.187  17.226  0.6960  0.7978 -0.0014
18496TIP3    H176903   3.811   5.199  17.132 -0.3775 -0.6353 -0.3975
18496TIP3    H276904   3.884   5.184  17.264  1.2005 -0.1456 -1.1807
18497TIP3   OH276905   0.468   2.660  10.846  0.4229 -0.2505 -0.1239
18497TIP3    H176906   0.417   2.690  10.922  0.5677  0.8320 -0.4400
18497TIP3    H276907   0.406   2.661  10.774  0.8946  1.2467 -0.5507
18498TIP3   OH276908   3.965   4.660   2.968  0.3177  0.8871 -0.2619
18498TIP3    H176909   4.014   4.631   2.890  0.2281  0.6913 -0.2482
18498TIP3    H276910   3.997   4.603   3.038 -0.8765 -0.1479 -0.5284
18499TIP3   OH276911   2.712   4.600  14.141  0.1553 -0.3742 -0.5128
18499TIP3    H176912   2.784   4.664  14.143 -0.7332  0.7392 -1.8186
18499TIP3    H276913   2.674   4.611  14.054 -1.4585 -1.0809  0.0729
18500TIP3   OH276914   5.274   0.068  17.014 -0.0414  0.1973 -0.0048
18500TIP3    H176915   5.239   0.133  17.074  3.3014  0.4755  1.8802
18500TIP3    H276916   5.301   0.118  16.937 -1.0873  0.3779 -0.2706
18501TIP3   OH276917   6.419   0.423  13.132  0.4700 -0.4841 -0.0865
18501TIP3    H176918   6.371   0.401  13.212  1.7458  0.4554  0.9651
18501TIP3    H276919   6.464   0.342  13.108  0.4577 -0.6377  0.4054
18502TIP3   OH276920   0.059   5.316   1.310 -0.2960  0.1826 -0.4414
18502TIP3    H176921   0.127   5.368   1.265 -0.3337 -0.3947 -1.1774
18502TIP3    H276922  -0.023   5.342   1.267 -0.3200 -0.4557 -0.7783
18503TIP3   OH276923   4.274   5.142   4.123 -0.0979 -0.3491 -0.2435
18503TIP3    H176924   4.185   5.160   4.092  0.4790  0.2585 -1.6176
18503TIP3    H276925   4.263   5.123   4.217 -1.5176  0.9873 -0.0946
18504TIP3   OH276926   0.757   1.136  16.320  0.6102  0.0271 -0.4960
18504TIP3    H176927   0.827   1.086  16.277  0.7522  1.0223 -1.4623
18504TIP3    H276928   0.802   1.187  16.387  0.5926 -0.4423 -0.1203
18505TIP3   OH276929   0.927   0.273  14.116  0.2864  0.0542 -0.2214
18505TIP3    H176930   0.940   0.335  14.188  0.3786  2.4360 -2.1909
18505TIP3    H276931   0.848   0.225  14.141  2.0613 -1.5444  2.9626
18506TIP3   OH276932   1.268   2.742  10.966  0.0449  0.0885  0.2825
18506TIP3    H176933   1.203   2.740  10.896  0.3296  0.9837 -0.0189
18506TIP3    H276934   1.352   2.736  10.922  0.1854 -1.6754  0.7095
18507TIP3   OH276935   2.616   0.051   4.519  0.3624  0.5180  0.1541
18507TIP3    H176936   2.612   0.026   4.427  0.7169  0.7328  0.0832
18507TIP3    H276937   2.645   0.142   4.519 -0.2650  0.7280  0.4509
18508TIP3   OH276938   3.276   2.489  17.007  0.2363 -0.6172  0.0903
18508TIP3    H176939   3.358   2.499  17.056 -0.2475  1.5268  0.5508
18508TIP3    H276940   3.211   2.464  17.073 -0.4551  2.4488  0.7271
18509TIP3   OH276941   1.098   5.018  12.739 -0.1686 -0.4207 -0.5629
18509TIP3    H176942   1.031   4.992  12.801 -0.0854 -1.3957 -0.8654
18509TIP3    H276943   1.129   5.103  12.771 -0.5101 -0.6515  0.4024
18510TIP3   OH276944   3.027   5.672   4.485  0.1080  0.7052 -0.6633
18510TIP3    H176945   3.043   5.577   4.486  1.3358  0.9002  0.0849
18510TIP3    H276946   2.933   5.680   4.466 -0.1221 -0.6684 -0.2250
18511TIP3   OH276947   2.140   3.268  14.153 -0.2685  0.1386 -0.0410
18511TIP3    H176948   2.102   3.283  14.240 -1.5711 -1.3465 -0.3082
18511TIP3    H276949   2.079   3.209  14.110  1.6254 -1.1702 -1.0700
18512TIP3   OH276950   1.095   1.597   0.036 -0.0186  0.4223 -0.5359
18512TIP3    H176951   1.006   1.598   0.001 -0.0187 -0.5825 -0.5815
18512TIP3    H276952   1.141   1.664  -0.015 -0.3056 -0.2555 -1.7142
18513TIP3   OH276953   3.817   3.113  12.845 -0.3176  0.3045 -0.3294
18513TIP3    H176954   3.782   3.202  12.847  0.2189  0.5088  1.8671
18513TIP3    H276955   3.824   3.088  12.937  2.9071 -0.6694 -0.7365
18514TIP3   OH276956   5.356   1.782  14.384  0.1514  0.1428 -0.1839
18514TIP3    H176957   5.300   1.809  14.312 -1.0788 -0.8845  0.3405
18514TIP3    H276958   5.430   1.842  14.381 -0.6044  1.0617 -1.3689
18515TIP3   OH276959   0.753   1.137   2.756  0.2466 -0.0209 -0.2389
18515TIP3    H176960   0.759   1.100   2.844 -1.7254 -0.8133 -0.3947
18515TIP3    H276961   0.788   1.226   2.766  1.6668 -0.6545  0.9341
18516TIP3   OH276962   1.729   5.472   6.021 -0.4072  0.0328  0.4485
18516TIP3    H176963   1.705   5.392   5.975  1.5703 -0.5232  0.2810
18516TIP3    H276964   1.652   5.528   6.015 -0.8816 -0.7695 -1.8944
18517TIP3   OH276965   0.610   1.632  14.491 -0.0094 -0.2003 -0.0289
18517TIP3    H176966   0.563   1.611  14.411  0.2939  0.2970 -0.3435
18517TIP3    H276967   0.697   1.661  14.462  0.1867 -0.2549  0.4889
18518TIP3   OH276968   5.462   5.915   1.157  0.3709  0.4987  0.2229
18518TIP3    H176969   5.405   5.970   1.102  0.6099 -0.7276 -1.3409
18518TIP3    H276970   5.518   5.870   1.094  0.8598 -0.7651  1.5334
18519TIP3   OH276971   1.400   2.008  15.567  0.3677 -0.4517  0.4968
18519TIP3    H176972   1.352   1.927  15.583 -0.0477 -0.2009  0.5286
18519TIP3    H276973   1.407   2.012  15.471 -1.2131  0.3850  0.3857
18520TIP3   OH276974   0.357   1.268  12.686  0.2563 -0.2308  0.7039
18520TIP3    H176975   0.280   1.278  12.630 -0.3546 -0.9317  1.3902
18520TIP3    H276976   0.325   1.217  12.761  0.9440  1.0861  1.9253
18521TIP3   OH276977   5.218   6.552  10.968  0.4649 -0.2063 -0.1647
18521TIP3    H176978   5.169   6.551  11.050  0.4884  0.7379 -0.1261
18521TIP3    H276979   5.163   6.602  10.907  1.1689  0.5186 -0.2327
18522TIP3   OH276980   3.491   5.501   4.176 -0.1329  0.6056 -0.1979
18522TIP3    H176981   3.582   5.482   4.152  0.0294  1.3178 -0.1950
18522TIP3    H276982   3.441   5.428   4.141  0.5876 -0.4795  0.9419
18523TIP3   OH276983   2.405   3.806  12.438  0.2274  0.3290  0.6916
18523TIP3    H176984   2.352   3.795  12.359 -0.1899 -0.6155  1.0865
18523TIP3    H276985   2.487   3.845  12.406 -0.3106  0.8726 -0.0633
18524TIP3   OH276986   2.994   2.914   5.962 -0.1609  0.0056  0.5084
18524TIP3    H176987   3.008   3.009   5.961  0.4306 -0.0634 -1.2299
18524TIP3    H276988   2.985   2.890   5.870  0.5887 -1.7643  0.8495
18525TIP3   OH276989   4.491   3.800  11.172 -0.3607 -0.4954 -0.6019
18525TIP3    H176990   4.535   3.715  11.162  1.9102  0.7795 -2.4905
18525TIP3    H276991   4.551   3.853  11.223 -0.6679  0.6499 -1.3759
18526TIP3   OH276992   3.451   1.444   6.350 -0.2595  0.4793  0.1619
18526TIP3    H176993   3.400   1.523   6.368 -2.2229 -0.7737  0.4550
18526TIP3    H276994   3.399   1.373   6.389  2.1096 -0.8403  1.1421
18527TIP3   OH276995   4.180   1.341  15.230  0.4495  0.6175  0.6125
18527TIP3    H176996   4.148   1.406  15.292 -1.0310 -0.7233  1.2949
18527TIP3    H276997   4.122   1.350  15.154 -0.5961 -0.7271  1.2152
18528TIP3   OH276998   6.209   3.479  15.614  0.0355 -0.0882  0.4163
18528TIP3    H176999   6.223   3.573  15.609  0.5793 -0.2210 -0.8414
18528TIP3    H277000   6.297   3.441  15.609 -0.2529 -0.6926 -0.2178
18529TIP3   OH277001   5.988   4.357   4.859 -0.4065  0.4495 -0.1528
18529TIP3    H177002   6.081   4.370   4.877 -0.8206  0.8118  1.9840
18529TIP3    H277003   5.974   4.401   4.776  1.0629  1.5775  0.1507
18530TIP3   OH277004   6.680   4.549  14.714 -0.2872  0.5680  0.3282
18530TIP3    H177005   6.692   4.636  14.676 -0.0959  1.0356  1.4331
18530TIP3    H277006   6.595   4.554  14.759 -0.6722 -0.0857 -0.3015
18531TIP3   OH277007   2.525   5.786  13.073  0.3413 -0.7520  0.3682
18531TIP3    H177008   2.604   5.747  13.037 -0.0783 -1.5116  0.2269
18531TIP3    H277009   2.457   5.764  13.009  0.2751  1.1805 -0.2680
18532TIP3   OH277010   3.682   2.536   3.598  0.1430 -0.1093  0.2143
18532TIP3    H177011   3.589   2.522   3.618  0.1436 -1.7811 -0.7522
18532TIP3    H277012   3.689   2.629   3.580 -0.9790  0.3890  2.0688
18533TIP3   OH277013   0.384   0.179   0.034 -0.1648  0.1023  0.0531
18533TIP3    H177014   0.337   0.249  -0.011 -0.7045  0.0741  0.5601
18533TIP3    H277015   0.476   0.201   0.023 -0.2799  0.1510 -0.9727
18534TIP3   OH277016   5.898   3.054  15.319 -0.0807 -0.1489 -0.5445
18534TIP3    H177017   5.968   3.083  15.260 -1.2758  2.3038 -0.9155
18534TIP3    H277018   5.825   3.033  15.260 -0.0000 -1.7643 -0.1145
18535TIP3   OH277019   3.524   4.437   3.389  0.1523 -0.6986  0.1434
18535TIP3    H177020   3.470   4.371   3.344  0.3717 -1.8361  1.4645
18535TIP3    H277021   3.560   4.491   3.319 -1.3160 -0.9856 -0.8826
18536TIP3   OH277022   2.404   5.078  11.528  0.2048 -0.1783 -0.1877
18536TIP3    H177023   2.444   5.162  11.547  1.5537 -0.6545 -0.8110
18536TIP3    H277024   2.368   5.049  11.612  0.3964  0.6697  0.1926
18537TIP3   OH277025   3.023   2.162   1.103  0.7102  0.0115  0.2115
18537TIP3    H177026   3.052   2.236   1.050 -0.5451  0.8419  0.6664
18537TIP3    H277027   3.095   2.099   1.096  1.7658  1.2250 -0.2362
18538TIP3   OH277028   0.769   0.765   0.298 -0.2524  0.4009  0.2765
18538TIP3    H177029   0.696   0.715   0.335  2.4812 -2.1188  2.7103
18538TIP3    H277030   0.753   0.855   0.327 -2.9452  0.1932 -0.3036
18539TIP3   OH277031   2.901   4.139  16.772 -0.0874  0.1808  0.2898
18539TIP3    H177032   2.833   4.078  16.742  1.4971 -1.5914  0.0845
18539TIP3    H277033   2.927   4.106  16.858  2.0379 -0.5937 -0.5737
18540TIP3   OH277034   5.578   1.442   6.188 -0.2366  0.3676 -0.1687
18540TIP3    H177035   5.563   1.391   6.268 -0.7041  0.3061 -0.2937
18540TIP3    H277036   5.641   1.509   6.214 -0.2627  0.2474  0.2112
18541TIP3   OH277037   6.660   4.299   4.318  0.1546  0.0269  0.2235
18541TIP3    H177038   6.635   4.378   4.366  0.6811  0.6753 -0.5446
18541TIP3    H277039   6.677   4.330   4.229  0.7077 -0.9012  0.0023
18542TIP3   OH277040   3.538   1.513  12.591  0.4405 -0.1532 -0.0476
18542TIP3    H177041   3.522   1.462  12.511  0.0277 -0.3790  0.1805
18542TIP3    H277042   3.616   1.564  12.570 -1.1967  1.8664 -1.5955
18543TIP3   OH277043   2.280   3.858  13.161  0.0082 -0.1498  0.2486
18543TIP3    H177044   2.359   3.807  13.182 -0.2730 -0.8636 -0.3790
18543TIP3    H277045   2.256   3.899  13.244  0.9600 -0.0390  0.4841
18544TIP3   OH277046   3.361   5.461   2.258  0.0221 -0.2845  0.0859
18544TIP3    H177047   3.412   5.407   2.318 -1.5290 -0.8804  0.9341
18544TIP3    H277048   3.356   5.547   2.300 -0.7237 -0.5878  0.6278
18545TIP3   OH277049   0.405   2.119   1.839  0.4556 -0.4611 -0.2261
18545TIP3    H177050   0.360   2.118   1.924  1.3620  1.4049  0.3389
18545TIP3    H277051   0.360   2.187   1.789  2.5165  1.4601  0.3518
18546TIP3   OH277052   1.354   2.261   5.795 -0.7588  0.5316 -0.0657
18546TIP3    H177053   1.408   2.182   5.800 -0.2271  0.7142 -1.9864
18546TIP3    H277054   1.412   2.332   5.823 -1.1070  0.3010  1.2587
18547TIP3   OH277055   5.608   5.494  13.974 -0.3743  0.5001  0.1849
18547TIP3    H177056   5.608   5.432  14.046 -1.5490  2.8682  2.4077
18547TIP3    H277057   5.699   5.501  13.947  0.5569  1.2370  3.1346
18548TIP3   OH277058   6.292   3.749  16.650 -0.3571  0.1161 -0.5259
18548TIP3    H177059   6.329   3.804  16.581 -2.2306 -1.0164 -2.6113
18548TIP3    H277060   6.358   3.681  16.665  0.5218  0.9812 -0.4172
18549TIP3   OH277061   1.895   1.042   0.619 -0.0805 -0.3681 -0.4099
18549TIP3    H177062   1.978   1.046   0.572 -0.8488 -0.1289 -1.7905
18549TIP3    H277063   1.828   1.037   0.551 -1.1246 -2.6173  0.6640
18550TIP3   OH277064   6.600   1.347   2.521 -0.2321  0.1300 -0.0293
18550TIP3    H177065   6.532   1.282   2.502  0.7876 -1.5790  1.8374
18550TIP3    H277066   6.614   1.392   2.438 -0.5949 -2.4410 -1.5832
18551TIP3   OH277067   6.307   2.593   3.494 -0.1958 -0.3082  0.7405
18551TIP3    H177068   6.354   2.638   3.564 -0.1970  0.0507  0.5129
18551TIP3    H277069   6.371   2.585   3.423 -0.0827 -0.9960  0.9102
18552TIP3   OH277070   5.315   5.815   4.437  0.3465 -0.0987 -0.2372
18552TIP3    H177071   5.222   5.817   4.411  0.4670 -1.3638 -0.8451
18552TIP3    H277072   5.359   5.774   4.363  1.5688  1.3682 -0.3716
18553TIP3   OH277073   6.709   6.401   4.892  0.1460  0.0217 -0.1199
18553TIP3    H177074   6.650   6.334   4.857  2.0410 -1.9633  0.2077
18553TIP3    H277075   6.709   6.470   4.827 -1.4061 -0.5749 -0.8040
18554TIP3   OH277076   6.658   3.238   5.489  0.2113 -0.0697 -0.0686
18554TIP3    H177077   6.588   3.278   5.438 -0.3846  0.6437  1.2387
18554TIP3    H277078   6.613   3.199   5.564  1.0955 -0.7159  0.1397
18555TIP3   OH277079   4.814   5.424   1.267 -0.0441 -0.2520 -0.0966
18555TIP3    H177080   4.763   5.344   1.248 -0.2811  0.0647 -0.8439
18555TIP3    H277081   4.859   5.443   1.184 -0.9862  1.0963 -0.3228
18556TIP3   OH277082   5.413   2.413  12.502 -0.1690  0.0757 -0.3097
18556TIP3    H177083   5.471   2.354  12.453 -0.2822  0.5807 -1.0665
18556TIP3    H277084   5.471   2.457  12.564  0.0770 -0.1730 -0.3603
18557TIP3   OH277085   3.257   1.874   0.919 -0.5458 -0.2048  0.0333
18557TIP3    H177086   3.241   1.968   0.909 -0.4336  0.0401  1.9322
18557TIP3    H277087   3.352   1.865   0.910 -0.4816 -0.0368  0.5114
18558TIP3   OH277088   0.376   0.148  11.744 -0.1683 -0.1924 -0.1804
18558TIP3    H177089   0.309   0.090  11.779 -0.6229 -0.4892 -1.4849
18558TIP3    H277090   0.330   0.231  11.728  0.0748 -0.0064  0.0700
18559TIP3   OH277091   2.619   3.114   4.261 -0.2642  0.0963 -0.3002
18559TIP3    H177092   2.572   3.033   4.246 -0.2118  0.0648 -0.2946
18559TIP3    H277093   2.627   3.154   4.174  1.1462 -0.6921 -0.5735
18560TIP3   OH277094   1.071   0.202   1.564  0.4580  0.2086 -0.2637
18560TIP3    H177095   0.987   0.160   1.543  0.9796 -0.3884 -1.2484
18560TIP3    H277096   1.070   0.283   1.512  1.2845 -0.7410 -1.8532
18561TIP3   OH277097   6.582   4.072  15.487  0.4800  0.0155 -0.2442
18561TIP3    H177098   6.496   4.049  15.523  0.4769 -1.2957 -1.0269
18561TIP3    H277099   6.586   4.168  15.493 -0.9689  0.0869 -0.0773
18562TIP3   OH277100   0.777   6.531   5.945 -0.5971 -0.5280  0.3703
18562TIP3    H177101   0.823   6.539   6.029 -1.2223  0.7314  0.6118
18562TIP3    H277102   0.714   6.460   5.960 -0.8316 -0.1884  1.0315
18563TIP3   OH277103   2.446   0.579  17.312 -0.1157 -0.4292 -0.2075
18563TIP3    H177104   2.395   0.505  17.280  0.0363 -0.9804  0.7843
18563TIP3    H277105   2.479   0.622  17.233 -3.1993  0.7669 -0.9934
18564TIP3   OH277106   0.976   0.088   4.678  0.1122  0.2028  0.1549
18564TIP3    H177107   0.964   0.163   4.736  0.1394 -1.2124  2.0818
18564TIP3    H277108   0.914   0.103   4.607  1.8613  3.2646 -0.9033
18565TIP3   OH277109   3.112   1.193   4.663 -0.4831 -0.4022 -0.0608
18565TIP3    H177110   3.103   1.237   4.747 -1.4900  0.1550 -0.4311
18565TIP3    H277111   3.127   1.101   4.684 -1.6304 -0.4294  0.7430
18566TIP3   OH277112   2.543   3.444   3.661 -0.1440  0.5678 -0.2942
18566TIP3    H177113   2.566   3.478   3.747  0.6298 -1.6991  0.4583
18566TIP3    H277114   2.619   3.461   3.606 -0.2414  1.1036 -0.2651
18567TIP3   OH277115   2.031   3.186  13.282  0.4052  0.4475  0.4294
18567TIP3    H177116   2.027   3.146  13.195  0.1442  0.5957  0.3724
18567TIP3    H277117   2.111   3.237  13.282  1.7502 -1.5355  1.1324
18568TIP3   OH277118   2.165   0.460  12.779  0.6220 -0.3051  0.1337
18568TIP3    H177119   2.087   0.514  12.784  0.2755 -0.8382  0.6038
18568TIP3    H277120   2.173   0.420  12.866 -0.3121 -2.6367 -0.7647
18569TIP3   OH277121   1.972   2.544  15.348 -0.0260  0.9914  0.4326
18569TIP3    H177122   1.989   2.591  15.266 -0.9393  0.4160 -0.1063
18569TIP3    H277123   1.990   2.609  15.416 -1.3401  2.1867 -0.2924
18570TIP3   OH277124   1.042   4.186  11.419  0.2172 -0.4720  0.2622
18570TIP3    H177125   1.088   4.134  11.354 -0.1201  0.4322 -0.7384
18570TIP3    H277126   0.975   4.128  11.455 -0.6751 -0.5104 -1.3967
18571TIP3   OH277127   1.626   5.605  14.090  1.0371 -0.6551  0.4481
18571TIP3    H177128   1.669   5.545  14.029  1.2728 -0.0162 -0.0267
18571TIP3    H277129   1.610   5.684  14.038  0.1993 -0.5176  0.9003
18572TIP3   OH277130   4.478   2.525   3.136 -0.0021 -0.0416 -0.1718
18572TIP3    H177131   4.520   2.544   3.052  0.4588  0.0311  0.0769
18572TIP3    H277132   4.521   2.583   3.199 -1.1060  0.7100 -0.0731
18573TIP3   OH277133   6.175   5.272   0.241 -0.0049 -0.1644  0.0295
18573TIP3    H177134   6.196   5.226   0.160 -1.6875 -2.8325  0.9970
18573TIP3    H277135   6.081   5.260   0.252  0.0493  0.7729  2.0316
18574TIP3   OH277136   1.867   6.046  13.609  0.4803  0.1053 -0.1666
18574TIP3    H177137   1.869   6.004  13.695 -2.8885 -1.4210 -0.6752
18574TIP3    H277138   1.927   5.993  13.556 -0.6017 -1.5868  0.2356
18575TIP3   OH277139   2.890   5.068   4.756 -0.4515 -0.5062  0.2900
18575TIP3    H177140   2.881   5.152   4.711 -0.0751 -2.1371 -3.0853
18575TIP3    H277141   2.800   5.036   4.765 -0.4798 -0.4804  0.0903
18576TIP3   OH277142   1.236   3.007  15.933 -0.7625  0.1795  0.4625
18576TIP3    H177143   1.298   2.945  15.896 -0.7890 -0.6596  1.7481
18576TIP3    H277144   1.168   3.017  15.866  0.0078 -0.0111 -0.3606
18577TIP3   OH277145   3.106   5.509   2.170  0.4955  0.8013 -0.7176
18577TIP3    H177146   3.197   5.479   2.162 -0.0691 -1.5603  0.7021
18577TIP3    H277147   3.081   5.535   2.082  2.2751  0.6810 -1.3008
18578TIP3   OH277148   4.624   1.977   0.565 -0.5648  0.0305 -0.3051
18578TIP3    H177149   4.645   1.905   0.505 -1.6392 -1.4461  1.0340
18578TIP3    H277150   4.528   1.982   0.564 -0.5194  2.4659 -1.4841
18579TIP3   OH277151   6.102   2.481  13.237  0.4841 -0.3532  0.1019
18579TIP3    H177152   6.057   2.550  13.286 -0.1010 -1.1924  0.7703
18579TIP3    H277153   6.191   2.482  13.273  0.2372 -0.5291  0.7297
18580TIP3   OH277154   5.785   4.856  13.139 -0.3251  0.3212 -0.0087
18580TIP3    H177155   5.734   4.791  13.090  0.6745  0.4678 -1.2784
18580TIP3    H277156   5.751   4.940  13.109  1.7051  0.4754 -2.1397
18581TIP3   OH277157   2.894   6.394   4.829 -0.2988 -0.6821 -0.3227
18581TIP3    H177158   2.820   6.405   4.770 -0.0515 -0.5132 -0.6067
18581TIP3    H277159   2.952   6.468   4.809 -0.8051  0.1105  1.0267
18582TIP3   OH277160   5.195   2.177   5.837  0.2598  0.0121  0.4999
18582TIP3    H177161   5.220   2.113   5.905  1.7543  0.3304  0.2963
18582TIP3    H277162   5.258   2.161   5.766 -0.3487  0.6724 -0.1997
18583TIP3   OH277163   6.534   3.996   2.826 -0.6711 -0.4465  0.1709
18583TIP3    H177164   6.611   3.969   2.876 -0.1649  0.1080 -0.2896
18583TIP3    H277165   6.502   4.074   2.872  0.6603  0.9530 -1.1466
18584TIP3   OH277166   5.720   1.937   5.474  0.2714  0.5041 -0.0031
18584TIP3    H177167   5.774   1.857   5.475  1.1606  1.0975  1.4640
18584TIP3    H277168   5.768   1.997   5.417  0.1429  0.3714 -0.2567
18585TIP3   OH277169   2.984   1.226   5.538  0.8496 -0.2955  0.3094
18585TIP3    H177170   3.002   1.320   5.534 -1.2542  0.1310 -0.6542
18585TIP3    H277171   2.950   1.212   5.626  0.2082  0.0607  0.1245
18586TIP3   OH277172   4.591   6.630   4.860  0.0488 -0.0292  0.4521
18586TIP3    H177173   4.682   6.614   4.835  0.3673  1.8111  0.3122
18586TIP3    H277174   4.558   6.544   4.885  1.3602 -1.0055 -0.9770
18587TIP3   OH277175   6.005   6.723   1.362 -0.1850 -0.4030 -0.2053
18587TIP3    H177176   5.999   6.631   1.334 -1.1870 -0.6509  0.7185
18587TIP3    H277177   5.948   6.727   1.439  0.5647  0.7920  0.3066
18588TIP3   OH277178   2.891   4.916   1.627 -0.0277  0.2893 -0.0734
18588TIP3    H177179   2.828   4.890   1.559 -0.9350 -2.7305  1.7563
18588TIP3    H277180   2.977   4.904   1.585 -0.5431  1.5026 -1.6051
18589TIP3   OH277181   2.746   0.391   2.780 -0.2735 -0.3037  0.0883
18589TIP3    H177182   2.802   0.327   2.737 -0.3308 -1.4548  1.6428
18589TIP3    H277183   2.657   0.364   2.758 -0.2886 -0.5184  0.4088
18590TIP3   OH277184   3.023   4.752  17.203 -0.2502  0.3369  0.3506
18590TIP3    H177185   3.043   4.686  17.270 -1.5694 -0.0037  0.4264
18590TIP3    H277186   2.997   4.701  17.126 -2.7107  0.7437  0.8564
18591TIP3   OH277187   4.511   3.508   6.756 -0.0232 -0.1551  0.1852
18591TIP3    H177188   4.566   3.490   6.832 -0.5799 -1.5706  0.2904
18591TIP3    H277189   4.451   3.577   6.785 -0.3849 -0.8395  1.1224
18592TIP3   OH277190   2.523   0.925  13.523  0.2829  0.1273 -0.4607
18592TIP3    H177191   2.544   0.854  13.462 -0.8148 -0.3586 -0.2955
18592TIP3    H277192   2.540   1.005  13.475  1.6551 -0.2296 -0.6180
18593TIP3   OH277193   6.117   0.864  13.277  0.1600  0.1710 -0.7514
18593TIP3    H177194   6.069   0.798  13.226 -1.2152  0.0313  0.6446
18593TIP3    H277195   6.085   0.853  13.366  0.7176  2.0052 -0.2878
18594TIP3   OH277196   2.899   5.980   5.774  0.4502 -0.2169  0.1778
18594TIP3    H177197   2.916   6.046   5.706  2.4558 -0.6700  0.1778
18594TIP3    H277198   2.932   5.899   5.736 -1.0971 -1.0646  0.5708
18595TIP3   OH277199   4.769   3.786   2.430 -0.7109 -0.3033 -0.1959
18595TIP3    H177200   4.765   3.815   2.522  1.9928  0.7644 -0.3441
18595TIP3    H277201   4.811   3.700   2.434 -2.2982 -1.1429 -0.3616
18596TIP3   OH277202   5.982   2.834   1.031  0.6842  0.5471 -0.8251
18596TIP3    H177203   5.895   2.856   1.061  0.0297 -1.8685 -0.7402
18596TIP3    H277204   6.030   2.809   1.110  0.0705 -2.2838 -1.2525
18597TIP3   OH277205   5.502   0.100   3.479  0.1014  0.7020  0.1480
18597TIP3    H177206   5.558   0.029   3.446 -1.2601  0.0688 -0.8910
18597TIP3    H277207   5.499   0.163   3.407 -0.9708  0.4614 -0.0227
18598TIP3   OH277208   6.101   5.755   2.896  0.5778 -0.0668  0.3530
18598TIP3    H177209   6.159   5.708   2.836 -0.5069 -0.3574 -0.4934
18598TIP3    H277210   6.128   5.725   2.983 -0.9230 -3.3877 -0.1745
18599TIP3   OH277211   3.969   6.600  12.957 -0.1875  0.5702 -0.3401
18599TIP3    H177212   4.004   6.511  12.964  0.7542  1.0098  1.1413
18599TIP3    H277213   4.021   6.642  12.889  0.5659  0.4900  0.1767
18600TIP3   OH277214   1.013   4.845   4.238 -0.1509  0.4599  0.0027
18600TIP3    H177215   0.961   4.787   4.294 -0.3487  0.8182  0.1904
18600TIP3    H277216   1.090   4.867   4.291  0.1842 -0.0440 -0.2622
18601TIP3   OH277217   5.892   0.750  16.358 -0.7011  0.1162  0.3670
18601TIP3    H177218   5.848   0.835  16.352 -0.1888  0.4422  1.1337
18601TIP3    H277219   5.907   0.737  16.451 -1.6073 -1.2637  0.3411
18602TIP3   OH277220   2.249   0.711   3.488  0.1320 -0.2650 -0.2092
18602TIP3    H177221   2.207   0.708   3.574  0.2945 -0.5775 -0.1391
18602TIP3    H277222   2.283   0.623   3.475  0.4760 -0.1047 -0.4095
18603TIP3   OH277223   1.330   4.084   5.094 -0.4828  0.1846 -0.3360
18603TIP3    H177224   1.287   3.999   5.104  0.5822 -0.2677  0.7183
18603TIP3    H277225   1.423   4.063   5.091 -0.2478  1.2532 -0.9482
18604TIP3   OH277226   5.141   4.941   1.084 -0.4079  0.3639  0.2945
18604TIP3    H177227   5.187   4.867   1.044  0.1548  0.7481  0.2236
18604TIP3    H277228   5.142   4.922   1.178 -1.7373 -0.5438  0.1522
18605TIP3   OH277229   0.685   5.946   1.959 -0.5894  0.5155 -0.2474
18605TIP3    H177230   0.751   5.975   1.896 -0.6579 -0.1268 -0.6255
18605TIP3    H277231   0.702   5.852   1.970 -0.0374  0.7795  1.3542
18606TIP3   OH277232   2.673   0.938  14.360  0.7935  1.1726  0.6564
18606TIP3    H177233   2.718   1.022  14.353 -0.1327  1.5476 -2.0455
18606TIP3    H277234   2.733   0.875  14.318  0.9226  0.7094  1.5115
18607TIP3   OH277235   2.089   2.310  12.210  0.2935 -0.4042 -0.1892
18607TIP3    H177236   2.021   2.343  12.152  0.5172  1.3498  0.4967
18607TIP3    H277237   2.160   2.283  12.152  0.0276  0.1612 -0.7817
18608TIP3   OH277238   5.814   0.505   2.054 -0.1240  0.2100  0.1944
18608TIP3    H177239   5.719   0.503   2.067 -0.6791  0.4119 -3.0884
18608TIP3    H277240   5.842   0.414   2.068 -0.4888  0.4028  2.6042
18609TIP3   OH277241   6.324   4.299   1.788 -0.3672  0.4021  0.0620
18609TIP3    H177242   6.408   4.332   1.758  0.3774 -0.8131  0.7595
18609TIP3    H277243   6.280   4.270   1.708  0.8621 -1.1392 -0.0913
18610TIP3   OH277244   4.968   1.488  12.042 -0.2784 -0.5763 -0.5571
18610TIP3    H177245   4.904   1.427  12.003 -0.2323  0.3720 -2.2227
18610TIP3    H277246   5.052   1.456  12.010 -0.0527 -0.8893  0.3376
18611TIP3   OH277247   3.837   0.273   5.714  0.2057  0.2444 -0.1908
18611TIP3    H177248   3.927   0.245   5.696  0.6142  0.5397  1.2911
18611TIP3    H277249   3.811   0.223   5.791 -2.1761 -2.3901 -2.4740
18612TIP3   OH277250   0.083   5.838   4.767  0.1412 -0.3628  0.0179
18612TIP3    H177251   0.109   5.927   4.789 -2.1432  0.5782 -0.6900
18612TIP3    H277252   0.099   5.831   4.673 -2.1907  0.3632 -0.5095
18613TIP3   OH277253   1.320   1.989  16.640 -0.1887  0.1253  0.0386
18613TIP3    H177254   1.326   1.997  16.545 -0.1121 -0.3458  0.0035
18613TIP3    H277255   1.395   1.935  16.665  1.0220  1.9476  0.5893
18614TIP3   OH277256   1.575   5.985   1.644  0.5250 -0.0018 -0.1253
18614TIP3    H177257   1.575   6.056   1.580 -2.0304 -0.4436 -0.7284
18614TIP3    H277258   1.516   6.015   1.713  1.7923 -0.3261  1.1512
18615TIP3   OH277259   3.014   3.357   2.027  0.0299 -0.1111 -0.1564
18615TIP3    H177260   3.005   3.388   2.118 -0.3448 -1.8611  0.4445
18615TIP3    H277261   3.080   3.415   1.989  1.0883 -0.0785  1.6037
18616TIP3   OH277262   1.168   2.077  13.708 -0.1884 -0.0658  0.5800
18616TIP3    H177263   1.190   1.997  13.755 -0.7481  0.1944  1.3097
18616TIP3    H277264   1.074   2.068  13.690 -0.0411 -0.0283 -0.2414
18617TIP3   OH277265   1.250   4.804   2.659  0.1924  0.2921 -0.2429
18617TIP3    H177266   1.263   4.734   2.595  1.3611  1.3834 -1.2778
18617TIP3    H277267   1.265   4.885   2.609  2.8896  1.1637  1.7124
18618TIP3   OH277268   2.141   3.159   2.775  0.6651 -0.0359  0.3559
18618TIP3    H177269   2.219   3.114   2.745  0.0845 -0.1527 -1.0561
18618TIP3    H277270   2.152   3.250   2.746  0.2759 -0.0623  0.1043
18619TIP3   OH277271   1.970   2.238  16.428 -0.5594 -0.5458  0.4992
18619TIP3    H177272   1.879   2.265  16.433  0.0164  1.3884  1.1886
18619TIP3    H277273   2.012   2.303  16.372  0.9647  0.3635  2.5502
18620TIP3   OH277274   6.529   3.010  13.564 -0.0936  0.1098 -0.3338
18620TIP3    H177275   6.594   3.022  13.494  0.5482  2.6734  0.5945
18620TIP3    H277276   6.544   3.083  13.624 -3.0579  0.0950  0.5875
18621TIP3   OH277277   0.718   5.119   3.253  0.3066  0.1062  0.1874
18621TIP3    H177278   0.793   5.152   3.302  0.5481 -1.2032  0.7505
18621TIP3    H277279   0.732   5.024   3.248 -2.2888 -0.4948  2.0750
18622TIP3   OH277280   0.969   3.020   1.323 -0.5543 -0.2588  0.2339
18622TIP3    H177281   1.016   2.939   1.307  2.0710  1.4594 -1.4054
18622TIP3    H277282   1.020   3.064   1.391 -0.1409  1.3079 -1.0377
18623TIP3   OH277283   2.745   1.487   2.327  0.1688  0.0978 -0.2417
18623TIP3    H177284   2.743   1.519   2.417  0.9402 -0.5741  0.0277
18623TIP3    H277285   2.833   1.449   2.317 -0.4233 -1.1962 -0.7918
18624TIP3   OH277286   5.275   3.168   5.175  0.1758 -0.2592  0.2233
18624TIP3    H177287   5.325   3.087   5.187 -1.1828 -1.3061 -0.9776
18624TIP3    H277288   5.298   3.198   5.087 -1.3262 -0.7957 -0.3789
18625TIP3   OH277289   2.773   5.459  12.712  0.1537 -0.1919  0.3215
18625TIP3    H177290   2.718   5.382  12.703  1.4183 -1.0419 -0.4676
18625TIP3    H277291   2.737   5.522  12.650 -0.3833 -0.4437  0.3706
18626TIP3   OH277292   3.741   1.404   3.968 -0.3632 -0.4199  0.5954
18626TIP3    H177293   3.727   1.368   4.055  1.7913  0.3741  1.3410
18626TIP3    H277294   3.830   1.379   3.945 -0.2859  0.8244 -0.6580
18627TIP3   OH277295   0.911   2.752  13.670 -0.7952  0.0737 -0.1916
18627TIP3    H177296   0.977   2.690  13.639 -1.1459  1.5623 -4.4445
18627TIP3    H277297   0.960   2.829  13.697 -0.5818 -0.7914  2.1756
18628TIP3   OH277298   5.506   2.887  16.306  0.1060 -0.6015  0.9043
18628TIP3    H177299   5.544   2.820  16.362 -0.4445 -2.1191 -0.4753
18628TIP3    H277300   5.569   2.959  16.309  1.3752 -1.6895  1.3953
18629TIP3   OH277301   3.696   2.292   5.362  0.8020 -0.7922 -0.1187
18629TIP3    H177302   3.708   2.368   5.305 -2.0563  0.2229  0.4690
18629TIP3    H277303   3.760   2.304   5.432 -0.2952  1.7739  0.5793
18630TIP3   OH277304   6.312   1.877  14.874 -0.9642  0.2729  0.0840
18630TIP3    H177305   6.275   1.797  14.838 -1.6839  0.4892  0.3307
18630TIP3    H277306   6.294   1.872  14.968  0.4585 -0.0537  0.3652
18631TIP3   OH277307   4.682   5.504   0.097 -0.1183 -0.9294  0.0006
18631TIP3    H177308   4.753   5.546   0.144 -0.0678  1.1137 -1.7178
18631TIP3    H277309   4.722   5.428   0.055  0.6338 -0.7831  0.4478
18632TIP3   OH277310   5.665   3.206   0.830  0.0515  0.3830 -0.1388
18632TIP3    H177311   5.588   3.151   0.844  1.3722 -2.0440 -1.6306
18632TIP3    H277312   5.696   3.228   0.917 -1.2526 -0.2297  0.4985
18633TIP3   OH277313   6.508   5.366  16.848  0.1530  0.2798 -0.3418
18633TIP3    H177314   6.447   5.410  16.908 -0.2491 -2.5793  1.5854
18633TIP3    H277315   6.470   5.378  16.761 -2.2251  0.1194  0.6002
18634TIP3   OH277316   5.206   3.199  14.780 -0.2045 -0.0403  0.9217
18634TIP3    H177317   5.179   3.165  14.695 -0.9434 -0.1139  1.1743
18634TIP3    H277318   5.288   3.154  14.800  0.4495  0.6490 -0.1533
18635TIP3   OH277319   4.658   1.486   1.247  0.4229  0.2383  0.4338
18635TIP3    H177320   4.726   1.436   1.293  1.1443  0.7651 -0.0241
18635TIP3    H277321   4.655   1.447   1.160  1.3070  1.2582 -0.0693
18636TIP3   OH277322   3.867   1.434   1.048 -0.1877 -0.0246  0.0030
18636TIP3    H177323   3.879   1.357   0.993  1.2949  0.2238 -0.0644
18636TIP3    H277324   3.772   1.447   1.051 -0.3676 -0.7394 -1.5302
18637TIP3   OH277325   2.565   0.958  17.076 -1.0923 -0.6083 -0.1774
18637TIP3    H177326   2.565   1.011  17.156 -0.3737  2.1325 -1.8727
18637TIP3    H277327   2.477   0.921  17.072 -1.3521 -0.2566  1.5248
18638TIP3   OH277328   1.136   6.444  16.384 -0.1420 -1.1292  0.3412
18638TIP3    H177329   1.155   6.454  16.290  0.1039  2.3425  0.6426
18638TIP3    H277330   1.050   6.402  16.387  0.5186 -2.7557 -1.3541
18639TIP3   OH277331   3.082   5.512   3.111  0.2524 -0.2341 -0.4872
18639TIP3    H177332   3.012   5.498   3.176 -0.1071 -1.2928 -1.0707
18639TIP3    H277333   3.035   5.537   3.031  0.7328  1.7440 -0.1979
18640TIP3   OH277334   4.881   6.689  15.310  0.8567 -0.1525  0.1721
18640TIP3    H177335   4.891   6.659  15.400 -0.3526 -1.7244 -0.1629
18640TIP3    H277336   4.945   6.639  15.260  0.1305 -0.8185 -0.1168
18641TIP3   OH277337   1.395   5.737  11.438 -0.1954 -0.0474  0.2300
18641TIP3    H177338   1.441   5.657  11.465 -1.5135 -1.4075 -1.3168
18641TIP3    H277339   1.302   5.713  11.438 -0.6327  1.5297 -0.1540
18642TIP3   OH277340   0.026   5.726   3.070 -0.0933 -0.0171  0.1357
18642TIP3    H177341  -0.038   5.690   3.008 -1.5339  2.0282  0.3476
18642TIP3    H277342   0.026   5.663   3.143 -1.5977 -0.2523 -0.0354
18643TIP3   OH277343   0.779   0.772   1.659  0.4191  0.2488  0.5776
18643TIP3    H177344   0.836   0.722   1.601 -0.4740  0.4226 -0.4851
18643TIP3    H277345   0.838   0.825   1.712  1.2308  1.3163 -1.3060
18644TIP3   OH277346   2.175   1.606   3.082 -0.2794  0.1898 -0.0994
18644TIP3    H177347   2.167   1.690   3.038  0.8895  0.4421  0.1416
18644TIP3    H277348   2.209   1.627   3.169  0.8589 -0.5866 -0.3308
18645TIP3   OH277349   1.922   0.521  16.447 -0.2176 -0.0380  0.1941
18645TIP3    H177350   1.942   0.437  16.488  0.7862  0.4629  0.7581
18645TIP3    H277351   1.831   0.511  16.416 -0.1858 -1.2460  0.4242
18646TIP3   OH277352   1.839   5.231  12.106 -0.2730  0.1513  0.6751
18646TIP3    H177353   1.858   5.250  12.014 -0.1360 -0.1417  0.6411
18646TIP3    H277354   1.780   5.301  12.134 -0.2826  0.2625  0.3746
18647TIP3   OH277355   5.795   6.481  13.982 -0.0347 -0.5312  0.3013
18647TIP3    H177356   5.807   6.489  13.887 -1.1331  0.6948  0.2327
18647TIP3    H277357   5.701   6.467  13.993 -0.1108  0.5920  1.2536
18648TIP3   OH277358   1.303   5.984  15.906 -0.0881 -0.3837 -0.0372
18648TIP3    H177359   1.297   6.064  15.855  1.0557 -0.0185  0.3671
18648TIP3    H277360   1.252   5.920  15.857 -0.3266  0.3712 -0.7972
18649TIP3   OH277361   6.764   2.179   2.098  0.4400 -0.5025 -0.3570
18649TIP3    H177362   6.694   2.241   2.077  1.9269  1.0989 -0.8360
18649TIP3    H277363   6.719   2.101   2.128 -1.6008 -0.1330 -2.2460
18650TIP3   OH277364   3.746   6.602   4.186 -0.6105 -0.1897 -0.1745
18650TIP3    H177365   3.752   6.605   4.281  0.2945 -0.3218 -0.2201
18650TIP3    H277366   3.802   6.674   4.156  0.1524 -0.9563 -0.6319
18651TIP3   OH277367   4.248   1.046  12.060  0.1911 -0.2262 -0.3064
18651TIP3    H177368   4.261   1.120  11.999  0.5466 -0.1294 -0.1145
18651TIP3    H277369   4.155   1.049  12.081  0.6544  2.0256  2.0157
18652TIP3   OH277370   3.413   1.598   5.674 -0.0077 -1.0488 -0.1075
18652TIP3    H177371   3.466   1.535   5.723 -1.7628 -2.4384  0.1249
18652TIP3    H277372   3.351   1.543   5.625 -1.1061  0.4867 -0.4994
18653TIP3   OH277373   1.632   5.972  16.133 -0.4395 -0.2850  0.2629
18653TIP3    H177374   1.680   6.051  16.111  0.0427 -0.7515 -0.4001
18653TIP3    H277375   1.595   5.989  16.220  1.9832 -0.3986  1.4083
18654TIP3   OH277376   2.669   4.191  10.903  0.7378  0.7159  0.4395
18654TIP3    H177377   2.658   4.141  10.821  0.5312 -0.5482  1.2038
18654TIP3    H277378   2.721   4.267  10.878 -0.8123  1.2972 -1.2098
18655TIP3   OH277379   0.058   3.582   6.390  0.2483 -0.1457  0.3640
18655TIP3    H177380  -0.003   3.572   6.317 -0.0066 -1.5092  0.7326
18655TIP3    H277381   0.051   3.674   6.415  0.0872  0.2604 -1.0987
18656TIP3   OH277382   2.078   1.534   4.761 -0.4056 -0.1226 -1.0349
18656TIP3    H177383   2.151   1.474   4.776  0.9429  1.8771  1.1798
18656TIP3    H277384   2.119   1.617   4.736 -1.6472  1.5762  1.9406
18657TIP3   OH277385   4.790   3.914   2.683  0.3558  0.0084  0.0832
18657TIP3    H177386   4.794   4.002   2.719  0.6992 -0.2895  0.7968
18657TIP3    H277387   4.734   3.865   2.743 -1.4567  0.2062 -1.3601
18658TIP3   OH277388   2.249   1.368  16.658  0.1986  0.1483 -0.0715
18658TIP3    H177389   2.237   1.285  16.703 -0.5522  0.9919  1.3468
18658TIP3    H277390   2.229   1.435  16.724  0.7419  1.4600 -1.1799
18659TIP3   OH277391   6.756   5.093   4.661  0.1517  0.6200 -0.4679
18659TIP3    H177392   6.796   5.092   4.574  0.7950 -0.8382 -0.1919
18659TIP3    H277393   6.722   5.182   4.671  1.2851  1.2220 -1.6514
18660TIP3   OH277394   0.617   0.335   0.013 -0.5847 -0.2972  0.2306
18660TIP3    H177395   0.610   0.426  -0.016 -2.4350  0.2527  2.0934
18660TIP3    H277396   0.694   0.301  -0.032 -1.5373  1.2718 -2.8202
18661TIP3   OH277397   3.391   1.170  11.436 -0.5897 -0.3063 -0.1131
18661TIP3    H177398   3.372   1.118  11.359 -1.6021  1.2556 -0.9731
18661TIP3    H277399   3.425   1.253  11.402  0.6837 -0.2384  1.1960
18662TIP3   OH277400   1.772   2.497  15.943 -0.3874  0.5017  0.0309
18662TIP3    H177401   1.759   2.406  15.915 -1.2739  1.0482 -1.4393
18662TIP3    H277402   1.847   2.527  15.892  1.1476  0.0820  1.9028
18663TIP3   OH277403   2.823   5.103  11.917  0.2235  0.1132 -0.1851
18663TIP3    H177404   2.790   5.173  11.973  0.7332  0.3617 -0.1892
18663TIP3    H277405   2.880   5.051  11.975  0.5062  0.1915 -0.3904
18664TIP3   OH277406   1.564   2.385  13.418  0.5682 -0.3465 -0.6104
18664TIP3    H177407   1.533   2.460  13.469 -1.6040 -1.4751 -0.1687
18664TIP3    H277408   1.616   2.424  13.348 -0.8640  1.6292 -0.6748
18665TIP3   OH277409   2.005   3.563   4.016  0.1091 -0.0786 -0.9360
18665TIP3    H177410   1.930   3.508   3.994  0.6201 -0.2959 -2.1918
18665TIP3    H277411   2.079   3.502   4.014  0.4978  0.3974 -0.9930
18666TIP3   OH277412   5.059   0.718  15.703 -0.3586  0.3034 -0.1303
18666TIP3    H177413   5.040   0.749  15.791 -1.8558 -0.6606 -0.0678
18666TIP3    H277414   5.051   0.623  15.708 -0.2745  0.2156 -1.2596
18667TIP3   OH277415   6.721   3.132   0.666  0.3099  0.1367  0.3416
18667TIP3    H177416   6.751   3.202   0.608  2.3884 -0.7879  0.1970
18667TIP3    H277417   6.751   3.159   0.753  0.0777 -0.0092  0.4677
18668TIP3   OH277418   2.733   0.631   1.341 -0.5146 -0.7728  0.3319
18668TIP3    H177419   2.751   0.570   1.269  1.5357 -0.1502  0.2594
18668TIP3    H277420   2.689   0.705   1.300  2.8550  0.7560 -0.9087
18669TIP3   OH277421   3.206   1.339  12.602  0.1499 -0.4158 -0.5602
18669TIP3    H177422   3.253   1.265  12.642  0.2194 -0.2749 -0.3814
18669TIP3    H277423   3.246   1.347  12.516 -0.7385 -1.4155 -1.0877
18670TIP3   OH277424   3.286   4.529   4.198 -0.1280  0.7718  0.0388
18670TIP3    H177425   3.274   4.499   4.288 -1.1931  3.0757  0.7451
18670TIP3    H277426   3.206   4.577   4.178  0.2540  0.6446 -2.0254
18671TIP3   OH277427   5.206   1.939   4.716 -0.0382  0.2560  0.0196
18671TIP3    H177428   5.262   1.861   4.718 -1.3597 -0.7298 -0.3329
18671TIP3    H277429   5.263   2.010   4.747  0.8673 -1.0301  1.4212
18672TIP3   OH277430   4.068   1.798   1.202  0.9982  0.2844 -0.1773
18672TIP3    H177431   4.142   1.858   1.198  1.4598 -0.2583  0.2549
18672TIP3    H277432   4.040   1.799   1.293  1.8285 -1.1373  0.1183
18673TIP3   OH277433   4.503   3.587   4.589  0.2918  0.0525  0.2430
18673TIP3    H177434   4.487   3.662   4.646  0.5042 -0.0617  0.4579
18673TIP3    H277435   4.567   3.534   4.637  0.1801 -0.2412  0.0728
18674TIP3   OH277436   2.756   2.843   4.003  0.6370  0.0026 -0.6791
18674TIP3    H177437   2.838   2.794   4.003  0.3369 -0.4998 -0.8637
18674TIP3    H277438   2.771   2.915   4.065  1.0518 -0.3559 -0.3620
18675TIP3   OH277439   6.277   2.614   1.071  0.1433 -0.3715 -0.0407
18675TIP3    H177440   6.292   2.672   0.996 -0.3864  1.1598  0.9809
18675TIP3    H277441   6.183   2.596   1.069 -0.6552  2.6774  2.2104
18676TIP3   OH277442   4.349   0.026   5.269 -0.3739  0.2046  0.1654
18676TIP3    H177443   4.264   0.017   5.312 -0.1836  1.8216  0.9831
18676TIP3    H277444   4.329   0.059   5.182 -0.6476 -1.0711 -0.2809
18677TIP3   OH277445   0.368   2.590  13.750  0.4202  0.3466  0.4285
18677TIP3    H177446   0.423   2.519  13.717 -1.9882 -1.2209 -0.4983
18677TIP3    H277447   0.278   2.561  13.733 -0.7681  2.4256  2.5423
18678TIP3   OH277448   0.014   4.398   5.319  0.4728 -0.1940 -0.0374
18678TIP3    H177449  -0.025   4.316   5.349 -0.5940  0.3407  0.0998
18678TIP3    H277450   0.096   4.405   5.368  1.9033 -2.3866 -1.8757
18679TIP3   OH277451   4.040   4.979   4.324 -0.0353 -0.3374 -0.5478
18679TIP3    H177452   3.963   5.031   4.347  0.2259  0.0662 -0.5608
18679TIP3    H277453   4.114   5.035   4.348  0.2706 -1.1547  0.4881
18680TIP3   OH277454   4.399   4.760   2.833 -0.0684 -0.4964  0.0075
18680TIP3    H177455   4.360   4.673   2.840 -0.3056 -0.3571  0.5336
18680TIP3    H277456   4.438   4.762   2.746 -1.2850 -0.6312 -0.5747
18681TIP3   OH277457   0.773   5.583   4.518  0.1120  0.2798 -0.6041
18681TIP3    H177458   0.721   5.531   4.579 -1.8895  2.2440 -0.5305
18681TIP3    H277459   0.849   5.611   4.569  0.2197 -0.9137 -0.0785
18682TIP3   OH277460   1.734   5.720   5.549  0.1202 -0.3441  0.1077
18682TIP3    H177461   1.689   5.642   5.581 -0.5032  0.0547  0.2257
18682TIP3    H277462   1.745   5.705   5.456 -1.1426 -0.0362 -0.1091
18683TIP3   OH277463   0.124   1.304   1.571  0.6910 -0.3041  0.6437
18683TIP3    H177464   0.160   1.302   1.483  0.4605 -0.5732  0.5534
18683TIP3    H277465   0.133   1.214   1.602 -1.9400 -0.9487 -0.2132
18684TIP3   OH277466   3.326   4.331   3.620  0.0644  0.4307 -0.2951
18684TIP3    H177467   3.301   4.285   3.539  0.9680 -0.2151 -0.2179
18684TIP3    H277468   3.281   4.415   3.614 -1.0735 -0.1937 -0.7647
18685TIP3   OH277469   4.778   4.531   0.662 -0.0121 -0.3367 -0.0340
18685TIP3    H177470   4.791   4.610   0.715 -1.8196 -1.4523  2.2791
18685TIP3    H277471   4.709   4.555   0.600  1.2923  0.6362 -1.1626
18686TIP3   OH277472   1.420   1.619   2.040  0.3855  0.2487  0.5964
18686TIP3    H177473   1.466   1.538   2.019 -1.8808 -0.6633 -1.4386
18686TIP3    H277474   1.442   1.679   1.969 -0.8839  0.0407 -0.0144
18687TIP3   OH277475   2.978   6.346  13.891  0.1587  0.3023  0.6678
18687TIP3    H177476   2.923   6.272  13.866  0.5773 -0.2055  1.2444
18687TIP3    H277477   3.062   6.308  13.915  0.0818  0.8435  1.9130
18688TIP3   OH277478   3.712   2.303   4.194 -0.3008  0.4278  0.1332
18688TIP3    H177479   3.772   2.326   4.265 -0.1218  0.7951 -0.1326
18688TIP3    H277480   3.761   2.323   4.115 -1.0401  1.4464 -0.0896
18689TIP3   OH277481   3.242   1.152  11.187  0.0299 -0.1975  0.1338
18689TIP3    H177482   3.290   1.214  11.132 -0.6216  1.1219  1.0157
18689TIP3    H277483   3.154   1.150  11.149 -0.2589  0.2698  0.7674
18690TIP3   OH277484   2.571   4.623   4.814  0.7830  0.1083 -0.6191
18690TIP3    H177485   2.611   4.686   4.755 -1.9790  1.6668 -0.9847
18690TIP3    H277486   2.589   4.657   4.902 -3.0416  3.2954 -0.7922
18691TIP3   OH277487   6.415   2.385  14.504 -0.3602  0.1857 -0.1531
18691TIP3    H177488   6.475   2.349  14.570 -0.8382 -1.8269 -0.7503
18691TIP3    H277489   6.341   2.324  14.503 -0.6706  0.5388 -2.0816
18692TIP3   OH277490   3.562   2.453  14.057 -0.6741  0.7779 -0.1492
18692TIP3    H177491   3.485   2.439  14.002 -1.6530  2.5076  0.6930
18692TIP3    H277492   3.553   2.543  14.088  1.9106  1.1770 -0.3405
18693TIP3   OH277493   5.368   5.697  11.004  0.5289 -0.9677  0.5579
18693TIP3    H177494   5.393   5.621  10.952  0.6052 -0.2343 -0.5012
18693TIP3    H277495   5.273   5.692  11.010  0.5598 -1.3306  0.7927
18694TIP3   OH277496   4.467   1.350  16.173 -0.0523 -0.0967  0.4299
18694TIP3    H177497   4.381   1.375  16.207 -0.4081 -2.2578  1.2966
18694TIP3    H277498   4.450   1.274  16.119  1.0697  0.8221 -1.2996
18695TIP3   OH277499   4.062   6.037   1.869 -0.0307 -0.1486 -0.2044
18695TIP3    H177500   4.012   6.094   1.810  1.1251  0.7710 -0.3521
18695TIP3    H277501   4.093   6.096   1.938  2.1577 -0.3035 -0.9728
18696TIP3   OH277502   3.484   3.531   4.770  0.1667 -0.0434  0.4603
18696TIP3    H177503   3.432   3.496   4.842  0.8663 -1.1204  0.4656
18696TIP3    H277504   3.500   3.456   4.713  0.4643  0.5863 -0.3023
18697TIP3   OH277505   4.703   4.202   2.440  0.2438  0.1033 -0.2321
18697TIP3    H177506   4.699   4.107   2.445  0.8706  0.0501 -0.6253
18697TIP3    H277507   4.650   4.232   2.514  0.9068 -0.5670  0.5358
18698TIP3   OH277508   3.760   6.598  12.698  0.4826  0.4175 -0.7574
18698TIP3    H177509   3.791   6.653  12.770 -3.1893  0.8975  0.6642
18698TIP3    H277510   3.726   6.659  12.633  2.0169 -0.0841 -2.0955
18699TIP3   OH277511   2.832   2.185   1.286 -0.1133  0.1113  0.2064
18699TIP3    H177512   2.746   2.207   1.248 -0.2947  0.3968  0.7709
18699TIP3    H277513   2.889   2.173   1.210 -0.8017 -0.7231 -0.2044
18700TIP3   OH277514   5.600   6.769   5.217  0.2051  0.8437  0.6896
18700TIP3    H177515   5.605   6.813   5.132  3.2721 -0.7688 -0.1542
18700TIP3    H277516   5.535   6.700   5.204  0.8566  0.4137 -0.5421
18701TIP3   OH277517   2.268   4.320  13.925 -0.9297 -0.7330  0.3560
18701TIP3    H177518   2.214   4.240  13.922 -2.7317  0.4254  0.2183
18701TIP3    H277519   2.263   4.348  14.016 -0.0331 -0.9336  0.4717
18702TIP3   OH277520   1.489   4.402   1.458 -0.6577 -0.6752 -0.2229
18702TIP3    H177521   1.534   4.374   1.537 -1.8302 -3.7016 -0.5002
18702TIP3    H277522   1.456   4.490   1.479  1.5093 -0.1827  1.5128
18703TIP3   OH277523   5.124   5.052  14.575 -0.2684  0.0095 -0.2687
18703TIP3    H177524   5.073   5.056  14.494  0.7295  0.7992 -0.8911
18703TIP3    H277525   5.163   5.139  14.583 -0.4440 -0.0065  1.1444
18704TIP3   OH277526   1.163   4.281   4.446  0.0008  0.1134 -0.4373
18704TIP3    H177527   1.194   4.203   4.492 -1.2823  0.1692  0.5690
18704TIP3    H277528   1.149   4.251   4.356  2.0426 -0.1276 -0.7341
18705TIP3   OH277529   3.641   5.563   5.229 -0.2315 -0.0360 -0.2018
18705TIP3    H177530   3.641   5.476   5.267  1.3096  0.0871  0.1452
18705TIP3    H277531   3.635   5.548   5.134 -1.3348 -0.4419 -0.0798
18706TIP3   OH277532   2.310   3.666   2.024  0.2272 -0.2323 -0.7070
18706TIP3    H177533   2.303   3.661   1.928 -0.4541 -0.6096 -0.6485
18706TIP3    H277534   2.219   3.677   2.053  0.2428 -1.6433 -0.0239
18707TIP3   OH277535   2.562   3.165  11.767 -0.5368 -0.2152  0.2799
18707TIP3    H177536   2.497   3.095  11.760  0.0512 -0.9438  1.5624
18707TIP3    H277537   2.572   3.198  11.678 -1.1246 -1.5102 -0.3011
18708TIP3   OH277538   6.093   3.922  12.373  0.2151 -0.3364 -0.7648
18708TIP3    H177539   6.063   3.881  12.454 -4.1376  0.2754 -1.8309
18708TIP3    H277540   6.189   3.927  12.383  0.1148 -2.2638  3.2956
18709TIP3   OH277541   1.523   2.191  11.782 -0.2148 -0.4287 -0.0495
18709TIP3    H177542   1.551   2.110  11.739 -0.9224 -0.6797 -0.0552
18709TIP3    H277543   1.460   2.230  11.722  0.8017  0.6194 -0.4716
18710TIP3   OH277544   0.433   5.982   1.842  0.4014 -0.3646  0.1145
18710TIP3    H177545   0.404   6.071   1.822 -2.0415 -1.4649 -1.7587
18710TIP3    H277546   0.513   5.994   1.892 -0.1205  2.8830  0.3944
18711TIP3   OH277547   5.004   2.842   5.953  1.0398  0.2373 -0.3147
18711TIP3    H177548   4.956   2.922   5.932 -0.5611 -0.2072  1.4275
18711TIP3    H277549   5.031   2.853   6.044  2.1761 -0.5675 -0.5288
18712TIP3   OH277550   2.218   3.649  11.881  0.2496 -0.2529 -0.2391
18712TIP3    H177551   2.294   3.593  11.896 -0.0793 -0.4020  0.9153
18712TIP3    H277552   2.185   3.670  11.968 -0.0720  1.1490 -0.6724
18713TIP3   OH277553   6.031   0.881   5.972  0.4527  0.0797 -0.0229
18713TIP3    H177554   5.997   0.881   6.061 -1.7457 -0.3590 -0.8081
18713TIP3    H277555   6.040   0.789   5.949 -1.9956  0.0781 -1.2674
18714TIP3   OH277556   4.241   5.866   0.740  0.6962  0.0455  0.0055
18714TIP3    H177557   4.189   5.856   0.660  1.1884 -1.1984 -0.1961
18714TIP3    H277558   4.178   5.855   0.811  0.5802 -0.9925 -0.2369
18715TIP3   OH277559   0.007   5.697  14.228  0.2052 -0.2157 -0.3553
18715TIP3    H177560  -0.037   5.703  14.143  0.7365 -0.9664 -0.6966
18715TIP3    H277561   0.084   5.753  14.219 -0.9359  1.6028  0.4515
18716TIP3   OH277562   5.094   4.618   1.213 -0.7579  0.2886 -0.3816
18716TIP3    H177563   5.190   4.625   1.213 -0.7134 -0.2194 -0.7694
18716TIP3    H277564   5.071   4.607   1.120 -1.1466 -0.1088 -0.2408
18717TIP3   OH277565   2.252   1.489   2.148  0.0102 -0.0553  0.2985
18717TIP3    H177566   2.257   1.413   2.205 -0.7227 -0.1687  0.2217
18717TIP3    H277567   2.164   1.485   2.109  0.3281  0.2758 -0.4768
18718TIP3   OH277568   6.255   2.164  14.799  0.7340 -0.3519 -0.1579
18718TIP3    H177569   6.182   2.174  14.860 -0.9026 -0.6040 -1.9603
18718TIP3    H277570   6.285   2.074  14.811  1.0711 -0.1039  0.9211
18719TIP3   OH277571   3.214   5.258  13.610  0.0540 -0.4230 -0.0520
18719TIP3    H177572   3.307   5.279  13.601  0.0679 -0.5764 -0.2828
18719TIP3    H277573   3.197   5.266  13.704  0.5107 -1.2537  0.1121
18720TIP3   OH277574   3.928   5.604  14.653  0.2750  0.2801 -0.4853
18720TIP3    H177575   3.973   5.522  14.638  0.0582 -0.2484  1.4600
18720TIP3    H277576   3.838   5.588  14.625  0.4819  0.2485 -1.1637
18721TIP3   OH277577   6.155   0.847  11.290  0.1727 -0.7091  0.1476
18721TIP3    H177578   6.153   0.883  11.202 -0.2884 -2.6244 -0.6872
18721TIP3    H277579   6.073   0.876  11.330  1.0290  1.3683  0.5122
18722TIP3   OH277580   5.578   1.185  16.401  0.0690 -0.5335 -0.0675
18722TIP3    H177581   5.537   1.110  16.444  2.9844 -0.9974  2.2574
18722TIP3    H277582   5.515   1.256  16.412  0.1277 -0.8738  4.3697
18723TIP3   OH277583   1.279   1.264  12.638  0.3486 -0.1549  0.2419
18723TIP3    H177584   1.291   1.344  12.689 -0.6385  0.4989 -0.5273
18723TIP3    H277585   1.222   1.209  12.692 -2.4298  1.3708 -0.9454
18724TIP3   OH277586   0.589   3.915   3.734 -0.2082 -0.5917  0.2141
18724TIP3    H177587   0.532   3.956   3.669  1.2647  1.0934 -0.0822
18724TIP3    H277588   0.651   3.863   3.682  1.1210  0.9461  0.1848
18725TIP3   OH277589   4.590   6.718   1.806 -0.4847  0.2847 -0.1126
18725TIP3    H177590   4.650   6.645   1.821  0.7059  1.0474 -0.9479
18725TIP3    H277591   4.643   6.796   1.822 -1.1689  0.9809 -1.1070
18726TIP3   OH277592   0.070   3.827   1.881  0.5279  0.2153 -0.0976
18726TIP3    H177593   0.080   3.785   1.966 -1.4939  1.5630  0.9005
18726TIP3    H277594   0.060   3.920   1.902  0.4409  0.6302 -1.8436
18727TIP3   OH277595   4.040   4.498   5.199  0.3438  0.0213 -0.2260
18727TIP3    H177596   4.051   4.460   5.112  0.0684 -0.8179  0.0957
18727TIP3    H277597   3.951   4.473   5.225 -1.0622  3.4314 -1.2193
18728TIP3   OH277598   4.884   2.506   0.656 -0.1612 -0.0988  0.9949
18728TIP3    H177599   4.978   2.515   0.640 -0.1084 -0.5135  1.0519
18728TIP3    H277600   4.847   2.480   0.572 -0.2851  0.4380  0.8759
18729TIP3   OH277601   0.651   1.610  17.115 -0.1743 -0.2136 -0.0279
18729TIP3    H177602   0.640   1.626  17.021  1.8684 -0.8770 -0.4367
18729TIP3    H277603   0.614   1.522  17.128 -3.3428  1.0741  0.4851
18730TIP3   OH277604   4.828   3.422   2.754  0.0757 -0.1943 -0.2880
18730TIP3    H177605   4.875   3.353   2.706 -0.7042 -0.6629 -0.3867
18730TIP3    H277606   4.872   3.503   2.728  0.2636 -0.5359 -1.0601
18731TIP3   OH277607   5.094   1.641  13.999 -0.2526 -0.1493  0.2218
18731TIP3    H177608   5.105   1.690  13.918  2.1342  0.5201  0.8793
18731TIP3    H277609   5.000   1.643  14.015 -0.5096  2.0668 -1.0826
18732TIP3   OH277610   2.584   1.922  13.722 -0.1713  0.3763  0.7325
18732TIP3    H177611   2.617   2.011  13.735 -0.5579  0.7408 -0.6645
18732TIP3    H277612   2.492   1.934  13.696 -0.7196 -0.5214  2.1250
18733TIP3   OH277613   5.584   4.318  10.597  0.0959 -0.7842  0.7051
18733TIP3    H177614   5.625   4.388  10.650 -1.6441 -0.4737  1.7106
18733TIP3    H277615   5.502   4.356  10.567  1.3614 -0.6539 -3.0263
18734TIP3   OH277616   2.474   1.727  15.203  0.5192  0.1348  0.3541
18734TIP3    H177617   2.404   1.677  15.245 -1.1087 -0.3367 -2.5791
18734TIP3    H277618   2.555   1.687  15.234 -0.6029 -1.3955  1.4838
18735TIP3   OH277619   2.357   5.841  13.460  0.4688  0.3821  0.1768
18735TIP3    H177620   2.412   5.764  13.447 -1.1713 -0.7719 -0.2828
18735TIP3    H277621   2.327   5.835  13.551 -2.0980 -1.3082 -0.6608
18736TIP3   OH277622   5.475   0.422  14.873 -0.0490  0.0761  0.3349
18736TIP3    H177623   5.456   0.428  14.780 -1.5535  0.5971  0.6515
18736TIP3    H277624   5.389   0.423  14.915  0.6182  0.1388  1.7459
18737TIP3   OH277625   2.944   5.844   1.272 -0.6823 -0.4579  0.0713
18737TIP3    H177626   2.925   5.893   1.352 -0.2096 -0.6286  0.2933
18737TIP3    H277627   2.981   5.762   1.303 -0.3142 -0.4437 -0.3279
18738TIP3   OH277628   1.140   5.411   1.972  0.5914  0.3282  0.4325
18738TIP3    H177629   1.175   5.364   2.047  0.4252 -0.0281  0.2907
18738TIP3    H277630   1.179   5.368   1.896  1.5246  1.3052  0.3255
18739TIP3   OH277631   2.474   2.958   2.300  0.2547  0.0341  0.0067
18739TIP3    H177632   2.422   2.920   2.371  0.1026  0.8075  0.3196
18739TIP3    H277633   2.545   3.005   2.345  1.2957 -1.0639 -0.4100
18740TIP3   OH277634   6.403   1.275  12.614  0.5894  0.0480  0.3213
18740TIP3    H177635   6.312   1.246  12.612  0.9660 -1.1352 -2.0900
18740TIP3    H277636   6.398   1.371  12.608 -0.4837  0.0464  0.9934
18741TIP3   OH277637   3.028   0.118  17.016  0.3652  0.1549  0.2307
18741TIP3    H177638   3.110   0.070  17.005  0.2858  0.1587 -0.4401
18741TIP3    H277639   3.026   0.143  17.108  1.1907  0.2900  0.2148
18742TIP3   OH277640   2.025   4.764  12.042 -0.2842 -0.9163 -0.4807
18742TIP3    H177641   2.061   4.837  12.093 -0.1450 -1.2552 -0.0824
18742TIP3    H277642   2.016   4.798  11.953  0.1018 -0.5249 -0.3704
18743TIP3   OH277643   3.414   5.146  16.841 -0.0036 -0.2509 -0.5651
18743TIP3    H177644   3.348   5.215  16.849 -0.1966 -0.5407  0.4446
18743TIP3    H277645   3.497   5.193  16.851 -0.1355 -0.1640  0.1825
18744TIP3   OH277646   3.550   6.602  15.872 -0.2846  0.0927  0.1563
18744TIP3    H177647   3.627   6.572  15.919  0.9873 -0.7240 -2.2856
18744TIP3    H277648   3.557   6.698  15.872  0.6404  0.0285  0.1182
18745TIP3   OH277649   1.852   2.944   0.118  0.8436 -0.3073  0.5553
18745TIP3    H177650   1.935   2.921   0.159  0.3212  0.6990  2.2675
18745TIP3    H277651   1.846   3.039   0.127  1.3519  0.2507 -3.2416
18746TIP3   OH277652   6.486   2.729   2.025 -0.0211  0.2346  1.0060
18746TIP3    H177653   6.544   2.689   2.089  1.4441 -0.9306 -0.9131
18746TIP3    H277654   6.443   2.655   1.982 -0.7221  0.9596  0.4195
18747TIP3   OH277655   5.245   4.399   3.729  0.3823  0.0070 -0.2757
18747TIP3    H177656   5.169   4.400   3.787 -2.6505  0.5022 -3.8712
18747TIP3    H277657   5.212   4.429   3.644  4.8112  0.9958 -1.9708
18748TIP3   OH277658   4.045   5.262  11.007 -0.0086 -0.0188  0.1714
18748TIP3    H177659   3.957   5.298  10.991 -0.7403 -1.1720  1.3704
18748TIP3    H277660   4.104   5.336  10.996 -1.2914  1.1368  0.8053
18749TIP3   OH277661   3.896   0.462   5.420 -0.4729 -0.3215 -0.0357
18749TIP3    H177662   3.846   0.384   5.395 -0.7578  0.5545 -2.3929
18749TIP3    H277663   3.975   0.427   5.462 -1.8123 -1.7786  1.4087
18750TIP3   OH277664   4.911   3.240   2.962 -0.1489  0.1323 -0.2017
18750TIP3    H177665   4.849   3.310   2.978  1.7997  1.7929  0.5529
18750TIP3    H277666   4.972   3.276   2.898  1.2692 -0.5881  0.6897
18751TIP3   OH277667   1.836   5.094  15.567  0.1478  0.4120 -0.3586
18751TIP3    H177668   1.785   5.134  15.638  0.7598  1.6203 -0.5769
18751TIP3    H277669   1.775   5.033  15.525 -0.6136  0.6398  0.3943
18752TIP3   OH277670   0.531   3.209  16.392  0.3076  0.3591  0.1040
18752TIP3    H177671   0.539   3.171  16.480  2.1580  0.4964  0.0195
18752TIP3    H277672   0.600   3.168  16.341  1.8430  3.0840 -0.2267
18753TIP3   OH277673   4.376   6.401   0.235  0.1325 -0.1625 -0.0088
18753TIP3    H177674   4.297   6.361   0.271  0.9242 -1.9031 -0.1331
18753TIP3    H277675   4.369   6.494   0.259 -0.9123 -0.6743  1.8244
18754TIP3   OH277676   4.626   5.259  13.069 -0.6335 -0.3268 -0.2637
18754TIP3    H177677   4.628   5.274  13.163 -1.2808 -1.2133 -0.0964
18754TIP3    H277678   4.553   5.312  13.037 -0.1652  0.2895 -0.3418
18755TIP3   OH277679   5.392   0.589   3.282  0.1795 -0.8955 -0.4790
18755TIP3    H177680   5.415   0.529   3.211  1.4306 -2.4036  1.0677
18755TIP3    H277681   5.462   0.654   3.282  0.6681 -1.3994 -0.1483
18756TIP3   OH277682   6.464   1.860   3.066 -0.4388 -0.4048 -0.5481
18756TIP3    H177683   6.467   1.903   3.151 -0.0967 -0.9793 -0.2615
18756TIP3    H277684   6.479   1.767   3.086 -0.0723 -0.5038 -1.2643
18757TIP3   OH277685   4.668   4.208   0.178 -0.3350  0.4147  0.0138
18757TIP3    H177686   4.603   4.202   0.108 -0.7569 -0.0637  0.4400
18757TIP3    H277687   4.632   4.274   0.238  0.3863  1.3814 -0.5796
18758TIP3   OH277688   6.073   3.268   2.303  0.6861 -0.4293 -0.4416
18758TIP3    H177689   5.996   3.239   2.255 -0.0666  1.1001 -0.2093
18758TIP3    H277690   6.127   3.311   2.237  0.1693  0.6896 -0.1512
18759TIP3   OH277691   3.029   4.811  13.768  0.0685 -0.5100  0.1070
18759TIP3    H177692   3.085   4.735  13.753  0.8874 -0.6940  3.2746
18759TIP3    H277693   3.024   4.855  13.683 -0.3616 -3.9726 -1.8303
18760TIP3   OH277694   2.743   6.581  11.459  0.0872 -0.4813 -0.1131
18760TIP3    H177695   2.798   6.659  11.458 -1.5954  0.7634  0.3028
18760TIP3    H277696   2.746   6.548  11.369 -0.8372  1.3073 -0.8420
18761TIP3   OH277697   3.053   5.376  13.822  0.3041  0.0802  0.0790
18761TIP3    H177698   3.123   5.402  13.881 -0.2891  1.4222  0.2214
18761TIP3    H277699   2.972   5.394  13.871 -0.2033 -2.9676  0.5860
18762TIP3   OH277700   1.626   3.243   1.030 -0.0168 -0.0477 -0.6160
18762TIP3    H177701   1.594   3.275   0.946 -0.1248 -0.3287 -0.6828
18762TIP3    H277702   1.568   3.283   1.095 -1.2014 -1.3924 -0.7969
18763TIP3   OH277703   0.358   5.581   3.879  0.6344  0.3878  0.5638
18763TIP3    H177704   0.382   5.499   3.835 -2.1803 -0.1915 -0.0968
18763TIP3    H277705   0.382   5.566   3.971 -0.7922 -1.6814  0.6810
18764TIP3   OH277706   2.008   2.705  12.884  0.7467  0.1242 -0.0825
18764TIP3    H177707   1.983   2.739  12.798  0.5046  0.1741  0.0067
18764TIP3    H277708   1.982   2.613  12.882  0.5101  0.1884  0.0282
18765TIP3   OH277709   4.102   2.983   5.186 -0.1115 -0.1101 -0.1567
18765TIP3    H177710   4.012   2.960   5.161  0.2651 -0.8907 -0.8567
18765TIP3    H277711   4.145   2.899   5.199 -0.3174  0.2264  3.4571
18766TIP3   OH277712   0.008   3.526  12.296  0.3966  0.2876  0.0057
18766TIP3    H177713   0.054   3.474  12.231 -0.3060 -0.0785 -0.2040
18766TIP3    H277714   0.056   3.609  12.299 -0.9206  1.2850 -2.7439
18767TIP3   OH277715   2.233   2.586   1.807  0.0858 -0.1054  0.0326
18767TIP3    H177716   2.172   2.660   1.802  1.4021  1.1328  1.1082
18767TIP3    H277717   2.196   2.520   1.749 -2.8156  0.1520  1.4148
18768TIP3   OH277718   4.495   3.515  13.210  0.1920  0.2282 -1.0009
18768TIP3    H177719   4.546   3.450  13.258  1.6412  0.4214 -2.1956
18768TIP3    H277720   4.404   3.485  13.218  0.5628 -0.5810  0.5038
18769TIP3   OH277721   3.399   5.347  11.787 -0.3146 -0.0443 -0.2522
18769TIP3    H177722   3.370   5.345  11.695 -1.4888  3.1596 -0.0661
18769TIP3    H277723   3.319   5.360  11.837  0.5584  0.5223  1.0498
18770TIP3   OH277724   1.128   6.448  11.535  0.2533  0.1702  0.2782
18770TIP3    H177725   1.181   6.527  11.530  0.0300  0.3124  0.1207
18770TIP3    H277726   1.082   6.445  11.451  1.5191 -1.0227 -0.4086
18771TIP3   OH277727   0.085   1.875  16.619 -0.2850  0.1369  0.2451
18771TIP3    H177728  -0.004   1.894  16.588 -0.5610 -1.3599  0.0643
18771TIP3    H277729   0.082   1.783  16.645  1.3898 -0.1147 -0.3732
18772TIP3   OH277730   5.685   5.331   2.292  0.2712  0.2642  0.1889
18772TIP3    H177731   5.641   5.357   2.373  1.0921  2.2016  0.0603
18772TIP3    H277732   5.620   5.345   2.224  0.3802  1.1046  0.2429
18773TIP3   OH277733   1.634   2.234   0.904 -0.2313 -0.2626 -0.5906
18773TIP3    H177734   1.636   2.287   0.824 -1.6547 -1.0045 -1.1598
18773TIP3    H277735   1.683   2.155   0.881  0.3685  0.0246 -0.3249
18774TIP3   OH277736   3.848   2.840  10.952  0.1312  0.0916  0.6819
18774TIP3    H177737   3.892   2.765  10.912 -0.0654 -0.5954  1.7005
18774TIP3    H277738   3.833   2.813  11.043  0.7163  1.6668  1.2786
18775TIP3   OH277739   0.358   5.434   3.093  0.1636  0.0255 -0.4629
18775TIP3    H177740   0.378   5.361   3.035  0.3367  0.5277 -1.0401
18775TIP3    H277741   0.262   5.437   3.095  0.1602  0.0609 -0.7801
18776TIP3   OH277742   1.894   1.844   3.573  0.5854 -0.1474  0.5191
18776TIP3    H177743   1.953   1.919   3.564  0.1963  0.0274 -0.8816
18776TIP3    H277744   1.929   1.779   3.511 -0.3042 -0.2878  0.1483
18777TIP3   OH277745   3.438   3.664  13.781 -0.4384  0.1475  0.0846
18777TIP3    H177746   3.523   3.695  13.749 -1.4698  1.9280 -1.1002
18777TIP3    H277747   3.402   3.613  13.709 -0.2425 -0.9458  0.7336
18778TIP3   OH277748   2.395   4.457  11.339  0.2936  0.6892 -0.2852
18778TIP3    H177749   2.451   4.535  11.342  0.1061  0.8455 -0.7756
18778TIP3    H277750   2.393   4.432  11.247  0.5657 -0.0586 -0.0892
18779TIP3   OH277751   4.806   2.484   3.414  0.0846 -0.0189 -0.0013
18779TIP3    H177752   4.733   2.512   3.468  0.3673 -0.5851  0.6804
18779TIP3    H277753   4.868   2.557   3.418  0.6629 -0.5576  1.4862
18780TIP3   OH277754   0.045   6.335  16.754 -0.6005  0.0211  0.1372
18780TIP3    H177755   0.099   6.308  16.681 -1.4570 -0.6548 -0.2624
18780TIP3    H277756  -0.019   6.395  16.716  0.1163  1.1712  0.6817
18781TIP3   OH277757   0.026   0.172   0.111 -0.2676  0.4064  0.2756
18781TIP3    H177758  -0.014   0.196   0.194  0.0077 -1.5110  0.9925
18781TIP3    H277759   0.119   0.162   0.130 -0.0491  0.8222 -0.4840
18782TIP3   OH277760   1.011   5.721   0.969  0.4188 -0.0461 -0.0189
18782TIP3    H177761   1.098   5.708   0.931  1.0598  0.6099  1.1709
18782TIP3    H277762   0.966   5.779   0.907  1.1213  0.2687 -0.2458
18783TIP3   OH277763   5.089   1.186   0.635 -0.4263  0.2073  0.1851
18783TIP3    H177764   5.113   1.111   0.690  0.1551  0.4260  0.2397
18783TIP3    H277765   5.132   1.168   0.551 -2.3473 -0.7638 -0.6644
18784TIP3   OH277766   3.013   3.046   0.776 -0.7269 -0.5364  0.0639
18784TIP3    H177767   2.988   3.024   0.687  1.0812 -0.0613 -0.6061
18784TIP3    H277768   3.033   2.962   0.817  1.4248 -0.6227 -0.9848
18785TIP3   OH277769   5.108   0.864   0.532  0.5661  0.3691 -0.2109
18785TIP3    H177770   5.079   0.845   0.621  1.4682 -0.1012 -0.0058
18785TIP3    H277771   5.031   0.903   0.489 -1.2398 -3.0736 -0.4505
18786TIP3   OH277772   6.136   6.469   4.594 -0.2437  0.0553 -0.1908
18786TIP3    H177773   6.067   6.428   4.646 -0.1950  0.1415 -0.0560
18786TIP3    H277774   6.091   6.499   4.515 -0.8892  2.2529  0.9125
18787TIP3   OH277775   0.351   2.827   5.175  0.2526  0.4793 -0.0589
18787TIP3    H177776   0.419   2.783   5.226 -0.2315 -1.3075 -0.8570
18787TIP3    H277777   0.271   2.812   5.225 -0.0146 -0.1109 -0.6504
18788TIP3   OH277778   0.128   6.554   2.507  0.3248  0.1893  0.0899
18788TIP3    H177779   0.218   6.529   2.484  0.1153  0.5550 -1.2182
18788TIP3    H277780   0.135   6.590   2.595  2.0648  3.3201 -1.1666
18789TIP3   OH277781   1.403   5.748  13.783 -0.0658  0.3701  0.1574
18789TIP3    H177782   1.499   5.751  13.784  0.0252 -1.1178 -1.2222
18789TIP3    H277783   1.377   5.808  13.853  1.8421  1.6410 -0.1438
18790TIP3   OH277784   1.334   2.018   5.060 -0.3952 -0.0541 -0.3027
18790TIP3    H177785   1.261   2.009   5.121 -0.8310  1.2304 -0.5979
18790TIP3    H277786   1.295   2.060   4.983  0.0907 -1.8265 -1.5762
18791TIP3   OH277787   4.991   4.645   1.909  0.1672 -0.0272 -0.4570
18791TIP3    H177788   4.980   4.574   1.971  0.9707  0.3500  0.1251
18791TIP3    H277789   4.924   4.629   1.842 -0.9704 -0.2195  0.6935
18792TIP3   OH277790   1.193   2.508   2.943 -0.4386  0.0052  0.0072
18792TIP3    H177791   1.189   2.602   2.927 -0.2732 -0.1235 -0.8585
18792TIP3    H277792   1.103   2.477   2.931 -0.7907  0.2615  1.7836
18793TIP3   OH277793   0.123   4.889   1.603 -0.0161  0.0595 -0.2624
18793TIP3    H177794   0.204   4.854   1.639  0.5346  0.6027 -0.9678
18793TIP3    H277795   0.055   4.828   1.633  0.5443 -0.0221  0.9050
18794TIP3   OH277796   5.956   2.122  12.971  0.1430  0.2635  0.4642
18794TIP3    H177797   5.990   2.068  12.900  0.1033 -0.4531  0.9792
18794TIP3    H277798   5.867   2.144  12.945  0.4990  0.9400 -0.2186
18795TIP3   OH277799   0.519   6.288   6.722  0.1189 -0.3456  0.0340
18795TIP3    H177800   0.466   6.340   6.661 -1.7930 -0.8413  1.2006
18795TIP3    H277801   0.605   6.330   6.721  0.2034 -0.3578 -3.0167
18796TIP3   OH277802   1.161   1.470   5.332  0.3524 -0.7111  0.2962
18796TIP3    H177803   1.241   1.518   5.311  0.4645 -0.6893  0.7598
18796TIP3    H277804   1.128   1.440   5.248  0.6595 -0.4186  0.0705
18797TIP3   OH277805   6.209   6.132  17.328  0.1989  0.5138 -0.5412
18797TIP3    H177806   6.245   6.091  17.407  0.6519  0.0174 -0.9993
18797TIP3    H277807   6.116   6.108  17.329  0.0010  1.2105  0.2692
18798TIP3   OH277808   0.688   1.362  15.182 -0.4216 -0.1849 -0.5706
18798TIP3    H177809   0.680   1.342  15.275 -2.0742 -2.6596 -1.1332
18798TIP3    H277810   0.622   1.430  15.167 -1.4432 -1.0772 -0.2309
18799TIP3   OH277811   4.575   0.171   2.708  0.6303 -0.7732  0.3433
18799TIP3    H177812   4.602   0.154   2.798  0.3818  0.9417  0.7870
18799TIP3    H277813   4.644   0.228   2.673 -0.1135 -0.0532  0.0158
18800TIP3   OH277814   5.523   4.280  17.004 -0.0227  0.3418 -0.0603
18800TIP3    H177815   5.526   4.281  16.909  0.5177 -1.5919 -0.1116
18800TIP3    H277816   5.475   4.200  17.026 -0.9859  1.2424  1.3032
18801TIP3   OH277817   6.065   6.347  14.994  0.0151 -0.0807  0.3770
18801TIP3    H177818   6.155   6.315  15.002  0.8915  1.8695 -0.8364
18801TIP3    H277819   6.075   6.440  14.970 -2.3084  0.0442 -0.3335
18802TIP3   OH277820   1.183   6.258  14.559 -0.2015 -0.2528  0.3190
18802TIP3    H177821   1.116   6.203  14.600 -1.2207 -0.1155 -1.1189
18802TIP3    H277822   1.176   6.342  14.603 -0.3005 -0.5290  0.8424
18803TIP3   OH277823   4.777   2.394   0.427 -0.0117  0.0238 -0.2592
18803TIP3    H177824   4.790   2.314   0.477 -1.1045  0.0895  0.1471
18803TIP3    H277825   4.824   2.379   0.345 -0.2037 -1.0299 -0.1889
18804TIP3   OH277826   5.655   5.200   5.895  0.0292  0.0893  0.1321
18804TIP3    H177827   5.618   5.118   5.926 -1.2012 -0.1080 -1.7040
18804TIP3    H277828   5.731   5.174   5.843  1.3959  0.3427  1.9315
18805TIP3   OH277829   6.144   4.037  13.501  0.1138 -0.4581  0.2379
18805TIP3    H177830   6.109   4.079  13.580  0.0867  1.1751 -0.5917
18805TIP3    H277831   6.078   3.972  13.477  0.0414 -0.8523  1.4575
18806TIP3   OH277832   4.131   6.554   1.903 -0.1177  0.3568 -0.0734
18806TIP3    H177833   4.215   6.568   1.860 -0.0541  0.2858  0.0260
18806TIP3    H277834   4.126   6.622   1.970 -0.0844  0.2872  0.0007
18807TIP3   OH277835   1.837   2.765   3.604 -0.5932 -0.2231 -0.4759
18807TIP3    H177836   1.924   2.723   3.604 -0.0073  0.9526 -0.6609
18807TIP3    H277837   1.810   2.762   3.695 -0.0960 -0.0816 -0.3195
18808TIP3   OH277838   6.451   3.217  13.842  0.1831  0.0585  0.1106
18808TIP3    H177839   6.491   3.242  13.759  0.9612 -2.3843 -0.3239
18808TIP3    H277840   6.524   3.211  13.903  0.0006 -0.7545  0.2634
18809TIP3   OH277841   6.267   2.998   3.997  0.1834  0.4606  0.6812
18809TIP3    H177842   6.243   3.021   3.907 -0.0927 -1.5171  0.2115
18809TIP3    H277843   6.357   3.027   4.005  0.0047  1.2655  0.0021
18810TIP3   OH277844   0.431   0.636   6.081 -0.0674  0.5097  0.1266
18810TIP3    H177845   0.443   0.543   6.096  0.3492  0.5600  0.0934
18810TIP3    H277846   0.426   0.674   6.170  2.2892  0.7907  0.1870
18811TIP3   OH277847   1.580   1.195   6.065 -0.3506 -0.1433 -0.1735
18811TIP3    H177848   1.584   1.290   6.079 -0.9229 -0.0262 -0.7228
18811TIP3    H277849   1.618   1.157   6.144  1.5623  0.5685 -0.6916
18812TIP3   OH277850   1.073   4.031   2.642  0.3635 -0.1093  0.0807
18812TIP3    H177851   1.119   3.947   2.648  2.2069  0.8288  0.0984
18812TIP3    H277852   1.025   4.037   2.724 -0.4525 -1.4831 -0.2641
18813TIP3   OH277853   2.480   6.397  12.380  0.2415 -0.2033 -0.0205
18813TIP3    H177854   2.448   6.474  12.334  1.5670 -0.1048 -0.8284
18813TIP3    H277855   2.425   6.325  12.348 -0.3550  0.2312  0.0094
18814TIP3   OH277856   1.741   4.040  13.254  0.0822  0.0226  0.5020
18814TIP3    H177857   1.797   3.976  13.210  1.3167  1.6988 -0.4512
18814TIP3    H277858   1.784   4.055  13.338  0.0142 -0.0755  0.5551
18815TIP3   OH277859   2.449   1.182   3.676 -0.0981  0.1333 -0.2047
18815TIP3    H177860   2.451   1.278   3.672 -0.9196  0.1461 -0.5720
18815TIP3    H277861   2.456   1.154   3.584  0.9966 -0.1969 -0.0382
18816TIP3   OH277862   5.258   1.498  16.799  0.1265 -0.5748 -0.0455
18816TIP3    H177863   5.344   1.512  16.840  0.1805  0.9353 -0.6048
18816TIP3    H277864   5.213   1.582  16.807 -1.1743 -1.2436 -0.0877
18817TIP3   OH277865   0.928   0.688   4.111 -0.6335 -0.2236 -0.0168
18817TIP3    H177866   0.966   0.624   4.051 -0.6308 -0.8552  0.6297
18817TIP3    H277867   0.916   0.767   4.059 -0.1376 -0.5875 -0.6982
18818TIP3   OH277868   6.402   5.521   4.486 -0.2773  0.3932  0.0400
18818TIP3    H177869   6.313   5.539   4.454  0.2094  0.4226 -1.3715
18818TIP3    H277870   6.422   5.594   4.543 -0.6599  1.1188 -0.7302
18819TIP3   OH277871   0.666   2.074  11.971  0.3427  0.0553 -0.3623
18819TIP3    H177872   0.736   2.076  12.036 -0.1415 -0.1372  0.1774
18819TIP3    H277873   0.702   2.023  11.899  1.3754  1.4031 -0.8403
18820TIP3   OH277874   6.249   3.641   2.632 -0.3224  0.3180  0.2936
18820TIP3    H177875   6.193   3.594   2.693 -0.3995  1.0154  0.7667
18820TIP3    H277876   6.334   3.647   2.677 -0.7473  2.0192  0.9447
18821TIP3   OH277877   3.651   0.366  14.964 -0.0499 -0.2486 -1.0906
18821TIP3    H177878   3.581   0.320  14.918 -1.0364 -1.3661  1.3397
18821TIP3    H277879   3.723   0.303  14.969  0.2577  0.0607 -1.5564
18822TIP3   OH277880   3.536   6.000  15.716  0.1312 -0.1954 -0.2818
18822TIP3    H177881   3.509   6.070  15.657 -0.1979 -0.9682 -1.0656
18822TIP3    H277882   3.626   5.981  15.692  0.3566  0.2246  0.2075
18823TIP3   OH277883   5.415   2.022   4.253 -0.3238  0.3085  0.0143
18823TIP3    H177884   5.440   2.067   4.172 -1.3620  1.4292  0.2843
18823TIP3    H277885   5.442   1.931   4.239  0.9993  0.8073 -0.9177
18824TIP3   OH277886   3.536   1.381   6.102 -0.6053 -0.3766  0.0715
18824TIP3    H177887   3.591   1.304   6.114  0.2070  0.1432 -0.1973
18824TIP3    H277888   3.507   1.404   6.190  1.0474  0.3536  0.4719
18825TIP3   OH277889   2.439   4.495   5.264 -0.0679 -0.2820  0.0351
18825TIP3    H177890   2.392   4.487   5.182 -1.8418 -0.8300  1.0532
18825TIP3    H277891   2.419   4.584   5.295  0.2334 -0.2310  0.0901
18826TIP3   OH277892   0.971   4.399   4.142 -0.3207 -0.6061  0.3977
18826TIP3    H177893   0.957   4.432   4.053  0.6552 -0.3108  0.3337
18826TIP3    H277894   0.903   4.440   4.194  0.8610  1.5855  0.3208
18827TIP3   OH277895   1.590   6.417  14.828  0.8040  0.0386  0.5987
18827TIP3    H177896   1.497   6.402  14.843  0.6317  0.5376  0.0512
18827TIP3    H277897   1.633   6.341  14.867  0.1628 -0.2375  0.7766
18828TIP3   OH277898   0.070   5.460  16.289 -0.6123 -0.2058  0.3974
18828TIP3    H177899   0.158   5.490  16.310 -1.3925  1.6422  1.3221
18828TIP3    H277900   0.042   5.409  16.365 -0.0604 -1.5492 -0.2698
18829TIP3   OH277901   5.399   2.212  12.698 -0.8565  0.1570  0.1310
18829TIP3    H177902   5.407   2.119  12.675 -1.7817  0.1865 -0.3757
18829TIP3    H277903   5.416   2.258  12.616 -0.9190  0.4112  0.2605
18830TIP3   OH277904   4.205   6.441   1.054 -0.4451  0.2171 -0.8217
18830TIP3    H177905   4.148   6.509   1.018  0.1106  1.0926 -0.0775
18830TIP3    H277906   4.164   6.359   1.027 -2.3146  0.8112  0.0564
18831TIP3   OH277907   1.663   0.133   2.647 -0.4835 -0.3486 -0.2391
18831TIP3    H177908   1.749   0.110   2.613 -0.1012  0.5577  0.0728
18831TIP3    H277909   1.611   0.153   2.570  0.2803  1.3702 -0.3639
18832TIP3   OH277910   2.234   2.347   5.682  0.1384 -0.5696 -0.3065
18832TIP3    H177911   2.205   2.360   5.592 -1.7696  0.5754  0.4016
18832TIP3    H277912   2.296   2.418   5.699  1.7849 -1.7538 -1.1801
18833TIP3   OH277913   6.532   4.624  11.526 -0.3903  0.1975  0.6552
18833TIP3    H177914   6.553   4.618  11.433  0.8016  0.3706  0.8964
18833TIP3    H277915   6.548   4.536  11.560 -0.0811  0.3228  0.8375
18834TIP3   OH277916   5.796   0.643   5.389  0.1723 -0.1185 -0.2125
18834TIP3    H177917   5.716   0.590   5.385  0.1704 -0.0696 -1.2623
18834TIP3    H277918   5.861   0.583   5.426 -0.7720  0.4601  2.6088
18835TIP3   OH277919   4.380   1.979  14.153 -0.1479  0.2553 -0.1497
18835TIP3    H177920   4.462   1.940  14.181 -0.5147  0.2439  0.9352
18835TIP3    H277921   4.385   2.071  14.180 -1.4096 -0.2487  2.0922
18836TIP3   OH277922   6.602   1.453   2.779  0.2804  0.1953  0.3349
18836TIP3    H177923   6.598   1.526   2.718 -1.3555  0.1219  0.3087
18836TIP3    H277924   6.622   1.377   2.724  0.9418  0.4522  0.2138
18837TIP3   OH277925   0.241   0.266  16.257 -0.2426 -0.2168  0.1412
18837TIP3    H177926   0.319   0.285  16.309  0.7561 -1.0143 -1.0219
18837TIP3    H277927   0.257   0.309  16.174 -1.4097  0.2624  0.1474
18838TIP3   OH277928   0.072   6.685  14.447  0.3226 -0.1159 -0.7336
18838TIP3    H177929   0.090   6.779  14.442 -0.6999  0.0838 -0.8635
18838TIP3    H277930  -0.022   6.679  14.463  0.2668 -1.1288 -1.3157
18839TIP3   OH277931   5.111   4.881   1.831  0.3928  0.3190 -0.1195
18839TIP3    H177932   5.078   4.801   1.874  0.8645  1.6476  3.0372
18839TIP3    H277933   5.033   4.922   1.793 -0.3408 -0.2645  0.7086
18840TIP3   OH277934   6.669   3.088  14.268 -0.3024  0.0872 -0.3667
18840TIP3    H177935   6.752   3.133  14.256  0.0883 -0.6123 -0.3188
18840TIP3    H277936   6.652   3.095  14.362 -0.2962  0.2221 -0.3753
18841TIP3   OH277937   3.870   0.053   2.652 -0.7810  0.0554  0.2329
18841TIP3    H177938   3.907   0.096   2.575  0.5649 -0.7073  0.4420
18841TIP3    H277939   3.945   0.025   2.704 -1.6472 -0.8330  1.0643
18842TIP3   OH277940   1.363   3.742  17.301 -0.1546  0.2926  0.3387
18842TIP3    H177941   1.311   3.788  17.236  0.3033  0.8056  0.3307
18842TIP3    H277942   1.360   3.650  17.274 -0.4374  0.4263 -0.0795
18843TIP3   OH277943   1.949   6.117   6.261 -0.0562 -0.6491 -0.0882
18843TIP3    H177944   2.012   6.047   6.276  1.2221  0.3740 -0.5633
18843TIP3    H277945   1.899   6.122   6.343  0.0911 -1.8413  0.0876
18844TIP3   OH277946   6.289   2.733  12.524 -0.1683  0.1782  0.0714
18844TIP3    H177947   6.289   2.638  12.537 -0.8742  0.0339 -0.9115
18844TIP3    H277948   6.199   2.759  12.541  0.3441  0.9314  1.9258
18845TIP3   OH277949   0.534   3.091  15.151 -0.0800 -0.7154  0.5514
18845TIP3    H177950   0.439   3.102  15.144  0.0972  0.5478 -0.1679
18845TIP3    H277951   0.546   3.001  15.183 -1.5137 -0.8246  0.8198
18846TIP3   OH277952   3.601   3.363   2.003  0.2891  0.0702  0.5167
18846TIP3    H177953   3.523   3.383   2.054  0.0383  2.7525 -0.7532
18846TIP3    H277954   3.572   3.370   1.912  1.6163 -0.7794 -0.0047
18847TIP3   OH277955   0.238   0.969  15.571  0.7780  0.3852  0.1686
18847TIP3    H177956   0.194   0.884  15.580  0.5403  0.4316 -0.5085
18847TIP3    H277957   0.295   0.959  15.495 -0.4068  1.3065 -0.8820
18848TIP3   OH277958   0.270   4.440   0.204 -0.0290  0.2548  0.3897
18848TIP3    H177959   0.276   4.364   0.262 -0.3821  1.0601  1.4899
18848TIP3    H277960   0.214   4.502   0.250  0.5114  1.3249 -0.3507
18849TIP3   OH277961   4.355   3.235  15.767 -0.6887 -0.1408  0.2490
18849TIP3    H177962   4.389   3.177  15.836 -1.7076 -0.5424  0.4378
18849TIP3    H277963   4.279   3.188  15.732 -1.4073  0.9809  0.2531
18850TIP3   OH277964   2.905   4.767   2.824 -0.5818 -0.5581  0.0986
18850TIP3    H177965   2.900   4.776   2.919 -0.2666 -0.0876  0.0724
18850TIP3    H277966   2.994   4.736   2.808 -1.1381 -2.2700  0.0677
18851TIP3   OH277967   5.532   0.196  13.377 -0.2254  0.0726  0.1853
18851TIP3    H177968   5.490   0.276  13.346 -1.7133 -0.3311  1.0692
18851TIP3    H277969   5.616   0.225  13.413 -0.5829  1.1754  0.1567
18852TIP3   OH277970   2.049   2.644  13.758 -0.0897  0.9231 -0.2868
18852TIP3    H177971   2.063   2.673  13.848 -0.8299 -0.0459  0.1701
18852TIP3    H277972   2.119   2.581  13.742  0.4719  1.6297 -0.6559
18853TIP3   OH277973   5.071   1.213  16.187  0.2684 -0.3028 -0.1533
18853TIP3    H177974   5.022   1.287  16.220 -0.1495 -0.4653 -0.4005
18853TIP3    H277975   5.037   1.199  16.098  0.5243 -0.6258 -0.2036
18854TIP3   OH277976   4.916   0.295   1.438  0.1574  0.4442 -0.4486
18854TIP3    H177977   4.825   0.273   1.416  0.0138 -0.7908  1.1503
18854TIP3    H277978   4.968   0.250   1.371 -0.3035 -2.2661  0.8494
18855TIP3   OH277979   2.543   1.447   3.656 -0.4571 -0.3919 -0.9175
18855TIP3    H177980   2.628   1.420   3.690  0.3008  0.9182 -1.7180
18855TIP3    H277981   2.515   1.519   3.712 -0.6371 -0.2371 -1.2037
18856TIP3   OH277982   0.284   3.689  13.183  0.3078 -0.2848  0.8156
18856TIP3    H177983   0.326   3.763  13.227  0.7768 -0.7446  1.1580
18856TIP3    H277984   0.239   3.642  13.254  0.7106 -0.7919  0.7428
18857TIP3   OH277985   0.783   6.357  16.100 -0.0106 -0.5243  0.3319
18857TIP3    H177986   0.863   6.409  16.102  0.6093 -1.4823  1.7963
18857TIP3    H277987   0.721   6.407  16.155 -1.3557  1.5203 -2.7519
18858TIP3   OH277988   1.555   3.028   0.350  0.0217 -0.0289 -0.0669
18858TIP3    H177989   1.563   2.938   0.382 -0.0343 -0.0931 -0.2358
18858TIP3    H277990   1.464   3.035   0.320 -0.9340  0.9555  2.6799
18859TIP3   OH277991   5.113   2.288  12.730 -0.3279 -0.1206 -0.0117
18859TIP3    H177992   5.091   2.299  12.637  0.0269 -0.6839 -0.1665
18859TIP3    H277993   5.205   2.265  12.730 -0.3091 -0.0425  0.4899
18860TIP3   OH277994   2.720   4.439   4.087  0.1964  0.6907 -0.2987
18860TIP3    H177995   2.753   4.395   4.165  0.4321 -0.3290 -0.9444
18860TIP3    H277996   2.702   4.528   4.115 -0.8212  0.0487  1.2000
18861TIP3   OH277997   6.494   2.724   5.947  0.0996 -0.1159 -0.1197
18861TIP3    H177998   6.482   2.665   5.872 -2.3599 -1.9842  1.5866
18861TIP3    H277999   6.544   2.672   6.010 -0.3401  0.3651  0.6416
18862TIP3   OH278000   3.092   5.226   0.481  0.0479  0.1000  0.8973
18862TIP3    H178001   3.006   5.220   0.439  0.9274  2.1563 -1.4185
18862TIP3    H278002   3.141   5.152   0.446 -0.6624 -0.9866  2.1048
18863TIP3   OH278003   0.353   6.467   3.729  0.5798  0.4966 -0.1158
18863TIP3    H178004   0.424   6.408   3.704  2.9983  1.7378  3.0892
18863TIP3    H278005   0.343   6.453   3.823 -4.2654 -0.2891 -0.4996
18864TIP3   OH278006   3.337   2.898   5.437 -0.0413 -0.3400  0.5705
18864TIP3    H178007   3.242   2.908   5.438  0.0284  0.6007 -0.6836
18864TIP3    H278008   3.351   2.809   5.405 -0.4911 -0.4751  0.7390
18865TIP3   OH278009   4.860   6.352   2.288  0.6739  0.5095 -0.0798
18865TIP3    H178010   4.939   6.377   2.240 -1.5369  2.4800 -2.9930
18865TIP3    H278011   4.812   6.296   2.227  0.1924 -1.5820  2.0482
18866TIP3   OH278012   0.355   6.393  16.853  0.0785 -0.3394 -0.2146
18866TIP3    H178013   0.445   6.396  16.887  0.0642 -0.8872 -0.1269
18866TIP3    H278014   0.318   6.313  16.890 -1.2951  1.1402  1.8298
18867TIP3   OH278015   4.179   4.777  12.785  0.4641  0.0641 -0.1717
18867TIP3    H178016   4.169   4.708  12.851  1.3874 -0.8058 -0.9123
18867TIP3    H278017   4.254   4.749  12.732  0.1065  1.0317 -1.2325
18868TIP3   OH278018   4.585   3.151   3.376 -0.3267 -0.3841  0.1024
18868TIP3    H178019   4.673   3.184   3.390 -0.9614  0.1729  3.6805
18868TIP3    H278020   4.585   3.121   3.285  3.3924 -0.0963 -0.1438
18869TIP3   OH278021   4.197   0.448  14.048 -0.1294 -0.5875 -0.9350
18869TIP3    H178022   4.129   0.461  13.982 -1.1262 -0.9900 -0.0049
18869TIP3    H278023   4.155   0.467  14.132  1.1118 -0.1033 -0.3845
18870TIP3   OH278024   3.229   6.731  15.642  0.5867 -0.5889 -0.4576
18870TIP3    H178025   3.151   6.743  15.587 -0.2410 -1.7641  0.4082
18870TIP3    H278026   3.262   6.820  15.656 -0.2118 -0.1214 -1.3813
18871TIP3   OH278027   0.306   0.168   0.577  0.2075  0.5532  0.3183
18871TIP3    H178028   0.233   0.177   0.638 -0.5383  0.2733 -0.5110
18871TIP3    H278029   0.347   0.254   0.576  0.2770  0.5445  1.2597
18872TIP3   OH278030   1.544   0.587   4.506 -0.2609 -0.5173 -0.0020
18872TIP3    H178031   1.479   0.654   4.485 -0.7128 -1.3191 -1.2335
18872TIP3    H278032   1.622   0.637   4.532  0.0517  0.5770 -2.7108
18873TIP3   OH278033   1.167   5.235   1.381  0.0689  0.0245 -0.3240
18873TIP3    H178034   1.120   5.196   1.454 -0.1100 -0.6621 -0.8015
18873TIP3    H278035   1.099   5.264   1.320  0.2352 -0.2429 -0.6432
18874TIP3   OH278036   3.813   3.601  12.560  0.0352 -0.3570 -0.0782
18874TIP3    H178037   3.863   3.554  12.627 -0.2012  0.8164  0.9329
18874TIP3    H278038   3.880   3.634  12.500  0.2361 -1.5631 -0.5547
18875TIP3   OH278039   0.160   5.789   0.916 -0.2981  0.3043  0.0375
18875TIP3    H178040   0.125   5.857   0.859 -1.6292 -0.5032 -0.1531
18875TIP3    H278041   0.090   5.774   0.980  1.0517  1.0146  1.7553
18876TIP3   OH278042   5.948   2.266   5.083  0.1647 -0.0022  0.4297
18876TIP3    H178043   5.970   2.321   5.158  0.1305 -0.0763  0.4935
18876TIP3    H278044   5.995   2.306   5.010  0.5903 -0.2133  0.5835
18877TIP3   OH278045   5.622   0.729  13.539  0.2543  0.5434 -0.2926
18877TIP3    H178046   5.538   0.702  13.503  0.4760  1.0811 -1.2328
18877TIP3    H278047   5.642   0.811  13.495  1.5008  0.1836 -0.4317
18878TIP3   OH278048   1.854   1.894   3.942  0.2933 -0.0783 -0.1322
18878TIP3    H178049   1.827   1.986   3.941 -0.7222 -0.3706 -1.1696
18878TIP3    H278050   1.819   1.860   4.024 -1.0152 -0.0124 -0.6477
18879TIP3   OH278051   0.517   2.115  15.077  0.4311  0.0032  0.1049
18879TIP3    H178052   0.431   2.081  15.102  1.4081 -1.0417  2.3149
18879TIP3    H278053   0.527   2.091  14.986 -1.8206  0.6430 -0.3909
18880TIP3   OH278054   0.210   3.908   6.087 -0.2562 -0.4333  0.1081
18880TIP3    H178055   0.286   3.924   6.143 -0.5760  0.9150  0.2090
18880TIP3    H278056   0.238   3.841   6.025  1.6371  1.3084 -1.0239
18881TIP3   OH278057   4.709   1.226   5.207 -0.1584  0.2288  0.6415
18881TIP3    H178058   4.805   1.227   5.216  0.0947 -2.5758 -0.7281
18881TIP3    H278059   4.694   1.228   5.113 -1.5771  2.0990  0.8607
18882TIP3   OH278060   0.212   5.353  13.420  0.2206 -0.2451  0.5686
18882TIP3    H178061   0.251   5.431  13.380  0.7385  0.4928  2.3893
18882TIP3    H278062   0.279   5.322  13.481 -1.2891 -0.0355  2.4213
18883TIP3   OH278063   3.379   6.570   3.504 -0.0855 -0.0496 -0.1896
18883TIP3    H178064   3.363   6.659   3.471 -0.4350  0.1947  0.5945
18883TIP3    H278065   3.296   6.545   3.546  0.5759  0.0054  1.2303
18884TIP3   OH278066   1.956   3.669  13.502  0.3666  0.3023 -0.4480
18884TIP3    H178067   1.989   3.579  13.506 -3.0497 -1.2229 -2.1688
18884TIP3    H278068   1.933   3.690  13.593  2.3815  0.0016  0.1717
18885TIP3   OH278069   4.850   5.475   2.442 -0.0148 -0.7914 -0.2382
18885TIP3    H178070   4.775   5.514   2.486 -0.2495 -2.0682  0.5343
18885TIP3    H278071   4.815   5.445   2.358 -0.2410 -0.9047 -0.1045
18886TIP3   OH278072   2.662   0.937   3.659 -0.3587 -0.2627  0.1691
18886TIP3    H178073   2.624   0.999   3.721 -1.2635  0.2002 -0.7992
18886TIP3    H278074   2.614   0.953   3.578 -0.0392 -1.6701 -0.3252
18887TIP3   OH278075   4.467   0.438  11.480 -0.3336  0.3727 -0.0471
18887TIP3    H178076   4.386   0.449  11.430 -0.8547  0.9292  0.8897
18887TIP3    H278077   4.522   0.512  11.454  0.7531 -1.0709 -2.2145
18888TIP3   OH278078   1.828   2.848  14.929 -0.1369 -0.2068  0.2158
18888TIP3    H178079   1.748   2.822  14.974 -0.6974 -0.3699 -0.8386
18888TIP3    H278080   1.798   2.902  14.855  0.7901  0.5852  0.3858
18889TIP3   OH278081   6.430   6.350   0.576 -0.6814  0.5947 -0.4383
18889TIP3    H178082   6.410   6.430   0.528 -0.9708  2.1491  2.0820
18889TIP3    H278083   6.354   6.293   0.561 -1.0309  1.2537 -1.2829
18890TIP3   OH278084   6.768   1.585  16.728 -0.0699 -0.1997 -0.6966
18890TIP3    H178085   6.837   1.604  16.664  0.0942  1.0684 -0.1848
18890TIP3    H278086   6.697   1.548  16.676  1.0082 -1.6273 -1.2296
18891TIP3   OH278087   2.324   2.343   1.181  0.7811  0.0652 -0.3443
18891TIP3    H178088   2.269   2.290   1.124  1.3213 -0.0874 -0.7339
18891TIP3    H278089   2.279   2.342   1.266  1.2775 -1.8483 -0.0498
18892TIP3   OH278090   4.193   2.893   5.883  0.5840 -0.0829  0.3873
18892TIP3    H178091   4.171   2.878   5.975  1.8162 -1.3055  0.5133
18892TIP3    H278092   4.111   2.874   5.836  0.3183 -0.8639  1.1209
18893TIP3   OH278093   1.134   6.428  16.648 -0.0323 -0.3674 -0.0783
18893TIP3    H178094   1.141   6.451  16.555  0.7561 -3.0940 -0.7823
18893TIP3    H278095   1.224   6.415  16.677 -0.2608  0.5011  1.1237
18894TIP3   OH278096   0.076   0.364  15.826 -0.0563 -0.1745 -0.0976
18894TIP3    H178097   0.112   0.276  15.821  2.0324  0.3122  3.2513
18894TIP3    H278098   0.141   0.420  15.783 -0.1612 -0.0289 -0.0690
18895TIP3   OH278099   0.745   3.202  10.740 -0.3492 -0.3284  0.1531
18895TIP3    H178100   0.744   3.148  10.661  1.5343 -1.2494  0.7090
18895TIP3    H278101   0.838   3.216  10.758 -0.7639  2.2506  0.6357
18896TIP3   OH278102   2.871   6.000   1.499  0.1973  0.0518 -0.2249
18896TIP3    H178103   2.910   6.001   1.586 -0.4885 -2.1989  0.1940
18896TIP3    H278104   2.800   5.935   1.506  1.0537 -1.2937 -2.8190
18897TIP3   OH278105   4.525   0.007   0.168  0.5085  0.6386  0.2725
18897TIP3    H178106   4.556   0.074   0.106  1.1877  0.8721  0.8511
18897TIP3    H278107   4.605  -0.037   0.198  0.1741  0.4080  0.8413
18898TIP3   OH278108   2.097   5.155   2.935  0.2209  0.4167  0.6084
18898TIP3    H178109   2.116   5.245   2.906 -0.0630  0.1896 -0.3448
18898TIP3    H278110   2.107   5.103   2.855 -0.5547 -0.2583  0.9411
18899TIP3   OH278111   1.744   4.385  14.504  0.3705 -0.1274 -0.2157
18899TIP3    H178112   1.735   4.466  14.553 -0.2157 -1.2658  1.6409
18899TIP3    H278113   1.731   4.411  14.413  0.0983  1.8247  0.3273
18900TIP3   OH278114   5.676   2.016  13.129  0.2660  0.9096 -0.1105
18900TIP3    H178115   5.585   2.045  13.132  0.9288  3.1883  0.1145
18900TIP3    H278116   5.683   1.965  13.048 -1.3223  0.1407  0.2046
18901TIP3   OH278117   4.421   1.496  16.835  0.0121  0.6339 -0.1710
18901TIP3    H178118   4.429   1.588  16.812 -0.3743  0.8879  0.6840
18901TIP3    H278119   4.491   1.453  16.785 -0.6629  1.1821 -1.6256
18902TIP3   OH278120   6.661   0.478  13.431 -0.2477  0.1014  0.0290
18902TIP3    H178121   6.733   0.428  13.391 -0.5505  0.3905 -0.9157
18902TIP3    H278122   6.655   0.557  13.377  0.1132  1.0960  1.4038
18903TIP3   OH278123   0.962   6.738  15.312 -0.4872  0.3148  0.1715
18903TIP3    H178124   0.946   6.832  15.308 -3.7317 -0.1760 -1.0323
18903TIP3    H278125   0.918   6.709  15.392  0.0354 -0.2636  0.2616
18904TIP3   OH278126   2.226   2.309   1.431  0.7950  0.6776 -0.0262
18904TIP3    H178127   2.148   2.362   1.446 -0.2820 -0.8095 -0.1851
18904TIP3    H278128   2.260   2.292   1.519 -0.1994 -0.2947  0.1875
18905TIP3   OH278129   0.673   0.333  12.483  0.0353 -0.0717 -0.2470
18905TIP3    H178130   0.753   0.318  12.534 -1.0435  0.5724  1.6990
18905TIP3    H278131   0.670   0.427  12.470  0.2155 -0.2122 -1.4169
18906TIP3   OH278132   5.812   5.826  11.500  0.4642  0.7950  0.0212
18906TIP3    H178133   5.741   5.789  11.449 -0.2647  0.3226  1.3398
18906TIP3    H278134   5.777   5.908  11.535  0.3112  0.2660  1.1748
18907TIP3   OH278135   5.761   5.305  12.323  0.1368 -0.3444 -0.0439
18907TIP3    H178136   5.680   5.356  12.331  1.2897  1.5768 -0.1989
18907TIP3    H278137   5.737   5.234  12.263 -1.5355 -0.0635  0.2207
18908TIP3   OH278138   1.365   0.541   3.724  0.0828 -0.2266 -0.1266
18908TIP3    H178139   1.292   0.570   3.669  1.3483  1.7578 -0.8711
18908TIP3    H278140   1.443   0.556   3.670  1.0730 -2.6087  0.5116
18909TIP3   OH278141   2.114   2.776  13.267  0.5302  0.5418 -0.2602
18909TIP3    H178142   2.027   2.813  13.280  0.6957  1.2399 -1.0617
18909TIP3    H278143   2.115   2.697  13.322 -0.7375  0.3032 -0.5428
18910TIP3   OH278144   4.621   3.251  15.174  0.2285 -0.1323  0.0230
18910TIP3    H178145   4.663   3.177  15.217  0.5151  0.0703  0.0935
18910TIP3    H278146   4.601   3.219  15.086 -0.9834 -0.7807  0.5002
18911TIP3   OH278147   6.404   6.037   0.249 -0.3229  0.4246  0.9477
18911TIP3    H178148   6.308   6.039   0.245 -0.2782  0.3620 -1.3545
18911TIP3    H278149   6.423   6.014   0.340 -2.5439 -1.5791  1.0287
18912TIP3   OH278150   2.875   2.975  17.059  0.2995 -0.3929 -0.1573
18912TIP3    H178151   2.884   2.982  17.154  0.7492  1.2273 -0.2909
18912TIP3    H278152   2.883   2.882  17.041 -0.4648 -0.8019  1.4512
18913TIP3   OH278153   2.058   5.158   1.443 -0.3524  0.3088 -0.0296
18913TIP3    H178154   1.966   5.160   1.467 -0.2815  0.1134  0.2697
18913TIP3    H278155   2.059   5.159   1.347 -0.6759 -0.1198 -0.0389
18914TIP3   OH278156   0.422   2.244  13.241 -0.0654  0.5656 -0.1935
18914TIP3    H178157   0.408   2.306  13.170  2.0500  0.3624 -0.8576
18914TIP3    H278158   0.475   2.291  13.305  1.3979 -0.4301 -0.6132
18915TIP3   OH278159   4.904   1.389   5.674  0.2665  0.4746 -0.3295
18915TIP3    H178160   4.944   1.389   5.761 -1.2005 -0.5779  0.3771
18915TIP3    H278161   4.909   1.298   5.645  0.9008  0.8395 -1.4617
18916TIP3   OH278162   2.241   5.118   1.801  0.5249 -0.2047  0.3121
18916TIP3    H178163   2.313   5.076   1.755  0.1154 -0.3011 -0.2479
18916TIP3    H278164   2.180   5.047   1.820  0.4482 -0.0789  0.5347
18917TIP3   OH278165   5.958   4.307   5.260  0.0894  0.1736 -0.1968
18917TIP3    H178166   6.029   4.366   5.282 -0.0544  1.5375 -2.9290
18917TIP3    H278167   5.881   4.346   5.301  0.2058  1.2576 -0.9512
18918TIP3   OH278168   4.014   5.564   2.084  0.4127 -0.3485 -0.0814
18918TIP3    H178169   3.923   5.538   2.098 -0.0545  0.8213 -0.8154
18918TIP3    H278170   4.011   5.620   2.007  1.7788 -0.3481 -0.1569
18919TIP3   OH278171   6.569   2.825  16.744 -0.2086 -0.5474 -0.0401
18919TIP3    H178172   6.635   2.801  16.679  0.8119 -1.3908  1.2485
18919TIP3    H278173   6.489   2.782  16.714 -0.1405  0.2575 -1.4768
18920TIP3   OH278174   3.148   3.201   6.538 -0.3352 -0.7005  0.1022
18920TIP3    H178175   3.159   3.233   6.449  0.3427  1.3568  0.8740
18920TIP3    H278176   3.062   3.158   6.539 -0.2557 -0.9404 -1.5606
18921TIP3   OH278177   4.862   4.967   1.708 -1.0290 -0.3206 -0.6826
18921TIP3    H178178   4.823   4.887   1.742 -0.1798  0.0899  1.3991
18921TIP3    H278179   4.787   5.019   1.679 -1.5778 -1.8832 -2.2055
18922TIP3   OH278180   3.644   6.510  16.318  0.4580 -0.2991  0.2080
18922TIP3    H178181   3.669   6.452  16.390  0.0309  0.9420  1.3993
18922TIP3    H278182   3.569   6.466  16.277  0.0653 -0.5442  1.1643
18923TIP3   OH278183   3.454   6.613  13.936 -0.0055 -0.6186 -0.1188
18923TIP3    H178184   3.514   6.552  13.980 -0.0479 -0.8890 -0.4363
18923TIP3    H278185   3.508   6.656  13.870 -0.0279 -0.4625 -0.0358
18924TIP3   OH278186   1.919   6.049  12.215 -0.5656 -0.1147 -0.1903
18924TIP3    H178187   1.920   6.133  12.170  0.9764  0.1166  0.2152
18924TIP3    H278188   1.888   6.069  12.304  1.0953  0.2845  0.3242
18925TIP3   OH278189   0.824   3.411  12.366  0.0584 -0.1697  0.0781
18925TIP3    H178190   0.841   3.371  12.280 -0.3322 -0.5947  0.1932
18925TIP3    H278191   0.903   3.462  12.384  0.9471 -1.5399  0.2847
18926TIP3   OH278192   0.670   0.833  11.241 -0.5651 -0.6420 -0.2252
18926TIP3    H178193   0.660   0.801  11.151  0.6008 -2.3301  0.2073
18926TIP3    H278194   0.762   0.857  11.248 -1.0987  1.6362 -0.1016
18927TIP3   OH278195   4.521   4.198  13.044 -0.0826 -0.2894 -0.0367
18927TIP3    H178196   4.560   4.120  13.083 -0.1307 -1.3917 -2.0235
18927TIP3    H278197   4.474   4.165  12.967 -0.2676  1.6822 -0.8344
18928TIP3   OH278198   1.047   4.500   4.625 -0.1498 -0.6957  0.0998
18928TIP3    H178199   0.960   4.529   4.597 -0.2278  0.7397  1.6885
18928TIP3    H278200   1.084   4.458   4.547 -0.7192  2.1886 -1.9071
18929TIP3   OH278201   0.957   0.801   0.752 -0.3218  0.5224 -0.7201
18929TIP3    H178202   1.009   0.881   0.749 -0.5415  0.8888  2.0832
18929TIP3    H278203   1.008   0.738   0.700  2.4529  1.1756  0.9610
18930TIP3   OH278204   0.340   1.534  13.307 -0.4168 -0.0643 -0.3814
18930TIP3    H178205   0.352   1.477  13.231  1.8097  2.3018 -1.9939
18930TIP3    H278206   0.372   1.482  13.381 -2.1912 -2.2552 -1.0260
18931TIP3   OH278207   6.360   5.488   3.064  0.1385 -0.1035 -0.7151
18931TIP3    H178208   6.344   5.529   3.149 -0.0183 -1.9906  0.2076
18931TIP3    H278209   6.273   5.460   3.035  0.4575 -1.4550 -0.4171
18932TIP3   OH278210   1.879   1.892  13.162 -0.0856  0.2506 -0.2112
18932TIP3    H178211   1.928   1.901  13.081  1.0338 -0.4807  0.3666
18932TIP3    H278212   1.932   1.938  13.228  0.7720 -1.9860  0.7716
18933TIP3   OH278213   3.825   3.578  13.104  0.4070  0.1132 -0.7288
18933TIP3    H178214   3.867   3.548  13.185 -0.1712  2.1829  0.4254
18933TIP3    H278215   3.761   3.510  13.083 -0.3042  0.0801  1.3078
18934TIP3   OH278216   3.752   0.857   5.779  0.0199 -0.6010  0.4892
18934TIP3    H178217   3.782   0.900   5.699  1.0922  0.0694  1.2203
18934TIP3    H278218   3.813   0.784   5.792  0.5520 -0.0376  1.2689
18935TIP3   OH278219   2.847   1.562  17.296  0.0469 -1.2335 -0.2012
18935TIP3    H178220   2.810   1.556  17.384  0.8403  0.7702  0.3223
18935TIP3    H278221   2.780   1.525  17.239 -0.0452 -3.6116  1.3007
18936TIP3   OH278222   2.776   5.666  16.624  0.1717 -0.2481  0.5087
18936TIP3    H178223   2.842   5.634  16.686  2.2900  1.4519 -0.7120
18936TIP3    H278224   2.747   5.588  16.577  1.5326 -1.0281  0.9094
18937TIP3   OH278225   0.367   6.167  17.025 -0.2370  0.1121  0.1142
18937TIP3    H178226   0.355   6.224  17.101 -1.1431 -0.7001  0.6081
18937TIP3    H278227   0.461   6.148  17.022  0.0949  1.6880 -0.1217
18938TIP3   OH278228   0.279   2.010   1.297  0.7431 -0.5802 -0.2902
18938TIP3    H178229   0.279   2.060   1.215 -1.1581  0.6159  0.3644
18938TIP3    H278230   0.308   1.922   1.272  1.0500 -0.0124 -2.0715
18939TIP3   OH278231   4.438   3.962  12.622 -0.0006  0.4929 -0.5398
18939TIP3    H178232   4.425   3.889  12.683  0.9993  0.4295 -0.3985
18939TIP3    H278233   4.352   3.974  12.582 -0.5827  0.2911  0.6032
18940TIP3   OH278234   5.432   4.635   1.644 -0.3004  0.7637 -0.5152
18940TIP3    H178235   5.461   4.672   1.727  0.3978 -0.0879 -0.3715
18940TIP3    H278236   5.503   4.655   1.583  0.6447 -1.2826 -0.1748
18941TIP3   OH278237   4.622   3.976  13.431 -0.2777 -0.0201  0.3819
18941TIP3    H178238   4.699   4.015  13.390  0.6160 -1.8450  0.1941
18941TIP3    H278239   4.626   4.005  13.522  0.1825  0.5301  0.1940
18942TIP3   OH278240   6.303   2.132   3.134  0.2675  0.1676 -0.1594
18942TIP3    H178241   6.281   2.110   3.043  2.5510  0.5051 -0.8727
18942TIP3    H278242   6.219   2.151   3.176 -0.8903 -0.5549 -2.0487
18943TIP3   OH278243   2.096   1.048  11.224  0.1022  0.1429 -0.2441
18943TIP3    H178244   2.079   1.112  11.155  1.0813  0.6753 -0.0285
18943TIP3    H278245   2.124   0.969  11.178  1.7800  0.8197 -0.4750
18944TIP3   OH278246   3.757   4.554   6.876  0.8188  0.3212  0.2290
18944TIP3    H178247   3.814   4.606   6.820 -1.0145  1.8995 -0.2895
18944TIP3    H278248   3.713   4.617   6.932 -2.2693 -0.4018 -1.1252
18945TIP3   OH278249   5.077   3.993  13.703 -0.6694  0.0058 -0.0469
18945TIP3    H178250   5.069   4.077  13.658 -0.3181 -0.3733 -0.8314
18945TIP3    H278251   5.170   3.974  13.705 -0.7458 -0.3821  0.0991
18946TIP3   OH278252   2.081   5.415  15.734 -0.0949  0.0395  0.6093
18946TIP3    H178253   2.120   5.391  15.650 -0.1489  2.7913 -0.2995
18946TIP3    H278254   2.107   5.344  15.794  3.4169 -0.0103 -0.7299
18947TIP3   OH278255   2.564   0.120  13.662 -1.0713  0.0753 -0.1618
18947TIP3    H178256   2.497   0.175  13.703 -0.6760 -0.8591  1.8565
18947TIP3    H278257   2.541   0.031  13.687  1.5193 -0.2138  1.6937
18948TIP3   OH278258   5.223   2.939  16.372 -0.0757 -0.1865 -0.2304
18948TIP3    H178259   5.319   2.943  16.373 -0.0845  0.6654 -1.2027
18948TIP3    H278260   5.201   2.895  16.290 -0.5238  0.7213 -0.6189
18949TIP3   OH278261   5.648   4.939  11.729 -0.0364  0.0532 -0.2589
18949TIP3    H178262   5.598   4.997  11.671  1.3400  1.5885  0.0058
18949TIP3    H278263   5.600   4.942  11.812  0.3729  1.3889 -0.0482
18950TIP3   OH278264   0.962   1.863  16.557  0.5980 -0.2576 -0.0675
18950TIP3    H178265   0.960   1.891  16.466 -0.9861 -0.1735 -0.0382
18950TIP3    H278266   1.029   1.917  16.598 -0.3917  1.4826 -0.6470
18951TIP3   OH278267   5.661   0.724  11.293 -0.0966  0.6084  0.3531
18951TIP3    H178268   5.709   0.789  11.242 -1.3052 -0.4905 -2.3408
18951TIP3    H278269   5.720   0.648  11.296  0.0486  0.7329  0.8193
18952TIP3   OH278270   4.605   1.987   1.050  0.5485  0.1192  0.0280
18952TIP3    H178271   4.582   2.035   0.970 -2.1214  0.3035  0.7876
18952TIP3    H278272   4.610   2.055   1.117  0.6391 -0.2506  0.3919
18953TIP3   OH278273   4.777   3.660  11.524  0.1278 -0.2070  0.0561
18953TIP3    H178274   4.842   3.606  11.568  0.9639  0.0253 -0.8760
18953TIP3    H278275   4.759   3.731  11.585  1.7599  0.4695 -0.2204
18954TIP3   OH278276   6.063   5.134   1.520  0.0252 -1.0857  0.0350
18954TIP3    H178277   5.992   5.133   1.456 -0.2501 -0.6016  0.3358
18954TIP3    H278278   6.044   5.060   1.578 -0.2059 -0.9782  0.0934
18955TIP3   OH278279   4.907   1.498  13.647  0.3528 -0.1262  0.1585
18955TIP3    H178280   4.954   1.422  13.681  0.7987  0.4104  0.7722
18955TIP3    H278281   4.896   1.556  13.723  1.0111  0.9180 -0.5138
18956TIP3   OH278282   3.110   5.869  11.273  0.0649  1.0386 -0.0760
18956TIP3    H178283   3.110   5.934  11.203  1.1114  1.8611  0.6622
18956TIP3    H278284   3.188   5.815  11.256  0.2089  1.1131  0.3248
18957TIP3   OH278285   0.212   3.804   0.007 -0.7555  0.1743 -0.2898
18957TIP3    H178286   0.234   3.753   0.085  0.3192  0.3954 -0.4295
18957TIP3    H278287   0.271   3.879   0.010 -2.1009  1.2575 -0.2539
18958TIP3   OH278288   1.186   2.625   1.715 -0.0824  0.1953  0.3553
18958TIP3    H178289   1.209   2.670   1.634 -0.9519  0.4357  0.2351
18958TIP3    H278290   1.203   2.533   1.697 -0.3804  0.2360 -0.1390
18959TIP3   OH278291   2.786   3.983  15.655  0.5175  0.2033 -0.6175
18959TIP3    H178292   2.794   3.963  15.749  1.2865  0.5599 -0.5999
18959TIP3    H278293   2.873   4.012  15.629  0.1870  0.5866 -1.3390
18960TIP3   OH278294   0.067   4.387  11.944  0.4390 -0.2400  0.2080
18960TIP3    H178295   0.091   4.471  11.904  1.3266 -0.1900  0.8066
18960TIP3    H278296   0.145   4.332  11.932 -1.0284 -1.9737 -2.6460
18961TIP3   OH278297   3.283   5.939   5.134  0.1447  0.1477 -0.3830
18961TIP3    H178298   3.351   5.873   5.121 -0.0687 -0.3495  0.8988
18961TIP3    H278299   3.202   5.894   5.108  0.1359  0.3101 -0.6453
18962TIP3   OH278300   0.450   3.431   1.617 -0.5492  0.0107  0.3323
18962TIP3    H178301   0.434   3.523   1.596  0.5093  0.3614  0.9553
18962TIP3    H278302   0.500   3.399   1.542 -1.1459 -0.1373 -0.0078
18963TIP3   OH278303   3.757   3.479   4.959 -0.6164 -0.3903  0.1732
18963TIP3    H178304   3.794   3.498   5.045  2.0022 -0.4498 -0.8315
18963TIP3    H278305   3.728   3.563   4.926  1.1393  0.1993 -0.0106
18964TIP3   OH278306   3.883   6.224   1.096 -0.2278 -0.7248  0.1883
18964TIP3    H178307   3.912   6.155   1.155  1.8806 -1.0132 -1.0852
18964TIP3    H278308   3.848   6.176   1.020  1.4598 -0.4684 -0.8030
18965TIP3   OH278309   2.119   6.739   6.686 -0.1664  0.2898  0.7637
18965TIP3    H178310   2.136   6.833   6.695 -1.0713  0.3746  1.8335
18965TIP3    H278311   2.123   6.706   6.776  0.7980 -0.8247  0.3238
18966TIP3   OH278312   5.073   2.567  15.637 -0.3650  0.3763 -0.2723
18966TIP3    H178313   5.109   2.655  15.649  0.3163  0.1157 -0.3820
18966TIP3    H278314   4.984   2.573  15.673  0.8816  0.1321  3.2203
18967TIP3   OH278315   1.122   2.090   3.394 -0.0292  0.4876  0.0862
18967TIP3    H178316   1.191   2.145   3.430  1.2431 -0.7321 -0.3829
18967TIP3    H278317   1.166   2.036   3.329 -1.6695  0.4754 -1.0746
18968TIP3   OH278318   6.110   1.736   2.663 -0.2392  0.4065  0.3710
18968TIP3    H178319   6.047   1.683   2.616 -0.4809  0.9350  0.0881
18968TIP3    H278320   6.058   1.782   2.730  0.0259  0.0031  0.8650
18969TIP3   OH278321   1.413   2.230   5.396  0.1963 -0.4989 -0.2266
18969TIP3    H178322   1.489   2.172   5.388  1.2404  0.5260  1.5223
18969TIP3    H278323   1.347   2.177   5.441  0.2830 -1.0374 -0.7183
18970TIP3   OH278324   4.221   5.957   3.851  0.2797  0.1610 -0.1662
18970TIP3    H178325   4.142   5.977   3.801  2.3939  0.6083 -3.6517
18970TIP3    H278326   4.220   5.862   3.862 -1.2165  0.2694  0.7667
18971TIP3   OH278327   4.404   0.744  14.070 -0.3444  0.8768 -0.2769
18971TIP3    H178328   4.389   0.727  13.977  1.6267  1.4197 -0.7394
18971TIP3    H278329   4.395   0.658  14.112 -0.3755  0.4649 -1.1140
18972TIP3   OH278330   2.732   4.537   1.164 -0.0851 -0.9095  0.3715
18972TIP3    H178331   2.739   4.442   1.168  1.2096 -0.8033  1.2121
18972TIP3    H278332   2.793   4.562   1.094  0.1798 -0.6466  0.6949
18973TIP3   OH278333   3.334   1.154   5.933 -0.4411  0.1450  0.3954
18973TIP3    H178334   3.426   1.135   5.916  0.1532  1.9161  1.3979
18973TIP3    H278335   3.287   1.080   5.893  1.3356 -0.3697 -0.8931
18974TIP3   OH278336   2.161   1.411  11.803  0.4149 -0.7368  0.1854
18974TIP3    H178337   2.151   1.495  11.847 -2.2252 -0.8901  0.0381
18974TIP3    H278338   2.255   1.392  11.808  0.6862  0.8136  2.8002
18975TIP3   OH278339   5.761   1.775  15.049 -0.0650 -0.0999 -0.0607
18975TIP3    H178340   5.685   1.718  15.046 -0.4777  0.4681 -0.8122
18975TIP3    H278341   5.779   1.795  14.957  0.1694  0.8421  0.1799
18976TIP3   OH278342   1.897   5.971   0.621 -0.1312 -0.3964 -0.3985
18976TIP3    H178343   1.919   5.884   0.586  0.0238  0.2812 -2.0933
18976TIP3    H278344   1.803   5.966   0.640  0.0782 -1.2310  0.5093
18977TIP3   OH278345   0.761   5.247   2.039  0.1212 -0.3510 -0.1467
18977TIP3    H178346   0.700   5.320   2.051  0.6140  0.1145 -0.4520
18977TIP3    H278347   0.716   5.187   1.980  0.3971  0.5151 -1.2545
18978TIP3   OH278348   2.143   3.853   3.964  0.0079  0.6149  0.5589
18978TIP3    H178349   2.112   3.898   4.043  0.3503 -1.4513  1.9431
18978TIP3    H278350   2.064   3.817   3.925 -0.0463  0.7222  0.5692
18979TIP3   OH278351   2.682   3.069   0.688 -0.1512  0.0422 -0.3337
18979TIP3    H178352   2.711   3.058   0.779 -1.1752  0.2264  0.0333
18979TIP3    H278353   2.631   2.990   0.670  0.7046 -0.3638 -1.0274
18980TIP3   OH278354   6.192   5.764   3.901  0.3900  0.4553  0.0909
18980TIP3    H178355   6.156   5.759   3.812  1.1883  1.9340 -0.3568
18980TIP3    H278356   6.114   5.768   3.957 -0.1444 -1.9430 -0.3713
18981TIP3   OH278357   6.538   4.334   1.459 -0.1779 -0.1377 -0.4430
18981TIP3    H178358   6.559   4.366   1.371  0.8818 -0.0469 -0.1649
18981TIP3    H278359   6.501   4.247   1.444 -0.2857 -0.0020 -0.9984
18982TIP3   OH278360   3.764   0.742  17.218  0.0402 -0.4428  0.0421
18982TIP3    H178361   3.769   0.771  17.309 -1.4931 -2.6283  0.8939
18982TIP3    H278362   3.821   0.803  17.171  0.0552  1.4063  2.2671
18983TIP3   OH278363   2.843   2.908  12.211  0.0017 -0.3331  0.2498
18983TIP3    H178364   2.755   2.939  12.232  0.5726  0.1889  2.0217
18983TIP3    H278365   2.862   2.944  12.125 -0.5119  1.7606  0.9741
18984TIP3   OH278366   2.058   4.846  13.270  0.0743 -0.3444 -0.2648
18984TIP3    H178367   2.053   4.799  13.187 -1.6225 -1.7945  0.6038
18984TIP3    H278368   1.973   4.833  13.311  0.6432  0.8709  1.4479
18985TIP3   OH278369   1.265   0.612   0.733  0.7937  0.2639  0.4995
18985TIP3    H178370   1.230   0.523   0.724  2.7801 -0.5927  0.6967
18985TIP3    H278371   1.300   0.616   0.822 -0.5781  1.7902  1.0289
18986TIP3   OH278372   5.545   1.676   3.707 -0.3163 -0.3717 -0.0531
18986TIP3    H178373   5.461   1.721   3.704 -0.8322 -1.1296  1.8225
18986TIP3    H278374   5.574   1.684   3.798 -0.7389 -4.2428  0.5907
18987TIP3   OH278375   1.850   2.194   3.627 -0.6110  0.1692 -0.2781
18987TIP3    H178376   1.925   2.134   3.629 -1.0151 -0.3276  0.9573
18987TIP3    H278377   1.889   2.281   3.622 -0.0071 -0.1486 -1.8549
18988TIP3   OH278378   5.631   0.575  12.496  0.4187 -0.0983  0.1253
18988TIP3    H178379   5.602   0.525  12.573 -1.0370 -0.2410 -0.4869
18988TIP3    H278380   5.560   0.563  12.432  1.6803 -0.1238 -1.3084
18989TIP3   OH278381   3.584   2.021  15.831 -0.6576  0.1326 -0.4802
18989TIP3    H178382   3.573   1.977  15.915 -1.4102  2.0121  0.4720
18989TIP3    H278383   3.506   1.995  15.781 -0.2061 -0.9936 -0.6265
18990TIP3   OH278384   0.552   0.467   1.869 -0.3664 -0.6249 -0.1220
18990TIP3    H178385   0.462   0.457   1.839 -0.3184  2.4091 -1.7148
18990TIP3    H278386   0.601   0.400   1.822 -1.4719 -0.7685 -1.1138
18991TIP3   OH278387   5.069   4.225  13.568 -0.4998  0.0084  0.9025
18991TIP3    H178388   5.072   4.261  13.479  0.5557 -1.0341  0.4829
18991TIP3    H278389   5.078   4.302  13.625  0.3099  0.5586  0.0697
18992TIP3   OH278390   5.196   1.987  14.958 -0.0168  0.1566  0.2332
18992TIP3    H178391   5.115   2.021  14.918 -0.0664  0.2061  0.3739
18992TIP3    H278392   5.175   1.981  15.051 -0.2702 -0.9785  0.1270
18993TIP3   OH278393   0.646   5.966  15.379  0.2054 -0.0721 -0.3203
18993TIP3    H178394   0.620   5.968  15.472  0.4334  0.9101 -0.2697
18993TIP3    H278395   0.567   5.938  15.333  0.0723 -0.5098  0.1637
18994TIP3   OH278396   3.413   4.770  15.398 -0.6139  0.1920 -0.1077
18994TIP3    H178397   3.445   4.787  15.487  0.4786  0.6518 -0.5745
18994TIP3    H278398   3.439   4.680  15.380 -0.5471  0.2080 -0.0891
18995TIP3   OH278399   3.356   0.093  16.418 -0.3755  0.3806  0.7304
18995TIP3    H178400   3.305   0.025  16.373 -3.1676  2.0181  1.1762
18995TIP3    H278401   3.324   0.091  16.508  0.0538  1.7326  0.9347
18996TIP3   OH278402   4.287   2.806  16.843 -0.1566  0.6311 -0.0942
18996TIP3    H178403   4.367   2.758  16.866 -0.2091 -0.1056 -1.3447
18996TIP3    H278404   4.236   2.807  16.924 -1.5287 -4.1283 -0.6093
18997TIP3   OH278405   1.155   1.545   3.574 -0.4321  0.8539 -0.4132
18997TIP3    H178406   1.185   1.540   3.483 -1.4721 -0.4225 -0.7125
18997TIP3    H278407   1.199   1.472   3.617 -1.1945  0.4823 -0.2692
18998TIP3   OH278408   3.359   5.637   0.244 -0.1408  0.2569  0.4965
18998TIP3    H178409   3.306   5.598   0.314  0.1112 -0.3828  0.3435
18998TIP3    H278410   3.337   5.730   0.245  0.5285  0.4295  2.0386
18999TIP3   OH278411   5.359   4.256  15.304  0.0488  0.0862  0.4525
18999TIP3    H178412   5.350   4.333  15.247  0.9239  0.1808  0.4292
18999TIP3    H278413   5.326   4.183  15.251 -1.8463  0.5834  0.8734
19000TIP3   OH278414   0.316   2.449   3.567  0.4424  0.8775  0.2762
19000TIP3    H178415   0.270   2.510   3.510  0.0658 -0.8453 -1.3602
19000TIP3    H278416   0.251   2.384   3.591  1.3121 -0.0145  0.2825
19001TIP3   OH278417   3.440   5.101   3.992 -0.1363 -0.0776  0.4022
19001TIP3    H178418   3.429   5.132   3.902 -0.3493  0.5259  0.6293
19001TIP3    H278419   3.353   5.111   4.030 -0.2364 -1.0612  0.4567
19002TIP3   OH278420   6.407   1.079  14.828 -0.5301  0.4061  0.1266
19002TIP3    H178421   6.439   1.166  14.801  0.8311  0.1439  0.8150
19002TIP3    H278422   6.322   1.071  14.785  1.4430  0.0164 -4.2371
19003TIP3   OH278423   1.903   4.420   2.085 -0.2556 -0.8340 -0.3462
19003TIP3    H178424   1.909   4.418   2.181  1.4403  1.7124 -0.3187
19003TIP3    H278425   1.978   4.369   2.056  0.3898  0.0630 -0.2811
19004TIP3   OH278426   6.622   2.659  14.650  0.2184 -0.7955 -0.4636
19004TIP3    H178427   6.602   2.726  14.585  2.9236 -1.1664 -1.7949
19004TIP3    H278428   6.651   2.583  14.599 -0.4822 -2.1793  1.0950
19005TIP3   OH278429   5.758   1.402  12.268 -0.0483  0.3115 -0.8143
19005TIP3    H178430   5.746   1.385  12.175  1.0555 -2.1024 -0.6069
19005TIP3    H278431   5.680   1.366  12.310 -0.1662  0.6523 -0.7372
19006TIP3   OH278432   2.705   6.144  13.574  0.0562 -0.2493  0.1490
19006TIP3    H178433   2.749   6.192  13.505  0.7126 -0.1476  0.6294
19006TIP3    H278434   2.758   6.160  13.652  0.1745 -1.6020  0.3608
19007TIP3   OH278435   1.295   2.996  15.342  0.2214  0.2592  0.0505
19007TIP3    H178436   1.289   2.943  15.263  1.1088 -0.9464  0.7484
19007TIP3    H278437   1.228   3.064  15.332  0.0328 -0.1317 -1.5174
19008TIP3   OH278438   6.105   0.727  17.225 -0.1884  0.4681 -0.3405
19008TIP3    H178439   6.090   0.756  17.315 -0.9997 -0.2981 -0.2067
19008TIP3    H278440   6.097   0.631  17.230  2.1123  0.1948 -0.7982
19009TIP3   OH278441   6.691   1.597  12.624  0.5724 -0.4603  0.0814
19009TIP3    H178442   6.603   1.623  12.594  0.2956  0.3039  1.4787
19009TIP3    H278443   6.734   1.680  12.643  0.9294 -0.8956  1.2282
19010TIP3   OH278444   0.328   0.257   1.597 -0.3054 -0.1185 -0.7344
19010TIP3    H178445   0.417   0.269   1.563  0.0737  0.8105  0.5328
19010TIP3    H278446   0.313   0.162   1.592  1.3949 -0.4961  0.5584
19011TIP3   OH278447   3.629   0.021   3.146  0.1849 -0.3776  0.6223
19011TIP3    H178448   3.612   0.093   3.206 -2.4599 -0.0321 -0.3799
19011TIP3    H278449   3.661   0.064   3.066 -1.5915 -0.2192 -0.0472
19012TIP3   OH278450   0.428   4.022  11.014 -0.5952 -0.6324 -0.0945
19012TIP3    H178451   0.426   4.108  10.972 -1.3224 -0.6588 -0.1188
19012TIP3    H278452   0.443   3.961  10.942 -0.5191 -0.5643 -0.1368
19013TIP3   OH278453   4.017   3.557  12.776 -0.0734  0.8822 -0.4809
19013TIP3    H178454   3.979   3.632  12.821 -3.7803 -0.9909 -0.0930
19013TIP3    H278455   4.016   3.486  12.840  0.0854 -0.3587 -1.7894
19014TIP3   OH278456   6.258   1.253   3.288  0.3424  0.6185 -0.3775
19014TIP3    H178457   6.338   1.256   3.235  0.2256  0.1909 -0.5769
19014TIP3    H278458   6.189   1.226   3.228  0.3725 -0.7979  0.1683
19015TIP3   OH278459   6.698   0.388  14.856  0.1393  0.2823 -0.2547
19015TIP3    H178460   6.770   0.325  14.859  1.3647  1.4894 -1.8196
19015TIP3    H278461   6.644   0.360  14.782  0.2365  0.5814 -0.4448
19016TIP3   OH278462   2.030   4.859  11.778 -0.4742 -0.0980  0.4722
19016TIP3    H178463   2.110   4.903  11.746 -1.7608  1.5128 -0.7328
19016TIP3    H278464   2.015   4.789  11.714 -1.2099  1.0230 -0.6421
19017TIP3   OH278465   0.180   0.980  11.826 -0.8750 -0.0080 -0.5770
19017TIP3    H178466   0.135   1.059  11.798 -0.7915  0.5995  0.8983
19017TIP3    H278467   0.163   0.976  11.921 -0.8221 -1.7158 -0.6133
19018TIP3   OH278468   3.989   0.638  12.077 -0.3753 -0.1003  0.1142
19018TIP3    H178469   4.065   0.696  12.088 -0.9972  0.7070  0.2608
19018TIP3    H278470   3.913   0.694  12.094 -1.0135 -0.8807 -0.0832
19019TIP3   OH278471   5.098   1.535   2.765 -0.4090  0.4426 -0.0157
19019TIP3    H178472   5.172   1.522   2.824 -0.5540 -1.4064 -0.1767
19019TIP3    H278473   5.063   1.621   2.787  0.7244  0.5919  1.2514
19020TIP3   OH278474   3.554   5.318  14.971  0.3343  0.0632  0.0261
19020TIP3    H178475   3.638   5.274  14.985 -0.9642 -2.4259  0.5520
19020TIP3    H278476   3.537   5.307  14.877 -0.3030 -1.2605  0.2731
19021TIP3   OH278477   6.485   3.419   1.237 -0.3473 -0.5289 -0.5966
19021TIP3    H178478   6.481   3.474   1.159 -0.2323 -1.1444 -1.0429
19021TIP3    H278479   6.417   3.453   1.294  1.8701  2.3043  0.6331
19022TIP3   OH278480   2.411   2.000  16.234 -0.1264 -0.2923 -0.0194
19022TIP3    H178481   2.501   2.021  16.260 -0.0808 -0.4519 -0.0528
19022TIP3    H278482   2.380   2.080  16.192 -0.7872  0.6060  2.0447
19023TIP3   OH278483   3.506   6.762   4.838  0.4253  0.1726 -0.1752
19023TIP3    H178484   3.516   6.836   4.780 -0.2974 -0.9884 -1.8648
19023TIP3    H278485   3.564   6.695   4.803  0.1704 -0.4719  0.5882
19024TIP3   OH278486   2.239   5.930   2.157 -0.5440 -0.3432 -0.2722
19024TIP3    H178487   2.323   5.889   2.136  0.6815  2.0116 -0.4176
19024TIP3    H278488   2.249   5.957   2.249 -0.2417  1.7769 -0.8662
19025TIP3   OH278489   6.239   3.537  14.056  0.3276  0.1904 -0.1422
19025TIP3    H178490   6.290   3.471  14.104 -1.1240 -0.3219  0.7779
19025TIP3    H278491   6.297   3.566  13.985  2.3900  0.6025  1.5955
19026TIP3   OH278492   4.027   1.217   5.671 -0.4582  0.5510  0.6386
19026TIP3    H178493   3.950   1.165   5.647  0.0287  0.2351 -0.2534
19026TIP3    H278494   4.079   1.222   5.591  1.4503 -0.9575  1.6910
19027TIP3   OH278495   6.749   1.937   0.665  0.3042 -0.2988  0.0802
19027TIP3    H178496   6.717   1.850   0.688 -0.5644 -0.4737 -1.6366
19027TIP3    H278497   6.843   1.934   0.686  0.2480 -1.5796  0.2257
19028TIP3   OH278498   1.475   4.944  15.022 -0.8505 -0.3638  0.0771
19028TIP3    H178499   1.409   5.003  15.059 -1.1038  0.6213 -1.8557
19028TIP3    H278500   1.557   4.972  15.063 -1.2431  0.0812  0.5859
19029TIP3   OH278501   3.374   5.981  15.932 -0.1674 -0.0610  0.0096
19029TIP3    H178502   3.443   6.005  15.870  1.4514  1.5049  2.2768
19029TIP3    H278503   3.297   6.031  15.903  0.8337  1.4129 -0.1793
19030TIP3   OH278504   5.976   2.695   6.488  0.0380  0.2425 -0.4840
19030TIP3    H178505   5.903   2.700   6.550 -1.6196 -1.3984 -2.1458
19030TIP3    H278506   6.003   2.603   6.491  1.1491  0.5424 -0.8966
19031TIP3   OH278507   0.891   5.077  15.136  0.3467 -0.0263  0.3766
19031TIP3    H178508   0.796   5.086  15.145  0.2835 -0.0031 -0.2611
19031TIP3    H278509   0.921   5.053  15.224 -0.4140 -1.4615  0.2904
19032TIP3   OH278510   0.162   4.671  12.171 -0.1238  0.2878 -0.2947
19032TIP3    H178511   0.204   4.744  12.217 -0.1257 -0.0985  0.3348
19032TIP3    H278512   0.169   4.693  12.078  1.6205  0.1495 -0.2204
19033TIP3   OH278513   0.093   2.803   1.075 -0.3627 -0.3204  0.5875
19033TIP3    H178514   0.110   2.725   1.128 -0.6086 -1.9113 -1.5154
19033TIP3    H278515   0.002   2.825   1.093 -0.1033 -0.1129  1.6841
19034TIP3   OH278516   4.311   6.568  13.098  0.2847  0.1681  0.1971
19034TIP3    H178517   4.376   6.498  13.106  0.2669  0.3149  2.1536
19034TIP3    H278518   4.255   6.541  13.026 -0.0299 -2.1288  1.2111
19035TIP3   OH278519   3.483   3.856  12.812 -0.1654 -0.2190 -0.5795
19035TIP3    H178520   3.390   3.845  12.791 -0.7495  0.1312  1.5757
19035TIP3    H278521   3.483   3.906  12.893  1.9677  0.8627 -1.1759
19036TIP3   OH278522   3.503   0.284  13.428 -0.0298 -0.2487 -0.0968
19036TIP3    H178523   3.507   0.373  13.393 -1.8089  0.1721  0.6655
19036TIP3    H278524   3.515   0.227  13.351  1.1362  0.6304 -0.5867
19037TIP3   OH278525   6.485   4.518  10.734 -0.8170  0.0016  0.2339
19037TIP3    H178526   6.477   4.608  10.764 -1.1244  0.3195 -0.7539
19037TIP3    H278527   6.576   4.511  10.706 -1.0403  0.3222 -0.6158
19038TIP3   OH278528   0.475   5.303   6.349  0.2087 -0.0887  0.1727
19038TIP3    H178529   0.406   5.355   6.390 -0.1103 -0.1687 -0.2576
19038TIP3    H278530   0.467   5.322   6.255 -0.8048 -1.9687 -0.1672
19039TIP3   OH278531   2.511   3.036  11.475  0.3669 -0.5285  0.0214
19039TIP3    H178532   2.554   3.122  11.472 -0.9979  0.2847  1.7719
19039TIP3    H278533   2.419   3.055  11.459  0.1380 -1.7512 -0.1483
19040TIP3   OH278534   5.950   4.635   6.045 -0.1119  0.3332  0.4449
19040TIP3    H178535   5.893   4.711   6.036  0.5739  0.8218  0.1756
19040TIP3    H278536   5.891   4.564   6.072 -1.0139  0.5988 -0.7266
19041TIP3   OH278537   5.432   6.219   0.711  0.2473 -0.5624 -0.5620
19041TIP3    H178538   5.477   6.302   0.728  0.8911 -0.6806 -1.6324
19041TIP3    H278539   5.339   6.238   0.725  0.0454  1.1235 -3.4963
19042TIP3   OH278540   3.988   3.947  14.122 -0.2949 -0.1291  0.3154
19042TIP3    H178541   4.063   3.984  14.076 -0.5935  1.3101  0.9272
19042TIP3    H278542   4.023   3.923  14.208 -0.4221  0.1301  0.4428
19043TIP3   OH278543   5.455   3.477  16.213 -0.2268 -0.2899 -0.7181
19043TIP3    H178544   5.535   3.463  16.264  0.2030  0.5834 -1.1356
19043TIP3    H278545   5.393   3.413  16.248  0.6475 -0.9709 -0.3831
19044TIP3   OH278546   4.280   3.399   2.813 -0.3735  0.2170 -0.3543
19044TIP3    H178547   4.370   3.382   2.841 -0.6447 -1.4479 -0.4006
19044TIP3    H278548   4.274   3.360   2.726 -0.6654  1.9038 -1.1500
19045TIP3   OH278549   3.600   0.915  13.473 -0.6277  0.6861 -0.0558
19045TIP3    H178550   3.526   0.877  13.426 -0.2867 -0.6793  0.4355
19045TIP3    H278551   3.562   0.955  13.550 -0.9278  0.6336 -0.1749
19046TIP3   OH278552   0.508   1.021   6.277 -0.2969  0.4890  0.0395
19046TIP3    H178553   0.479   1.066   6.198  0.6096  0.2527 -0.4426
19046TIP3    H278554   0.594   0.985   6.254  0.2924  0.9910  1.3489
19047TIP3   OH278555   3.750   1.400  13.000  0.2902  0.5503 -0.3421
19047TIP3    H178556   3.791   1.486  13.009  3.0614 -0.7814  0.9703
19047TIP3    H278557   3.694   1.392  13.078  1.6105  0.3892  0.6076
19048TIP3   OH278558   4.116   5.368  13.263  0.1740 -0.1834 -1.0221
19048TIP3    H178559   4.105   5.449  13.313 -1.3970  0.3999 -2.2112
19048TIP3    H278560   4.144   5.397  13.177  1.7827 -1.1019 -0.8473
19049TIP3   OH278561   1.462   1.621  13.376  0.0990  0.3492 -0.0641
19049TIP3    H178562   1.374   1.598  13.345  0.0273  0.1348  0.2858
19049TIP3    H278563   1.516   1.624  13.297 -0.2079  0.4061 -0.2716
19050TIP3   OH278564   5.234   1.935   6.850  0.1326  0.2412  0.0111
19050TIP3    H178565   5.303   1.997   6.825 -0.3110  1.3677  1.4394
19050TIP3    H278566   5.232   1.871   6.779  3.5830 -0.6641  0.5545
19051TIP3   OH278567   6.342   2.538  16.094 -0.4958 -0.1817 -0.0566
19051TIP3    H178568   6.408   2.472  16.074 -0.7967 -0.9452  1.3119
19051TIP3    H278569   6.392   2.615  16.123 -0.1894 -0.3372 -0.1736
19052TIP3   OH278570   2.598   1.022  11.035  0.5499  0.3975 -0.0578
19052TIP3    H178571   2.582   0.929  11.022 -0.7106  0.4835  0.6794
19052TIP3    H278572   2.553   1.065  10.962 -1.9291  0.5784  1.4490
19053TIP3   OH278573   4.914   3.435   5.532 -0.0522  0.1153 -0.5059
19053TIP3    H178574   4.868   3.354   5.510  0.8522 -1.1404  1.9244
19053TIP3    H278575   5.007   3.413   5.530  0.1971  0.9280  0.6839
19054TIP3   OH278576   3.685   3.912   0.777 -0.3456  0.6914 -0.0013
19054TIP3    H178577   3.646   3.861   0.847  1.0889  0.5760  0.7472
19054TIP3    H278578   3.660   3.866   0.697  1.8307 -1.9379  0.6904
19055TIP3   OH278579   0.495   0.056   4.233  0.5641  0.7401 -0.2757
19055TIP3    H178580   0.492   0.024   4.143 -1.0902 -0.4640  0.1501
19055TIP3    H278581   0.499   0.151   4.226  1.8237  0.6157 -1.5952
19056TIP3   OH278582   2.252   1.069  12.600 -0.7473 -0.2214 -0.7784
19056TIP3    H178583   2.258   1.109  12.687  1.1549 -1.3025 -0.3408
19056TIP3    H278584   2.212   1.136  12.545  0.8557  1.6969  0.2590
19057TIP3   OH278585   1.169   4.510   0.228 -0.5933 -0.6844  0.1322
19057TIP3    H178586   1.229   4.469   0.290  0.7986 -0.5517 -1.0542
19057TIP3    H278587   1.107   4.558   0.282  1.6238  0.9257  1.4160
19058TIP3   OH278588   3.431   5.069  14.974  0.0603  0.4792 -0.0232
19058TIP3    H178589   3.449   5.129  15.046  2.0706  0.3976 -0.3896
19058TIP3    H278590   3.343   5.093  14.944  0.2426  2.2975  0.7557
19059TIP3   OH278591   5.552   3.982   1.211  0.0655  0.0360 -0.1271
19059TIP3    H178592   5.541   4.069   1.250  1.8753  0.1101  0.2996
19059TIP3    H278593   5.527   3.921   1.281  0.4241  0.2063  0.1563
19060TIP3   OH278594   4.821   2.204  16.585 -0.5636 -0.2562 -0.2616
19060TIP3    H178595   4.834   2.179  16.493 -1.6180  0.5110 -0.6380
19060TIP3    H278596   4.802   2.297  16.582  1.6199  0.3053  0.9590
19061TIP3   OH278597   6.170   4.157   1.129 -0.0560 -0.1293  0.8535
19061TIP3    H178598   6.109   4.152   1.055 -0.9086  0.9263  1.4514
19061TIP3    H278599   6.254   4.129   1.093 -0.7352 -0.9235 -0.1725
19062TIP3   OH278600   6.713   6.353  12.404 -0.1504 -0.0333 -0.4812
19062TIP3    H178601   6.703   6.389  12.492  0.8694 -1.3954  0.2390
19062TIP3    H278602   6.638   6.386  12.356 -1.9537 -1.0257  1.4971
19063TIP3   OH278603   6.671   0.382   3.874 -0.5822 -0.1781  1.1175
19063TIP3    H178604   6.628   0.424   3.948  0.6033 -0.0919  1.7750
19063TIP3    H278605   6.735   0.447   3.843 -1.9453  0.3420 -0.8631
19064TIP3   OH278606   0.345   0.471   3.601 -0.2697 -0.1653 -0.4784
19064TIP3    H178607   0.387   0.438   3.680  2.1216 -1.1024 -2.0348
19064TIP3    H278608   0.296   0.548   3.630  0.3037 -0.6333  1.9298
19065TIP3   OH278609   5.189   5.822   3.457 -0.6189 -0.0371  0.0588
19065TIP3    H178610   5.164   5.745   3.508  0.9597 -0.7825 -0.2309
19065TIP3    H278611   5.163   5.800   3.367  0.3794 -0.5141 -0.1257
19066TIP3   OH278612   4.395   4.515   5.001 -0.2685 -0.1506  0.2351
19066TIP3    H178613   4.369   4.473   5.083  0.3444 -2.0142 -0.4892
19066TIP3    H278614   4.319   4.569   4.977 -0.0068  1.4806  2.6292
19067TIP3   OH278615   3.251   0.515  16.555  0.2896  0.2376  0.3321
19067TIP3    H178616   3.193   0.463  16.611  0.4961 -1.0653 -0.6108
19067TIP3    H278617   3.230   0.606  16.577 -0.6768 -0.2198  1.4468
19068TIP3   OH278618   2.302   2.025  17.234  0.0605 -0.0140  0.5340
19068TIP3    H178619   2.329   2.094  17.174  0.3375  0.3631  1.0868
19068TIP3    H278620   2.268   2.071  17.311 -0.3140 -0.4885  0.6594
19069TIP3   OH278621   2.802   6.696  17.138 -0.2388 -0.2193 -0.2603
19069TIP3    H178622   2.882   6.650  17.165  0.3815  0.5941 -0.6556
19069TIP3    H278623   2.816   6.786  17.167 -1.0680 -0.0914 -0.2473
19070TIP3   OH278624   4.998   5.837  10.835  0.7229 -0.0132  0.3693
19070TIP3    H178625   4.937   5.806  10.768  0.9722 -0.5195  0.3757
19070TIP3    H278626   5.041   5.758  10.867  2.4752  0.4444 -0.6953
19071TIP3   OH278627   6.576   6.477   2.686  0.4470 -0.2163 -0.3181
19071TIP3    H178628   6.641   6.506   2.751  1.1120  0.9894 -1.4640
19071TIP3    H278629   6.526   6.556   2.665  0.7956 -0.3649 -1.8651
19072TIP3   OH278630   5.377   6.468   6.545  0.2929 -0.0363 -0.0482
19072TIP3    H178631   5.411   6.398   6.488  1.7913  0.9399 -0.4341
19072TIP3    H278632   5.448   6.533   6.546 -0.8701  1.2548  0.6775
19073TIP3   OH278633   2.387   6.085  15.539  0.1439  0.5686  0.0282
19073TIP3    H178634   2.441   6.148  15.585 -2.1671 -0.0747  4.1029
19073TIP3    H278635   2.426   6.078  15.452  4.1271  2.9352  1.3897
19074TIP3   OH278636   4.650   0.649  12.323 -0.1012  0.3333 -0.2417
19074TIP3    H178637   4.614   0.669  12.237  0.6692 -0.0564 -0.6654
19074TIP3    H278638   4.576   0.659  12.383 -0.2718  2.2492 -0.7092
19075TIP3   OH278639   0.057   0.300   6.023 -0.3750 -0.2854  0.2350
19075TIP3    H178640   0.136   0.309   6.076  1.4784  1.0280 -2.4894
19075TIP3    H278641   0.023   0.389   6.014 -2.2865 -0.8315  1.3894
19076TIP3   OH278642   5.618   4.250  14.638  0.0133  0.0346  0.4100
19076TIP3    H178643   5.597   4.290  14.722 -1.6736 -0.8913  0.4710
19076TIP3    H278644   5.644   4.323  14.582 -0.0309  0.8083  1.3822
19077TIP3   OH278645   0.677   2.492  15.967  0.0870 -0.3954  0.4604
19077TIP3    H178646   0.767   2.519  15.949  0.3053 -1.1322  0.4303
19077TIP3    H278647   0.634   2.572  15.997  0.4485  0.2353 -0.6411
19078TIP3   OH278648   4.080   1.599  17.016  0.2175 -0.1652  0.9822
19078TIP3    H178649   4.006   1.625  16.962  1.7302  1.2905 -0.5281
19078TIP3    H278650   4.045   1.532  17.075 -2.4956  1.1304  1.0027
19079TIP3   OH278651   6.510   1.474  15.498 -0.3097 -0.3851 -0.3834
19079TIP3    H178652   6.510   1.456  15.592  0.0352  0.5471 -0.1938
19079TIP3    H278653   6.509   1.569  15.492  0.6633 -0.4143 -1.3180
19080TIP3   OH278654   1.148   1.767   4.687  0.0879  0.1155 -0.1791
19080TIP3    H178655   1.206   1.729   4.622  0.6755  1.4994 -0.4829
19080TIP3    H278656   1.084   1.817   4.637 -0.5195 -0.2179  0.2340
19081TIP3   OH278657   5.824   4.579  12.087 -0.5471 -0.8220 -0.5689
19081TIP3    H178658   5.836   4.484  12.089 -0.9446 -0.8830  1.1314
19081TIP3    H278659   5.731   4.591  12.109  0.1761 -0.0263  2.5687
19082TIP3   OH278660   5.448   2.073   3.639  0.3490  0.0237  0.0333
19082TIP3    H178661   5.422   1.999   3.694 -0.9221 -0.8061 -1.5828
19082TIP3    H278662   5.399   2.147   3.673 -0.3128 -0.4489  0.1359
19083TIP3   OH278663   5.049   3.305   0.666  0.8725  0.2810 -0.9304
19083TIP3    H178664   5.041   3.302   0.571 -1.1053  3.1144 -1.0021
19083TIP3    H278665   5.107   3.379   0.683 -1.0110  1.6548 -0.0260
19084TIP3   OH278666   3.304   0.976   2.930  0.6445 -0.2283 -0.6057
19084TIP3    H178667   3.217   1.015   2.934  0.5740 -0.4728  1.3502
19084TIP3    H278668   3.335   0.994   2.841 -0.2484  2.3616 -0.4615
19085TIP3   OH278669   3.989   3.446  15.377  0.1666 -0.1767 -0.0402
19085TIP3    H178670   4.007   3.520  15.318 -0.1032  0.5029  0.7095
19085TIP3    H278671   3.920   3.397  15.332  1.7587 -1.1622 -1.5231
19086TIP3   OH278672   1.517   0.914   5.644  0.0154 -0.1277  0.0261
19086TIP3    H178673   1.539   0.935   5.735  1.0270  2.8540 -0.7991
19086TIP3    H278674   1.427   0.945   5.634 -0.0121 -0.2281 -0.0306
19087TIP3   OH278675   4.978   5.090  14.902  0.1999  0.2321  0.0808
19087TIP3    H178676   4.919   5.053  14.836 -0.4816  1.6959 -0.1635
19087TIP3    H278677   4.962   5.184  14.899  1.9862  0.5981  0.5774
19088TIP3   OH278678   6.721   4.801   2.064 -0.0905 -0.4044  0.2001
19088TIP3    H178679   6.743   4.881   2.113 -0.0850 -0.3682  0.1387
19088TIP3    H278680   6.630   4.813   2.037  0.1360 -0.0938 -0.4352
19089TIP3   OH278681   1.660   5.017   4.354  0.4760 -0.1689 -0.1348
19089TIP3    H178682   1.690   4.972   4.275  0.7129 -0.9492  0.3861
19089TIP3    H278683   1.660   4.949   4.422 -1.0665  0.1488  0.2257
19090TIP3   OH278684   2.356   2.867  13.157  0.4886 -0.0836  0.0927
19090TIP3    H178685   2.274   2.829  13.187 -0.0495  1.0381  0.0982
19090TIP3    H278686   2.364   2.840  13.066 -0.0131  0.0077  0.0199
19091TIP3   OH278687   1.605   1.185  13.055 -0.0912 -0.4766 -0.6272
19091TIP3    H178688   1.520   1.179  13.013 -1.8541  2.3163  2.1371
19091TIP3    H278689   1.642   1.268  13.025  0.5107 -0.4548  0.1251
19092TIP3   OH278690   4.939   4.006  15.794 -0.1336  0.2475  0.2762
19092TIP3    H178691   4.984   4.015  15.711 -1.7975 -1.0308 -0.8189
19092TIP3    H278692   4.899   3.920  15.792 -2.2210  1.0994  1.3605
19093TIP3   OH278693   5.508   4.372  12.604 -0.4740 -0.8914  0.0168
19093TIP3    H178694   5.508   4.374  12.508 -0.5696  1.5664  0.0142
19093TIP3    H278695   5.418   4.396  12.628  0.0791  0.6088  0.6911
19094TIP3   OH278696   5.281   1.193   4.873 -0.1457  0.5486  0.1981
19094TIP3    H178697   5.374   1.175   4.880  0.1407  1.7184 -0.2648
19094TIP3    H278698   5.277   1.283   4.838 -1.4363  0.6128  0.4690
19095TIP3   OH278699   5.334   2.112   3.317  0.6007 -0.4992  0.2935
19095TIP3    H178700   5.364   2.198   3.348  0.7113 -0.3700 -0.1659
19095TIP3    H278701   5.377   2.050   3.376  1.4980 -0.2993 -0.1220
19096TIP3   OH278702   1.279   3.391   2.507  0.1591 -0.2528 -0.6335
19096TIP3    H178703   1.267   3.411   2.600 -0.9869 -2.9776 -0.0935
19096TIP3    H278704   1.196   3.417   2.466  0.9869  1.7888 -1.1361
19097TIP3   OH278705   3.225   2.947  13.349  1.0771  0.4671 -1.0291
19097TIP3    H178706   3.185   2.884  13.289  0.6354  1.1637 -1.4866
19097TIP3    H278707   3.319   2.940  13.332  1.0571 -0.2309 -0.9029
19098TIP3   OH278708   1.271   0.859  15.988  0.1452  0.2380 -0.4251
19098TIP3    H178709   1.348   0.908  15.959 -0.6277  1.3821 -0.6279
19098TIP3    H278710   1.279   0.854  16.083 -0.0106  1.2055 -0.3532
19099TIP3   OH278711   0.100   1.262  13.180 -0.4508 -0.5373  0.2704
19099TIP3    H178712   0.022   1.300  13.141 -0.3973  0.5842  1.2100
19099TIP3    H278713   0.067   1.197  13.241 -0.8293  1.5849  2.4618
19100TIP3   OH278714   4.414   2.665   4.334 -0.3303  0.1614 -0.2395
19100TIP3    H178715   4.504   2.664   4.302 -0.8488  1.1767 -1.8586
19100TIP3    H278716   4.402   2.579   4.373  1.4830  0.1857  0.4631
19101TIP3   OH278717   3.998   6.134   4.572  0.5648  0.0833 -0.6412
19101TIP3    H178718   3.957   6.136   4.658  1.4971 -0.0040 -0.1737
19101TIP3    H278719   3.950   6.198   4.520 -0.2710 -0.1670 -0.1815
19102TIP3   OH278720   1.230   1.309  17.150 -0.4923 -0.2065 -0.4007
19102TIP3    H178721   1.324   1.301  17.134 -0.0789  0.3720  1.5224
19102TIP3    H278722   1.203   1.222  17.180 -1.0946 -1.0403 -3.0768
19103TIP3   OH278723   2.086   1.091  12.930  0.2030  0.1055 -0.2501
19103TIP3    H178724   2.057   1.108  13.019 -2.0399  0.1765 -0.9509
19103TIP3    H278725   2.101   1.178  12.893  0.5597  0.0916 -0.1487
19104TIP3   OH278726   4.212   6.520  16.536  0.3553 -0.3968  0.3420
19104TIP3    H178727   4.234   6.427  16.524  2.2311  0.1287 -0.5793
19104TIP3    H278728   4.258   6.545  16.616  1.0434  0.0650 -0.1832
19105TIP3   OH278729   4.872   1.164  12.226  0.1980 -0.1022 -0.0598
19105TIP3    H178730   4.865   1.104  12.300  1.4459  0.1146  0.2506
19105TIP3    H278731   4.943   1.224  12.250 -0.1690  0.7093 -0.9224
19106TIP3   OH278732   4.894   6.396  17.189 -0.5088  0.2282 -0.2230
19106TIP3    H178733   4.904   6.455  17.263  1.1568  0.4255 -0.5552
19106TIP3    H278734   4.906   6.309  17.225  0.7874  0.3516 -0.2932
19107TIP3   OH278735   4.186   1.312  11.040 -0.0029 -0.0018 -0.4520
19107TIP3    H178736   4.111   1.348  11.088 -0.6129 -1.3189 -0.3667
19107TIP3    H278737   4.248   1.384  11.035 -0.0817  0.3296  1.9631
19108TIP3   OH278738   1.528   5.744  12.316 -0.8535  0.6391  0.4528
19108TIP3    H178739   1.470   5.702  12.253 -1.3399  0.7441  0.8251
19108TIP3    H278740   1.477   5.818  12.350 -0.0969  1.4065 -0.0289
19109TIP3   OH278741   5.070   2.102  12.335  0.1786  0.4358  0.2216
19109TIP3    H178742   5.039   2.016  12.305 -0.2524  0.4708  0.5626
19109TIP3    H278743   5.057   2.160  12.261  1.8337 -0.0896 -0.5341
19110TIP3   OH278744   3.852   3.354  16.676  0.2397 -0.3392 -1.0594
19110TIP3    H178745   3.770   3.351  16.725  0.0926  1.3245 -1.1544
19110TIP3    H278746   3.829   3.319  16.590  0.0083 -1.2931 -0.6217
19111TIP3   OH278747   3.469   6.112   4.866  0.3110  0.4043  0.1031
19111TIP3    H178748   3.414   6.034   4.868  0.9999 -0.0794  0.8953
19111TIP3    H278749   3.419   6.179   4.912 -0.0912  0.2955 -0.1759
19112TIP3   OH278750   4.925   2.882   5.265  0.0170 -0.5883  0.1226
19112TIP3    H178751   4.927   2.788   5.247  0.8480 -0.3245 -1.2223
19112TIP3    H278752   4.892   2.888   5.355 -1.1434 -2.1056 -0.1663
19113TIP3   OH278753   6.575   0.232   3.169 -0.1040  0.4598  1.0484
19113TIP3    H178754   6.621   0.277   3.239  0.0639  0.6868  0.7931
19113TIP3    H278755   6.556   0.145   3.205  2.4216 -0.4356  0.4416
19114TIP3   OH278756   2.880   3.442  14.720  0.0765 -0.4363  0.1369
19114TIP3    H178757   2.838   3.499  14.783  0.3630 -0.1256  0.0527
19114TIP3    H278758   2.964   3.484  14.702  0.0503 -0.5850 -0.3544
19115TIP3   OH278759   0.481   4.166  13.300 -0.2515  0.3295  0.4546
19115TIP3    H178760   0.565   4.192  13.338  1.6303 -1.2449 -2.2656
19115TIP3    H278761   0.431   4.247  13.295  0.8432  1.2336  2.6338
19116TIP3   OH278762   2.015   2.974   5.972 -0.2728  0.3367  0.4808
19116TIP3    H178763   2.066   3.012   5.901 -1.4160  1.8101  0.3838
19116TIP3    H278764   2.034   3.029   6.048 -0.0445 -0.4472  1.0118
19117TIP3   OH278765   3.461   3.872   0.224 -0.0644 -0.0403 -0.0994
19117TIP3    H178766   3.512   3.791   0.211  1.8761  1.2621 -1.1403
19117TIP3    H278767   3.375   3.852   0.188  1.0284 -1.0169 -2.4069
19118TIP3   OH278768   1.280   5.584   1.567 -0.3521 -0.5799 -0.2408
19118TIP3    H178769   1.315   5.643   1.634  0.8655 -0.7046 -0.7283
19118TIP3    H278770   1.192   5.563   1.596 -1.0067  1.8432 -0.2912
19119TIP3   OH278771   1.236   3.744   0.777  0.2975 -0.3919  0.1453
19119TIP3    H178772   1.177   3.685   0.825  0.2499  0.7744  1.6081
19119TIP3    H278773   1.305   3.766   0.841  0.6348  0.6563 -0.5511
19120TIP3   OH278774   6.638   0.769   2.754 -0.6923 -0.6344 -1.0925
19120TIP3    H178775   6.660   0.818   2.675  0.9510 -0.7544 -0.7478
19120TIP3    H278776   6.620   0.837   2.820  0.1312 -0.4866 -1.0038
19121TIP3   OH278777   2.746   4.537   5.390 -0.5144  0.3173  0.7287
19121TIP3    H178778   2.827   4.579   5.361 -0.3095  0.4739  1.5221
19121TIP3    H278779   2.761   4.443   5.376 -0.0639  0.3177  1.1820
19122TIP3   OH278780   4.335   3.176  13.263 -0.0044 -0.3237 -0.1166
19122TIP3    H178781   4.369   3.096  13.225 -0.6710 -0.9005  0.4538
19122TIP3    H278782   4.251   3.150  13.302  0.3571  0.3693  1.1719
19123TIP3   OH278783   1.359   3.753  15.849  0.0674  0.0203  0.0819
19123TIP3    H178784   1.291   3.710  15.797 -0.8692 -1.0244  2.0872
19123TIP3    H278785   1.318   3.833  15.880  0.1659 -0.0302  0.3387
19124TIP3   OH278786   4.701   0.650   0.463 -0.2614 -0.3373 -0.5000
19124TIP3    H178787   4.653   0.569   0.485 -0.8945  0.7421  2.6160
19124TIP3    H278788   4.787   0.638   0.503 -0.3555  0.5041 -0.0375
19125TIP3   OH278789   4.269   3.671  12.004 -0.1736 -0.3178 -0.5160
19125TIP3    H178790   4.296   3.591  11.960  0.8180  0.2213 -0.9281
19125TIP3    H278791   4.349   3.724  12.009 -0.8632  0.7644 -0.5079
19126TIP3   OH278792   0.707   1.219   1.657 -0.6496  0.0070 -0.2827
19126TIP3    H178793   0.721   1.290   1.595  1.9391 -1.1653 -1.1989
19126TIP3    H278794   0.792   1.174   1.662 -0.9227 -0.4129  3.5806
19127TIP3   OH278795   5.014   6.201   3.823 -0.1099 -0.8420 -0.2685
19127TIP3    H178796   4.973   6.231   3.904  0.6083 -0.2019 -0.1367
19127TIP3    H278797   5.048   6.114   3.844 -0.2718 -0.8406 -0.0004
19128TIP3   OH278798   5.262   2.997   5.737  0.4175  0.4677 -0.0595
19128TIP3    H178799   5.229   2.907   5.734 -1.5965  1.1809 -1.3661
19128TIP3    H278800   5.356   2.988   5.720  0.4582 -1.4431  0.8394
19129TIP3   OH278801   4.616   4.788   3.331  1.0139 -0.2345  0.2968
19129TIP3    H178802   4.557   4.725   3.292  0.4497  0.1136  0.5794
19129TIP3    H278803   4.601   4.780   3.425  0.6713  0.5714  0.3155
19130TIP3   OH278804   1.651   2.269  11.997 -0.1797  0.5628 -0.1585
19130TIP3    H178805   1.653   2.364  11.988  1.4060  0.3770 -2.6373
19130TIP3    H278806   1.594   2.239  11.925 -0.8167 -0.3851  0.7043
19131TIP3   OH278807   0.568   2.724   4.568 -0.0350 -0.6173  0.4012
19131TIP3    H178808   0.512   2.696   4.640  0.3974 -0.2510  0.8896
19131TIP3    H278809   0.507   2.752   4.500 -0.6883  4.1819  2.5289
19132TIP3   OH278810   0.181   2.205   5.191 -0.0388  0.0409  0.5085
19132TIP3    H178811   0.224   2.290   5.205 -1.1206  0.8391 -0.8543
19132TIP3    H278812   0.172   2.198   5.096 -0.4741 -1.3645  0.6352
19133TIP3   OH278813   0.194   5.851   1.902  0.1589  0.1510  0.0038
19133TIP3    H178814   0.219   5.789   1.833  0.3892 -1.6416  1.6182
19133TIP3    H278815   0.261   5.919   1.898  1.3195 -0.9692 -0.2683
19134TIP3   OH278816   2.609   6.214   3.012 -0.4701  0.4452  0.4015
19134TIP3    H178817   2.588   6.121   3.005  0.6994  0.2041 -0.0578
19134TIP3    H278818   2.634   6.226   3.104 -0.1713  0.2051  0.3524
19135TIP3   OH278819   3.642   2.382   2.980  0.1610  0.5257  0.3326
19135TIP3    H178820   3.653   2.477   2.975 -0.1074  0.6337  1.5714
19135TIP3    H278821   3.731   2.348   2.992  0.4460  0.4787 -1.5377
19136TIP3   OH278822   5.091   0.764  10.837  0.6085 -0.3077 -0.2089
19136TIP3    H178823   5.071   0.856  10.818 -0.5793 -0.3566  0.6829
19136TIP3    H278824   5.182   0.753  10.811  0.0018  0.3962 -2.9601
19137TIP3   OH278825   6.611   0.846   6.213  0.5306 -0.4580  0.3137
19137TIP3    H178826   6.668   0.788   6.264  2.9422  0.7681 -0.8100
19137TIP3    H278827   6.565   0.899   6.278 -0.5117 -2.4595  1.2938
19138TIP3   OH278828   6.247   4.082   4.714  0.0344  0.4108 -0.0161
19138TIP3    H178829   6.211   4.165   4.746 -0.4232  0.0008  0.5582
19138TIP3    H278830   6.338   4.103   4.694 -0.3703  1.3297 -0.9838
19139TIP3   OH278831   5.512   5.384   0.755 -0.1908 -0.3985  0.0957
19139TIP3    H178832   5.529   5.291   0.774  1.2200 -0.5950 -1.7559
19139TIP3    H278833   5.483   5.384   0.664 -0.1692  0.9839  0.0785
19140TIP3   OH278834   4.207   2.194  12.853 -0.2594  0.2076  0.1210
19140TIP3    H178835   4.235   2.214  12.764  1.4148  2.8546  1.1339
19140TIP3    H278836   4.255   2.114  12.876 -0.8233 -0.5924 -1.3273
19141TIP3   OH278837   2.475   0.717  14.333 -0.7080 -0.2416  0.1662
19141TIP3    H178838   2.533   0.778  14.379  0.7222 -1.9714  0.7828
19141TIP3    H278839   2.411   0.691  14.399  0.7777 -2.0015  0.9881
19142TIP3   OH278840   3.719   1.013  14.111 -0.7804  1.0172  0.1211
19142TIP3    H178841   3.686   1.038  14.025 -1.2765  0.3711  0.1171
19142TIP3    H278842   3.758   1.093  14.146 -2.1348  1.7433  0.0191
19143TIP3   OH278843   5.373   0.879   1.354 -0.4967  0.8585 -0.1491
19143TIP3    H178844   5.436   0.807   1.346 -0.1166  1.3389 -2.0945
19143TIP3    H278845   5.288   0.836   1.361 -0.1868  0.1945 -0.3431
19144TIP3   OH278846   3.092   0.944   3.674 -0.5383  0.2551 -0.2961
19144TIP3    H178847   3.185   0.933   3.655 -0.4407  0.8771 -0.2185
19144TIP3    H278848   3.048   0.935   3.589 -0.5181 -1.1019 -0.1728
19145TIP3   OH278849   3.322   6.147  13.737  0.1855 -0.5165  0.4228
19145TIP3    H178850   3.397   6.168  13.681 -1.1061 -0.9161 -1.5680
19145TIP3    H278851   3.332   6.054  13.757  1.2039 -0.1489  1.8272
19146TIP3   OH278852   3.987   3.636  12.346 -0.2890  0.0348  0.1743
19146TIP3    H178853   4.081   3.651  12.338 -0.0024 -1.1070  1.0139
19146TIP3    H278854   3.947   3.722  12.333  0.8364  0.4485 -0.6645
19147TIP3   OH278855   3.024   0.858  15.556 -0.4286  0.2399 -0.1256
19147TIP3    H178856   2.971   0.905  15.491 -0.8575 -0.6772 -0.4721
19147TIP3    H278857   3.104   0.909  15.564 -0.6541  0.7344 -0.8828
19148TIP3   OH278858   6.495   1.813  16.064  0.1890 -0.1602 -0.2347
19148TIP3    H178859   6.431   1.742  16.064 -0.9816  0.7763 -2.5789
19148TIP3    H278860   6.444   1.891  16.041  1.8091  1.0545  0.0854
19149TIP3   OH278861   0.567   6.020  10.932 -0.0737  0.1146  0.2530
19149TIP3    H178862   0.579   5.927  10.955 -0.7821  0.2687  1.3100
19149TIP3    H278863   0.473   6.028  10.914  0.1362  0.4455 -0.7315
19150TIP3   OH278864   6.691   4.235   3.714 -0.3916 -0.0561  0.1200
19150TIP3    H178865   6.739   4.312   3.746  0.1725  0.4952 -1.9346
19150TIP3    H278866   6.752   4.162   3.724  0.5583  0.4687 -1.5357
19151TIP3   OH278867   6.319   0.393   4.025  0.0537  0.1604 -0.6960
19151TIP3    H178868   6.412   0.418   4.027  0.6567 -1.9027  1.9058
19151TIP3    H278869   6.315   0.325   3.957 -0.1163  1.9080 -2.5206
19152TIP3   OH278870   2.963   4.425   3.467  0.0853  0.2142 -0.0879
19152TIP3    H178871   2.919   4.509   3.475 -1.2721 -0.5706  1.3460
19152TIP3    H278872   3.055   4.447   3.450 -0.2720  1.9635  0.1026
19153TIP3   OH278873   5.498   6.323  12.981  0.3966  0.4629 -0.4245
19153TIP3    H178874   5.404   6.339  12.971  0.4543 -0.3974 -3.0703
19153TIP3    H278875   5.502   6.242  13.033 -0.2639  1.1417  0.7217
19154TIP3   OH278876   4.576   5.886   1.640 -0.1783  0.2579 -0.3490
19154TIP3    H178877   4.489   5.919   1.662 -0.5608 -1.1067  0.2678
19154TIP3    H278878   4.635   5.934   1.698 -0.6189  0.5043 -0.1009
19155TIP3   OH278879   2.688   2.083   3.441  0.1044  0.1490 -0.4988
19155TIP3    H178880   2.674   2.001   3.393  0.6983  0.1996 -0.7785
19155TIP3    H278881   2.634   2.147   3.395  0.8561  0.2494 -1.2759
19156TIP3   OH278882   0.768   5.254   2.523  0.0262  0.3354 -0.1183
19156TIP3    H178883   0.849   5.305   2.517 -0.6129  1.6512  1.5205
19156TIP3    H278884   0.770   5.216   2.611 -0.2916 -1.1580 -0.7365
19157TIP3   OH278885   6.210   2.708  17.012 -0.2517  0.6672  0.8761
19157TIP3    H178886   6.182   2.699  17.103  0.6841 -1.4280  1.0151
19157TIP3    H278887   6.279   2.642  17.002  1.1271  2.2591 -0.7993
19158TIP3   OH278888   1.779   6.344   0.063 -0.3086  0.1416 -0.1130
19158TIP3    H178889   1.809   6.256   0.040  0.7246  0.8687 -1.8099
19158TIP3    H278890   1.684   6.339   0.058 -0.2803 -0.9691  0.1866
19159TIP3   OH278891   4.969   1.170  11.106 -0.5314 -0.8820 -0.0763
19159TIP3    H178892   4.878   1.198  11.105 -0.2688  0.0092 -0.9020
19159TIP3    H278893   4.994   1.173  11.199 -1.4044 -1.4019  0.1836
19160TIP3   OH278894   6.481   0.920  14.616 -0.6231 -0.1741  0.1060
19160TIP3    H178895   6.460   0.988  14.680  0.9879 -0.2579  0.7601
19160TIP3    H278896   6.404   0.917  14.558 -2.3532 -0.4547  2.3007
19161TIP3   OH278897   3.304   6.596   2.650 -0.2599 -0.1335 -0.2886
19161TIP3    H178898   3.395   6.625   2.656 -0.2999 -0.1062  0.2155
19161TIP3    H278899   3.258   6.646   2.717  0.1507 -3.2099  2.5360
19162TIP3   OH278900   2.753   3.548  17.054 -0.1637 -0.4195 -0.4794
19162TIP3    H178901   2.842   3.554  17.018  0.5022  0.1261  1.1799
19162TIP3    H278902   2.700   3.603  16.997  0.4940 -0.9655 -1.6539
19163TIP3   OH278903   2.875   0.227   2.332  0.1785  0.4010 -0.0404
19163TIP3    H178904   2.860   0.299   2.393  0.9384 -0.2124  0.8889
19163TIP3    H278905   2.955   0.253   2.285 -0.9487  1.3513 -1.5364
19164TIP3   OH278906   2.414   1.590  14.159  0.5240 -0.4997  0.0091
19164TIP3    H178907   2.373   1.504  14.146  0.5515 -0.9875  2.6257
19164TIP3    H278908   2.398   1.637  14.077 -1.6296 -2.1517 -0.6053
19165TIP3   OH278909   4.618   3.148  14.559 -0.0556  0.2254  0.0011
19165TIP3    H178910   4.573   3.212  14.614  0.5224  1.1460 -0.5837
19165TIP3    H278911   4.547   3.103  14.513 -0.5704 -0.6682  1.5548
19166TIP3   OH278912   5.848   1.982  15.195  0.5818  0.2256 -0.5156
19166TIP3    H178913   5.829   1.933  15.115 -0.0874  1.7407 -1.3205
19166TIP3    H278914   5.765   2.021  15.220  0.9331  0.3282  0.5577
19167TIP3   OH278915   5.637   0.303  14.295  0.0131  0.5198  0.0657
19167TIP3    H178916   5.655   0.362  14.368  1.0439  0.1709  0.1073
19167TIP3    H278917   5.598   0.226  14.337 -0.7900  0.9256  0.0761
19168TIP3   OH278918   6.098   3.650  13.392 -0.6961 -0.1709 -0.2465
19168TIP3    H178919   6.021   3.706  13.380  0.6158  1.7312 -0.2349
19168TIP3    H278920   6.131   3.673  13.478  0.0614 -0.7469 -0.3789
19169TIP3   OH278921   1.291   0.349  15.609  0.3735 -0.0252  0.2325
19169TIP3    H178922   1.310   0.262  15.573  1.8393 -0.0873  1.0572
19169TIP3    H278923   1.206   0.372  15.573 -0.1683 -1.9175  0.2078
19170TIP3   OH278924   0.366   5.765  14.868  0.3591  0.1564  0.5943
19170TIP3    H178925   0.371   5.848  14.819 -0.6047  0.3220  0.7526
19170TIP3    H278926   0.273   5.749  14.879  0.5276  0.1356  2.3918
19171TIP3   OH278927   1.950   1.011   2.679 -0.2340 -1.0349  0.0479
19171TIP3    H178928   1.880   0.999   2.744 -1.3796 -1.7374 -1.2727
19171TIP3    H278929   1.953   1.106   2.665 -1.7065 -1.0744 -0.6892
19172TIP3   OH278930   3.684   2.023  14.970 -0.8136 -0.0993  0.0594
19172TIP3    H178931   3.656   2.115  14.973 -1.4006 -0.2977  1.2398
19172TIP3    H278932   3.649   1.990  14.887  0.0937  0.9403 -0.7648
19173TIP3   OH278933   5.306   5.171  17.064  0.3038  0.4282 -0.9032
19173TIP3    H178934   5.342   5.137  16.982  0.5242  2.6330 -1.7802
19173TIP3    H278935   5.367   5.140  17.132  0.7707 -0.4515 -1.7110
19174TIP3   OH278936   4.930   3.905  13.148 -0.1796 -0.2204 -0.1736
19174TIP3    H178937   4.950   3.910  13.055  1.2412  0.3412  0.1338
19174TIP3    H278938   5.001   3.953  13.190 -1.0573 -0.0548  1.1718
19175TIP3   OH278939   4.042   3.311   6.326 -0.6872  0.2131  0.1811
19175TIP3    H178940   4.089   3.273   6.400  0.0386 -0.5187 -0.6317
19175TIP3    H278941   3.967   3.356   6.366 -1.2060 -1.4848  1.2480
19176TIP3   OH278942   5.790   2.450  16.721 -0.5839 -0.0133 -0.6713
19176TIP3    H178943   5.714   2.506  16.707  0.4110  1.1056 -1.8054
19176TIP3    H278944   5.865   2.502  16.692  0.3867 -1.9369 -1.8432
19177TIP3   OH278945   3.646   2.296  12.854 -0.0141  0.6117 -0.1102
19177TIP3    H178946   3.609   2.287  12.942 -1.3070  0.1456 -0.6859
19177TIP3    H278947   3.665   2.206  12.827 -2.3863  0.4162 -1.4243
19178TIP3   OH278948   5.394   6.210  11.284  0.0706 -0.3587  0.5054
19178TIP3    H178949   5.389   6.180  11.374 -0.9163 -0.7935  0.3182
19178TIP3    H278950   5.315   6.263  11.272 -1.1795 -2.3788 -0.8165
19179TIP3   OH278951   4.853   4.518  11.936 -0.0840 -0.0575  0.1115
19179TIP3    H178952   4.867   4.430  11.972 -0.0156  0.0161  0.2635
19179TIP3    H278953   4.778   4.552  11.984 -0.8895 -0.5048 -0.7950
19180TIP3   OH278954   0.297   1.249  13.625 -0.7265  0.2241 -0.4080
19180TIP3    H178955   0.234   1.298  13.677 -1.7466 -1.0597 -0.3764
19180TIP3    H278956   0.301   1.163  13.667 -0.5537 -0.4023 -1.6421
19181TIP3   OH278957   4.971   1.756   5.834  0.0467  0.0314 -0.1912
19181TIP3    H178958   4.966   1.690   5.904  0.8196 -0.7687 -0.8705
19181TIP3    H278959   5.065   1.774   5.826  0.0407 -0.4505 -1.5220
19182TIP3   OH278960   2.458   0.399  14.691 -0.4713  0.1036 -0.1130
19182TIP3    H178961   2.422   0.315  14.660 -2.5066  0.8211  0.1694
19182TIP3    H278962   2.462   0.389  14.787 -0.4008  0.2018 -0.1061
19183TIP3   OH278963   4.859   2.356  14.724 -0.1514 -1.0358 -0.4982
19183TIP3    H178964   4.858   2.320  14.813 -1.0183  2.2629  1.0122
19183TIP3    H278965   4.771   2.340  14.690  0.1440 -2.1951 -0.7559
19184TIP3   OH278966   3.974   2.082  12.769  0.3530  0.1687  0.6328
19184TIP3    H178967   4.038   2.121  12.829 -1.3647  2.8506  0.8940
19184TIP3    H278968   4.000   2.114  12.682  0.8188 -0.8349  0.3962
19185TIP3   OH278969   1.752   0.127  12.654  0.1767 -0.4115 -0.2669
19185TIP3    H178970   1.836   0.173  12.648  0.1906 -0.2771  0.7164
19185TIP3    H278971   1.775   0.034  12.652  0.2594 -0.3785 -0.9811
19186TIP3   OH278972   3.618   5.460   4.970  0.0498 -0.1309  0.2386
19186TIP3    H178973   3.537   5.499   4.935 -0.2130 -0.2006  0.7610
19186TIP3    H278974   3.618   5.370   4.936 -0.4537 -0.3523  0.8104
19187TIP3   OH278975   2.464   2.801   1.309 -1.0468 -0.0269  0.2136
19187TIP3    H178976   2.454   2.816   1.403 -0.8196  2.7425 -0.1180
19187TIP3    H278977   2.389   2.747   1.285 -1.5032 -0.1706  1.8416
19188TIP3   OH278978   0.481   0.770   4.494  0.5060  0.2020  0.4484
19188TIP3    H178979   0.512   0.746   4.582  0.1256 -1.4162  0.1847
19188TIP3    H278980   0.394   0.730   4.488  0.1997  0.9842 -0.3823
19189TIP3   OH278981   2.620   3.607   3.891 -0.2708 -0.2848  0.3500
19189TIP3    H178982   2.640   3.689   3.847 -0.7384  1.0522  2.4864
19189TIP3    H278983   2.705   3.566   3.905  0.1710  0.8120  1.0033
19190TIP3   OH278984   4.790   6.366   0.674 -0.0062  0.1686  0.5058
19190TIP3    H178985   4.768   6.273   0.678  0.8675 -0.0821 -0.1323
19190TIP3    H278986   4.725   6.404   0.615  0.2356 -0.2477 -0.0460
19191TIP3   OH278987   5.456   3.002  11.277  0.5835  0.0651  0.2302
19191TIP3    H178988   5.522   3.053  11.324 -0.8997  1.5190  0.8196
19191TIP3    H278989   5.506   2.957  11.208  2.2853  0.5386  1.0927
19192TIP3   OH278990   2.750   3.239  12.995 -0.0625  0.0146  0.3951
19192TIP3    H178991   2.773   3.244  12.903 -0.8379  1.4606  0.2452
19192TIP3    H278992   2.788   3.157  13.026  0.9118 -0.0773 -1.0023
19193TIP3   OH278993   6.630   0.418  10.655 -0.1699  0.2507 -0.5692
19193TIP3    H178994   6.593   0.335  10.627  0.5944  0.2248 -1.5562
19193TIP3    H278995   6.696   0.439  10.589 -0.2703  1.5919 -0.2793
19194TIP3   OH278996   0.180   6.615  16.416 -0.2093 -0.1587 -0.2675
19194TIP3    H178997   0.252   6.590  16.474 -0.6053 -0.4086  0.1264
19194TIP3    H278998   0.123   6.538  16.416 -1.8915  0.9853  1.6273
19195TIP3   OH278999   2.152   5.782   2.971 -0.2837 -1.3337  0.3930
19195TIP3    H179000   2.090   5.783   3.045 -0.4284 -0.1472  0.2755
19195TIP3    H279001   2.105   5.737   2.901 -1.4548  0.4439 -0.0279
19196TIP3   OH279002   1.616   2.908   3.695  0.5714  0.3225  0.2136
19196TIP3    H179003   1.675   2.924   3.768 -0.4533 -4.3835  2.4597
19196TIP3    H279004   1.673   2.902   3.618  2.1025  2.0048  1.1314
19197TIP3   OH279005   5.134   6.183  15.573 -0.4212  0.2585 -0.3003
19197TIP3    H179006   5.082   6.261  15.589 -1.3083 -0.4085  0.1460
19197TIP3    H279007   5.109   6.123  15.643  0.6076 -0.2509 -0.3479
19198TIP3   OH279008   2.506   3.689   1.449  0.0359 -0.0128 -0.4017
19198TIP3    H179009   2.475   3.634   1.521  0.7555  0.2859  0.1548
19198TIP3    H279010   2.452   3.767   1.454 -1.4322 -0.9012 -1.5986
19199TIP3   OH279011   4.986   0.247  13.825  0.1387  0.0434  0.4052
19199TIP3    H179012   5.049   0.259  13.896 -0.9561  0.4421  1.3534
19199TIP3    H279013   5.002   0.159  13.792 -0.0719 -0.6020  1.9295
19200TIP3   OH279014   6.024   5.145  14.428 -0.1705  0.1458 -0.1547
19200TIP3    H179015   6.016   5.231  14.387  1.3618  1.2447  1.7030
19200TIP3    H279016   6.079   5.094  14.368 -1.2633  0.3513 -1.3659
19201TIP3   OH279017   2.802   5.774   5.604  0.1723 -0.4223 -0.5310
19201TIP3    H179018   2.774   5.832   5.534 -0.5505 -0.4145 -0.2393
19201TIP3    H279019   2.747   5.696   5.594 -1.0996  0.2308  1.0089
19202TIP3   OH279020   2.054   5.354   0.909  0.3805 -0.3432  0.8658
19202TIP3    H179021   1.971   5.315   0.880  0.7242 -0.0189 -0.6187
19202TIP3    H279022   2.031   5.444   0.932 -0.0698 -0.8534  2.5946
19203TIP3   OH279023   0.467   5.760   0.580 -0.1393 -0.0094  0.0635
19203TIP3    H179024   0.404   5.829   0.558  0.4291  0.7627  0.7839
19203TIP3    H279025   0.497   5.783   0.668  0.8277 -0.6080 -0.1064
19204TIP3   OH279026   0.345   5.592   5.476  0.4445  0.7964 -0.1805
19204TIP3    H179027   0.344   5.683   5.507  0.9579  0.4553  0.9206
19204TIP3    H279028   0.269   5.585   5.418 -1.5336  1.1102  2.2092
19205TIP3   OH279029   0.153   4.701   3.626 -0.1311  0.1072  0.3106
19205TIP3    H179030   0.098   4.664   3.556 -0.1841 -0.3022  0.5669
19205TIP3    H279031   0.143   4.640   3.699 -1.6686  1.5799  1.3956
19206TIP3   OH279032   0.651   1.829   1.162 -0.2430 -0.4065  0.1451
19206TIP3    H179033   0.680   1.904   1.110  0.9170 -0.2855  0.9254
19206TIP3    H279034   0.730   1.777   1.175 -0.2126  0.1319  2.6875
19207TIP3   OH279035   1.649   2.878   1.676  0.5045 -0.1157 -0.1731
19207TIP3    H179036   1.559   2.846   1.668  0.5381 -0.6356  1.2216
19207TIP3    H279037   1.640   2.970   1.699  0.3844  0.4028 -2.1027
19208TIP3   OH279038   0.022   6.097  16.278 -0.2924  0.2802  0.3700
19208TIP3    H179039  -0.048   6.129  16.334 -0.7170  0.9212 -0.5015
19208TIP3    H279040   0.007   6.003  16.272 -2.8136  0.6986 -2.0119
19209TIP3   OH279041   6.472   2.621  16.449  0.2756  0.3244  0.4978
19209TIP3    H179042   6.436   2.570  16.522 -0.0497  2.3018  1.8002
19209TIP3    H279043   6.565   2.631  16.469  0.2572  0.5636  0.4750
19210TIP3   OH279044   1.395   5.136  12.884  0.1031  0.2254 -0.0912
19210TIP3    H179045   1.410   5.207  12.947  0.1950 -0.3565  0.5594
19210TIP3    H279046   1.311   5.157  12.844 -0.2440  0.3059  0.6561
19211TIP3   OH279047   5.709   6.402   3.718  0.2319  0.1705 -0.0297
19211TIP3    H179048   5.680   6.335   3.656 -0.4018  1.3554 -1.0536
19211TIP3    H279049   5.803   6.390   3.724  0.0803 -1.1093  0.1739
19212TIP3   OH279050   5.878   0.944  17.315  0.3173  0.6986  0.3515
19212TIP3    H179051   5.843   0.907  17.235  1.7247  1.1434 -0.5163
19212TIP3    H279052   5.879   0.872  17.378  1.4717 -0.3239 -0.7923
19213TIP3   OH279053   4.583   5.004   5.080  0.0900  0.3614 -0.7893
19213TIP3    H179054   4.655   4.953   5.042 -0.5989  0.1486 -1.8561
19213TIP3    H279055   4.617   5.034   5.164  1.0172 -0.6977 -0.7552
19214TIP3   OH279056   4.268   3.941   3.066  0.0571 -0.1212  0.0041
19214TIP3    H179057   4.256   3.848   3.047  1.0993 -0.7819  2.1618
19214TIP3    H279058   4.246   3.986   2.985  1.5643 -2.3978 -1.7788
19215TIP3   OH279059   4.621   1.841  12.847 -0.0484 -0.2881 -0.5966
19215TIP3    H179060   4.667   1.843  12.931 -2.9000  1.8749  1.1577
19215TIP3    H279061   4.644   1.757  12.808  3.2868 -0.3634  1.1779
19216TIP3   OH279062   4.302   0.493  12.144 -0.1078  0.4539 -0.3703
19216TIP3    H179063   4.305   0.586  12.124 -0.8505  0.1777 -1.8928
19216TIP3    H279064   4.351   0.451  12.074  1.3238 -0.2463  0.9810
19217TIP3   OH279065   6.002   2.087   6.021 -0.3323  0.0351  0.4519
19217TIP3    H179066   5.944   2.159   5.997 -0.6147 -0.4462 -0.3398
19217TIP3    H279067   5.967   2.011   5.975  1.4774 -0.0709 -0.8351
19218TIP3   OH279068   3.492   4.323  15.352 -0.3800 -0.3958 -0.4694
19218TIP3    H179069   3.405   4.359  15.366 -0.7020 -1.5089  0.5326
19218TIP3    H279070   3.536   4.330  15.436  0.5343  0.2144 -0.9807
19219TIP3   OH279071   5.186   6.672  14.740 -0.0343  0.7218  0.0590
19219TIP3    H179072   5.249   6.616  14.695  0.2547  0.6192  0.5966
19219TIP3    H279073   5.232   6.706  14.816 -0.3860  1.2489  0.0492
19220TIP3   OH279074   6.761   6.088   2.807 -0.0447 -0.0315 -0.4051
19220TIP3    H179075   6.718   6.031   2.871  1.2403 -0.5343  0.0448
19220TIP3    H279076   6.691   6.113   2.747 -1.0544 -0.4475  0.5501
19221TIP3   OH279077   5.298   5.138  16.018 -0.0868  0.7104 -0.3676
19221TIP3    H179078   5.359   5.082  16.067  1.6408  3.1815  0.5227
19221TIP3    H279079   5.222   5.146  16.075  0.0472  0.0504 -0.0835
19222TIP3   OH279080   1.019   5.842  13.520  0.5913 -0.1179 -0.7271
19222TIP3    H179081   0.945   5.888  13.560  1.1942  1.5314 -1.3840
19222TIP3    H279082   0.984   5.803  13.440  0.3742  0.5216 -0.9533
19223TIP3   OH279083   1.511   0.534   5.025  0.0686 -0.4094  0.3987
19223TIP3    H179084   1.569   0.593   5.074  2.2256 -0.9346 -1.3793
19223TIP3    H279085   1.471   0.591   4.959  0.8906 -0.5690 -0.2625
19224TIP3   OH279086   1.563   1.189  16.672  0.3987 -0.5458  0.7482
19224TIP3    H179087   1.623   1.172  16.745  1.1491 -0.7701  0.0813
19224TIP3    H279088   1.619   1.208  16.597 -0.3595 -0.8720  0.0828
19225TIP3   OH279089   0.762   1.859  14.853  0.3048 -0.2459 -0.3593
19225TIP3    H179090   0.674   1.882  14.822  0.7913  0.2082 -1.4745
19225TIP3    H279091   0.821   1.909  14.796  1.2743  0.2708  1.0472
19226TIP3   OH279092   1.204   0.676   3.542 -0.0677  0.3089  0.9665
19226TIP3    H179093   1.149   0.699   3.467 -0.2703 -1.9483  0.3540
19226TIP3    H279094   1.224   0.760   3.584 -3.2124  1.3282  0.6856
19227TIP3   OH279095   5.733   6.606   4.365  0.4635 -0.1099  0.1110
19227TIP3    H179096   5.758   6.655   4.287  0.0700  1.0435  0.6856
19227TIP3    H279097   5.641   6.582   4.349 -0.0310  1.2780  0.7698
19228TIP3   OH279098   3.368   6.472  11.054  0.0919  0.0637  0.5884
19228TIP3    H179099   3.452   6.464  11.008  1.0786 -0.9964  2.4697
19228TIP3    H279100   3.338   6.381  11.063  0.1443  0.1889  2.3518
19229TIP3   OH279101   5.012   2.679  14.741 -0.9313  0.0627  0.0459
19229TIP3    H179102   5.048   2.619  14.806  0.0803  0.3019 -0.2821
19229TIP3    H279103   4.946   2.628  14.695  0.5154 -1.0886 -0.8105
19230TIP3   OH279104   5.909   6.469  16.775 -0.4122 -0.2480 -0.6616
19230TIP3    H179105   5.965   6.433  16.706  1.5724  0.5728  0.4337
19230TIP3    H279106   5.943   6.431  16.856 -1.8612 -0.1832  0.0086
19231TIP3   OH279107   0.159   1.744  11.054  0.5122  0.5840  0.1003
19231TIP3    H179108   0.179   1.823  11.003 -0.9727  0.3790 -0.8603
19231TIP3    H279109   0.243   1.700  11.063  0.6535 -0.2177 -3.6561
19232TIP3   OH279110   1.546   3.657   4.515  0.1145 -0.3992  0.4292
19232TIP3    H179111   1.475   3.607   4.474  0.3314  1.0574 -1.9567
19232TIP3    H279112   1.504   3.736   4.548  0.5385  0.4808 -1.0133
19233TIP3   OH279113   2.483   6.184   2.075 -0.0330  0.0849 -0.1557
19233TIP3    H179114   2.465   6.181   2.169  1.9412 -0.6178  0.2597
19233TIP3    H279115   2.578   6.195   2.070 -0.1248  0.2746 -2.0863
19234TIP3   OH279116   5.898   2.429  11.772 -0.0978 -0.3301  0.1291
19234TIP3    H179117   5.936   2.426  11.684 -1.8725 -0.9764 -0.6706
19234TIP3    H279118   5.851   2.512  11.775 -0.6011 -0.6163  0.2093
19235TIP3   OH279119   1.811   5.202   2.969 -0.6368 -0.1972  0.5907
19235TIP3    H179120   1.753   5.216   2.894  0.0830 -0.2736  0.0214
19235TIP3    H279121   1.899   5.201   2.933 -0.3067 -0.7103  1.3723
19236TIP3   OH279122   2.898   4.812   0.849  0.0187 -0.0533  0.4508
19236TIP3    H179123   2.855   4.809   0.763  0.7562 -0.0686  0.0663
19236TIP3    H279124   2.834   4.851   0.907 -0.5776 -0.2459 -0.0652
19237TIP3   OH279125   3.011   6.117   1.197  0.3985  0.0796  0.3262
19237TIP3    H179126   2.996   6.024   1.218  0.9397 -0.5260 -1.7599
19237TIP3    H279127   2.956   6.133   1.120 -1.2724  2.1023  1.8372
19238TIP3   OH279128   2.508   1.167   2.925 -0.2248  0.5085  0.1964
19238TIP3    H179129   2.502   1.257   2.955 -0.1630 -0.1642  2.4148
19238TIP3    H279130   2.539   1.118   3.001  2.2305 -1.0365 -1.6298
19239TIP3   OH279131   4.137   5.754   5.414  0.1585 -0.7695 -0.1735
19239TIP3    H179132   4.140   5.850   5.422 -1.7792 -0.8026  1.9598
19239TIP3    H279133   4.044   5.735   5.401  0.3669 -2.4188  0.5927
19240TIP3   OH279134   4.912   5.870  11.547 -1.0902 -0.2407 -0.4931
19240TIP3    H179135   4.946   5.932  11.611 -1.3969 -0.1566 -0.4105
19240TIP3    H279136   4.820   5.892  11.538 -0.8287  0.4666 -1.7789
19241TIP3   OH279137   1.895   4.036   3.372 -0.2669 -0.7016 -0.0702
19241TIP3    H179138   1.895   4.003   3.462  1.2826 -0.0790  0.1980
19241TIP3    H279139   1.914   3.958   3.318  0.2995 -0.8129  0.2805
19242TIP3   OH279140   5.697   6.723   2.776 -0.2281 -0.2617  0.1565
19242TIP3    H179141   5.780   6.755   2.741 -0.6040  0.0163 -0.5053
19242TIP3    H279142   5.714   6.632   2.799  0.2171 -0.2507 -0.1146
19243TIP3   OH279143   2.714   4.685  16.879 -0.1110 -0.1792 -0.3604
19243TIP3    H179144   2.758   4.666  16.962 -0.3354 -0.6067 -0.3389
19243TIP3    H279145   2.642   4.622  16.874 -1.8524  1.6466  0.4464
19244TIP3   OH279146   6.307   4.023   3.230  0.2726 -0.0566 -0.4105
19244TIP3    H179147   6.283   4.112   3.207  1.0503  1.2332  3.0446
19244TIP3    H279148   6.225   3.973   3.224 -0.6767  1.4310 -0.2804
19245TIP3   OH279149   1.283   6.314  14.204  0.3377 -0.3253  0.6038
19245TIP3    H179150   1.255   6.282  14.118 -3.1146  0.4506  1.3058
19245TIP3    H279151   1.315   6.402  14.187 -0.8209  0.0280  0.1129
19246TIP3   OH279152   0.411   1.593  17.308  0.1943  0.1345 -0.3961
19246TIP3    H179153   0.464   1.668  17.281 -1.1393  1.0756 -0.5232
19246TIP3    H279154   0.439   1.522  17.251 -0.0142  1.1183 -1.7771
19247TIP3   OH279155   2.207   2.482   3.664 -0.2817  0.3780  0.3352
19247TIP3    H179156   2.283   2.446   3.710 -0.1553 -0.4989 -0.5444
19247TIP3    H279157   2.132   2.445   3.710 -0.1587 -1.5365 -0.9014
19248TIP3   OH279158   3.397   1.454   1.664  0.4409 -0.7663 -0.5459
19248TIP3    H179159   3.400   1.550   1.655  0.9146 -0.7945 -0.6843
19248TIP3    H279160   3.483   1.424   1.635 -0.3780 -1.3987 -2.4961
19249TIP3   OH279161   1.057   2.720   2.145 -0.6107 -0.0351 -0.5511
19249TIP3    H179162   1.151   2.712   2.131 -0.3374  1.1313  0.4229
19249TIP3    H279163   1.018   2.686   2.064  0.6602  0.1431 -1.2736
19250TIP3   OH279164   2.210   3.034  11.432 -0.0202 -0.3927  0.0884
19250TIP3    H179165   2.182   3.057  11.521 -0.0399  0.9582 -0.2544
19250TIP3    H279166   2.155   3.087  11.375  0.8868 -0.2749 -0.6982
19251TIP3   OH279167   4.158   2.056   4.087  0.4401  0.2157  0.6744
19251TIP3    H179168   4.084   2.026   4.034  0.4975  1.5497 -0.2159
19251TIP3    H279169   4.235   2.036   4.034  0.6409 -0.0780  1.0693
19252TIP3   OH279170   6.423   6.574   1.467 -0.2882 -0.5402  0.0416
19252TIP3    H179171   6.370   6.618   1.400 -0.6759 -0.7629  0.1968
19252TIP3    H279172   6.446   6.644   1.528 -1.7385 -0.7013  0.8303
19253TIP3   OH279173   2.635   2.033   5.743 -0.6480 -0.1387 -0.2969
19253TIP3    H179174   2.542   2.016   5.731 -0.7116  0.2799 -0.4074
19253TIP3    H279175   2.671   2.035   5.654 -0.5539 -0.1749 -0.2605
19254TIP3   OH279176   0.295   4.177  11.484  0.4071 -0.4239 -0.2101
19254TIP3    H179177   0.356   4.128  11.429  0.7929  0.9933 -1.1135
19254TIP3    H279178   0.340   4.260  11.501  0.4959 -0.9452  2.6539
19255TIP3   OH279179   2.663   6.558   1.423 -0.0646 -0.3195 -0.0225
19255TIP3    H179180   2.666   6.516   1.510  1.4377  0.1548  0.1911
19255TIP3    H279181   2.616   6.495   1.368  1.2317 -1.8587  0.5337
19256TIP3   OH279182   3.898   3.153  14.750  0.0741  0.5530  0.2760
19256TIP3    H179183   3.956   3.113  14.686  0.1800 -3.3373  2.5062
19256TIP3    H279184   3.955   3.174  14.824 -0.2596  3.7527 -0.2349
19257TIP3   OH279185   3.719   3.561  11.639  0.3183  0.1144 -0.1719
19257TIP3    H179186   3.645   3.620  11.652  0.4837  0.5186 -1.0205
19257TIP3    H279187   3.741   3.569  11.546 -0.2954 -2.0423 -0.5625
19258TIP3   OH279188   2.535   3.058   0.018 -0.4040 -0.3013  0.4172
19258TIP3    H179189   2.528   3.067  -0.077  1.3521 -1.6822  0.1028
19258TIP3    H279190   2.521   3.146   0.052  0.1784  0.4645 -1.2108
19259TIP3   OH279191   3.262   5.251  13.354  0.7134  0.3441 -0.3820
19259TIP3    H179192   3.220   5.266  13.438  2.1340  1.2337  0.2127
19259TIP3    H279193   3.249   5.333  13.306 -1.4487 -0.6856 -1.7062
19260TIP3   OH279194   3.531   6.180  11.113 -0.2680 -0.4874  0.4279
19260TIP3    H179195   3.561   6.217  11.030 -0.7919 -0.0845  0.4104
19260TIP3    H279196   3.437   6.197  11.114 -0.3493 -0.9379  0.8802
19261TIP3   OH279197   0.501   0.362   6.073 -0.2590 -0.2528  0.1551
19261TIP3    H179198   0.410   0.342   6.093 -0.1403  0.4734  1.5163
19261TIP3    H279199   0.539   0.278   6.047 -1.0428 -0.7661  0.6426
19262TIP3   OH279200   1.863   0.463   3.058 -0.2869 -0.4163 -0.2713
19262TIP3    H179201   1.874   0.433   3.148 -1.6764  0.0121  0.0559
19262TIP3    H279202   1.770   0.456   3.041 -0.4897  2.1104 -0.7001
19263TIP3   OH279203   0.202   4.776  14.303  0.2027 -0.3749  0.1522
19263TIP3    H179204   0.228   4.867  14.291  2.2998 -0.7562  1.1960
19263TIP3    H279205   0.173   4.748  14.216  0.9078  0.8977 -0.5351
19264TIP3   OH279206   1.661   3.682  17.320 -0.0216 -0.2501  0.4647
19264TIP3    H179207   1.660   3.653  17.411  0.5374  1.0473  0.9068
19264TIP3    H279208   1.569   3.690  17.297 -0.1669 -0.0180  1.1058
19265TIP3   OH279209   2.785   2.346   3.643  0.3653 -0.5670  0.4393
19265TIP3    H179210   2.742   2.333   3.558  1.7467 -0.5380 -0.2873
19265TIP3    H279211   2.718   2.322   3.707 -1.1212  0.5990 -0.6060
19266TIP3   OH279212   0.507   0.477   2.937 -0.1744  0.1163 -0.0696
19266TIP3    H179213   0.495   0.386   2.963 -1.6380  0.4467  0.5689
19266TIP3    H279214   0.518   0.475   2.842  0.4766 -0.7717  0.0249
19267TIP3   OH279215   3.314   4.288  12.955  0.8064  0.4970 -0.1380
19267TIP3    H179216   3.326   4.261  13.046 -0.2518  0.0370 -0.1143
19267TIP3    H279217   3.317   4.383  12.957  1.6464  0.4698  0.2425
19268TIP3   OH279218   4.329   6.155   6.291  0.0248 -0.2970 -0.1555
19268TIP3    H179219   4.341   6.231   6.235 -0.5391  0.5131  0.7983
19268TIP3    H279220   4.348   6.080   6.234  1.2603  0.5684 -0.9238
19269TIP3   OH279221   5.961   0.342   3.991 -0.0267  0.0460  0.5505
19269TIP3    H179222   6.034   0.315   3.936 -1.4870  0.7131 -1.8823
19269TIP3    H279223   5.927   0.260   4.028  1.4089 -0.3394  1.1072
19270TIP3   OH279224   2.648   6.650   2.654  0.2646 -0.4072 -0.1996
19270TIP3    H179225   2.670   6.700   2.732 -2.4422  1.5888 -0.5911
19270TIP3    H279226   2.679   6.704   2.581 -2.8437  1.0330 -0.6308
19271TIP3   OH279227   1.350   6.403   2.139 -0.5791  0.2489 -0.4917
19271TIP3    H179228   1.423   6.427   2.196 -0.5254  2.8816 -1.5347
19271TIP3    H279229   1.273   6.405   2.197 -0.6004  3.3235 -0.4193
19272TIP3   OH279230   5.934   2.661  13.974  0.5963  0.0077 -0.3645
19272TIP3    H179231   5.975   2.722  13.913 -1.0707  0.3657 -1.1981
19272TIP3    H279232   5.938   2.576  13.930  1.8554 -0.2919  0.2779
19273TIP3   OH279233   3.667   2.255   2.201 -0.0045 -0.7766  0.1479
19273TIP3    H179234   3.641   2.194   2.132  0.3196  0.0317 -0.7122
19273TIP3    H279235   3.590   2.311   2.214 -0.2943 -1.3364  0.9200
19274TIP3   OH279236   0.519   1.587   4.601  0.2910 -0.6351  0.2342
19274TIP3    H179237   0.538   1.679   4.615 -1.0011 -0.1362 -0.9720
19274TIP3    H279238   0.423   1.581   4.603  0.2877 -1.6924 -0.9741
19275TIP3   OH279239   1.284   4.358   2.165 -1.2954 -0.4238  0.2087
19275TIP3    H179240   1.257   4.288   2.105 -1.4552 -1.4960  1.4863
19275TIP3    H279241   1.295   4.435   2.109 -0.3989 -1.6347 -1.3774
19276TIP3   OH279242   4.154   4.788   4.153 -0.3168 -0.2101 -0.1546
19276TIP3    H179243   4.107   4.862   4.192 -1.4573 -0.5006 -0.9305
19276TIP3    H279244   4.137   4.796   4.059  2.1699  0.3365 -0.6213
19277TIP3   OH279245   5.141   4.622  11.907  0.7497 -0.5351  0.2123
19277TIP3    H179246   5.177   4.630  11.996 -0.0679 -1.8353  0.6891
19277TIP3    H279247   5.046   4.628  11.919  0.6545 -0.0254 -0.6824
19278TIP3   OH279248   2.660   0.613  12.462 -0.1894 -0.1977  0.3543
19278TIP3    H179249   2.734   0.632  12.404 -0.7262  0.1208 -0.2367
19278TIP3    H279250   2.646   0.694  12.510 -1.3710  0.3975 -0.9221
19279TIP3   OH279251   4.231   2.272   4.253 -0.0710 -0.2452 -0.0504
19279TIP3    H179252   4.297   2.237   4.314 -0.4196 -0.0390  0.4558
19279TIP3    H279253   4.216   2.202   4.190  1.7003  0.2213 -1.0490
19280TIP3   OH279254   6.544   1.638   4.618 -0.6791  0.2805 -0.2816
19280TIP3    H179255   6.594   1.693   4.678  1.7557 -1.5955 -0.4299
19280TIP3    H279256   6.567   1.670   4.531 -0.2448 -0.1678 -0.3344
19281TIP3   OH279257   6.426   6.320   2.291  0.4051 -0.4248  0.4011
19281TIP3    H179258   6.507   6.327   2.341  2.2207  0.1283 -2.3499
19281TIP3    H279259   6.370   6.389   2.327  2.1289  0.8372  0.7896
19282TIP3   OH279260   1.909   6.603   1.920 -0.5263  0.5142 -0.5329
19282TIP3    H179261   1.996   6.643   1.917 -0.5121  0.8426  2.1135
19282TIP3    H279262   1.863   6.641   1.845  0.5626  2.9623 -0.0662
19283TIP3   OH279263   0.888   3.955   3.233 -0.5503 -0.6928  0.3759
19283TIP3    H179264   0.843   3.892   3.176  0.1488 -0.9213  0.0654
19283TIP3    H279265   0.857   3.933   3.321 -1.9294 -0.0914  0.0647
19284TIP3   OH279266   6.465   5.045   4.448 -0.0870  0.2442 -0.1964
19284TIP3    H179267   6.553   5.056   4.486  0.4704 -1.7369 -0.7918
19284TIP3    H279268   6.481   5.038   4.354 -0.5865 -2.3744 -0.1363
19285TIP3   OH279269   2.497   4.306  13.056  0.0063  0.2460 -0.3295
19285TIP3    H179270   2.561   4.374  13.037 -0.2393  0.6215  0.1421
19285TIP3    H279271   2.444   4.343  13.128 -1.1801  0.2345 -1.1690
19286TIP3   OH279272   1.418   6.059  14.808 -0.4602  0.2326  0.5687
19286TIP3    H179273   1.343   6.011  14.774 -0.7750  0.7944  0.4636
19286TIP3    H279274   1.491   5.997  14.802 -1.2465 -0.9751  2.3688
19287TIP3   OH279275   3.220   3.839   0.127  0.5559 -0.1358 -0.0759
19287TIP3    H179276   3.179   3.873   0.206  0.1234  0.9522 -0.7416
19287TIP3    H279277   3.169   3.877   0.055  1.3799 -0.5189 -0.8849
19288TIP3   OH279278   6.051   0.577  15.644  0.1180 -0.1287  0.3040
19288TIP3    H179279   5.986   0.647  15.644  1.4416  1.1560 -0.3920
19288TIP3    H279280   6.001   0.499  15.620 -1.4855  0.4596  1.5233
19289TIP3   OH279281   1.844   2.825   1.315 -0.0415 -0.2820 -0.2162
19289TIP3    H179282   1.874   2.832   1.406 -2.4421  0.5932  0.5879
19289TIP3    H279283   1.792   2.903   1.301 -1.3241 -1.3434 -1.7206
19290TIP3   OH279284   4.587   3.081  17.148 -0.4884 -0.4485  0.1009
19290TIP3    H179285   4.623   3.158  17.103 -0.1796  1.3019  3.1025
19290TIP3    H279286   4.503   3.111  17.183 -0.1068 -1.2867  1.8081
19291TIP3   OH279287   6.145   4.738  16.298 -0.6650 -0.6625  0.2482
19291TIP3    H179288   6.105   4.667  16.348  3.7969 -3.6876  0.0864
19291TIP3    H279289   6.174   4.697  16.217  0.6060  1.8031 -0.6537
19292TIP3   OH279290   4.283   0.114   3.068  0.0553  0.0730 -0.1458
19292TIP3    H179291   4.196   0.140   3.096  0.1547  0.6804 -0.3903
19292TIP3    H279292   4.323   0.194   3.036  1.5465  0.2689  2.0702
19293TIP3   OH279293   2.682   0.393  16.283 -0.1370 -0.1450 -0.2982
19293TIP3    H179294   2.654   0.302  16.273  1.1283 -0.3219 -3.8478
19293TIP3    H279295   2.765   0.388  16.329 -1.0615 -0.5047  1.4235
19294TIP3   OH279296   2.851   0.225   5.398 -0.8754 -0.1212 -0.4510
19294TIP3    H179297   2.887   0.305   5.437 -1.1355  0.2741 -0.9938
19294TIP3    H279298   2.882   0.227   5.307  2.6720 -2.7924  0.4712
19295TIP3   OH279299   1.037   0.993   5.261 -0.0400 -0.7633 -0.6901
19295TIP3    H179300   1.072   0.909   5.290 -0.3377 -0.3750  0.9401
19295TIP3    H279301   1.110   1.036   5.217  0.4878 -1.3775 -0.4322
19296TIP3   OH279302   3.706   1.525   3.552  0.1484 -0.4418  0.2097
19296TIP3    H179303   3.774   1.581   3.514  0.1039  0.2125  1.0823
19296TIP3    H279304   3.690   1.562   3.638 -1.4577 -0.4792 -0.0531
19297TIP3   OH279305   6.665   6.752   1.064  0.2013  0.5671 -0.0155
19297TIP3    H179306   6.577   6.717   1.078 -0.4451  0.3214 -3.6649
19297TIP3    H279307   6.723   6.692   1.111 -1.3926 -1.2412 -0.2637
19298TIP3   OH279308   5.496   6.706  10.329  0.4900  0.3035 -0.0055
19298TIP3    H179309   5.421   6.758  10.358 -1.0183 -1.4736 -0.5468
19298TIP3    H279310   5.505   6.638  10.396  0.7966 -0.2478 -0.5931
19299TIP3   OH279311   6.740   6.484   0.402 -0.4259 -0.3003  0.0686
19299TIP3    H179312   6.682   6.486   0.326  0.8943 -0.7694 -1.0007
19299TIP3    H279313   6.744   6.575   0.432  0.5300  0.2778 -1.6516
19300TIP3   OH279314   0.380   4.613   1.770 -0.3023  0.4014 -0.8113
19300TIP3    H179315   0.359   4.701   1.801  2.7087  0.0258  3.0563
19300TIP3    H279316   0.318   4.556   1.816 -0.0980  0.2946 -0.6655
19301TIP3   OH279317   4.828   2.241  17.137 -0.0130 -0.5011  0.0706
19301TIP3    H179318   4.797   2.189  17.063 -1.3031  0.1209  0.1498
19301TIP3    H279319   4.778   2.322  17.132  0.1713 -0.2858  1.3892
19302TIP3   OH279320   0.962   2.407   3.201 -0.5471  0.1989  0.3472
19302TIP3    H179321   0.980   2.422   3.294 -0.6159 -1.8744  0.7637
19302TIP3    H279322   1.043   2.430   3.157  0.0397 -0.3026  1.1344
19303TIP3   OH279323   0.059   4.924  11.716  0.0024 -0.3432 -0.0430
19303TIP3    H179324   0.049   4.838  11.675  0.3430  0.1214 -1.1119
19303TIP3    H279325  -0.030   4.948  11.743 -0.4683 -0.0664 -1.7246
19304TIP3   OH279326   0.235   5.220   4.841  0.1208 -0.2216  0.4034
19304TIP3    H179327   0.184   5.153   4.795 -1.6677  2.2549 -1.4422
19304TIP3    H279328   0.322   5.180   4.851 -1.5488 -3.9580  2.1747
19305TIP3   OH279329   5.812   4.941   3.609 -0.4352 -0.3753  0.2584
19305TIP3    H179330   5.895   4.988   3.615 -0.3987 -0.3931 -0.1065
19305TIP3    H279331   5.816   4.895   3.525 -0.6416 -0.7079  0.4262
19306TIP3   OH279332   1.931   5.850  13.810  0.2281 -0.4989 -0.0882
19306TIP3    H179333   2.004   5.802  13.772  1.4578  0.9739  0.2656
19306TIP3    H279334   1.956   5.861  13.902  0.2411  1.1520 -0.2536
19307TIP3   OH279335   4.550   2.370   1.526 -0.3896  0.2695 -0.2007
19307TIP3    H179336   4.541   2.446   1.584 -1.3728 -0.1713  0.2537
19307TIP3    H279337   4.460   2.339   1.514 -0.0999 -0.2002 -1.2190
19308TIP3   OH279338   2.809   0.573   3.953 -0.1992  0.0576  0.2873
19308TIP3    H179339   2.792   0.481   3.972  0.5725  0.2046  1.9214
19308TIP3    H279340   2.732   0.603   3.905  0.1426 -1.7647 -1.5496
19309TIP3   OH279341   3.491   5.107  12.397  0.1205 -0.4905 -0.0702
19309TIP3    H179342   3.548   5.068  12.463  1.8866  0.6784 -0.8390
19309TIP3    H279343   3.492   5.046  12.324  1.0371 -0.1365 -0.3734
19310TIP3   OH279344   0.285   1.182   0.988  0.4058  0.2381  0.0815
19310TIP3    H179345   0.357   1.137   1.032  0.6919  1.1917  0.6266
19310TIP3    H279346   0.238   1.227   1.059 -2.5558 -2.6860  0.2174
19311TIP3   OH279347   1.835   2.888   3.375  0.6479  0.4433  0.1105
19311TIP3    H179348   1.863   2.856   3.461  1.8651  0.5689 -0.2289
19311TIP3    H279349   1.916   2.899   3.325 -0.0874 -0.3574 -1.3235
19312TIP3   OH279350   4.516   3.569   1.442  0.5695 -0.0740  0.9596
19312TIP3    H179351   4.500   3.657   1.475  0.6937  0.8829 -1.3529
19312TIP3    H279352   4.449   3.556   1.374  1.5584 -1.1206  0.1448
19313TIP3   OH279353   4.459   2.605   1.689 -0.0480 -0.1770  0.6787
19313TIP3    H179354   4.464   2.648   1.604 -0.8062  0.6605  1.0459
19313TIP3    H279355   4.486   2.672   1.751 -1.5876 -0.1039  1.2981
19314TIP3   OH279356   6.276   3.715  11.238 -0.1988 -0.2135 -0.7057
19314TIP3    H179357   6.307   3.706  11.148 -2.8869 -3.0457 -1.5384
19314TIP3    H279358   6.199   3.772  11.232 -1.7997 -2.2438 -0.7395
19315TIP3   OH279359   1.541   4.107   3.801 -0.4465 -0.0146  0.0397
19315TIP3    H179360   1.614   4.153   3.843  0.5057 -0.4446 -1.0792
19315TIP3    H279361   1.490   4.176   3.759  1.0836  0.1071 -1.8030
19316TIP3   OH279362   3.120   4.520   2.069 -0.0577  0.0883 -0.4496
19316TIP3    H179363   3.085   4.515   2.157  1.2011 -1.5357  0.0116
19316TIP3    H279364   3.122   4.614   2.049 -1.4105  0.4121  0.7867
19317TIP3   OH279365   4.151   4.824   6.322 -0.1168  1.0033  0.3515
19317TIP3    H179366   4.243   4.803   6.309  0.0162  1.4953  0.5047
19317TIP3    H279367   4.121   4.855   6.236 -0.5747 -0.7164 -0.1674
19318TIP3   OH279368   0.873   3.245   5.976 -0.1062 -0.0129  0.9904
19318TIP3    H179369   0.794   3.206   5.940 -0.2944  0.1809  1.1956
19318TIP3    H279370   0.935   3.172   5.981 -1.0158 -0.7059  3.0132
19319TIP3   OH279371   2.772   3.891  17.266 -0.0021 -0.1107  0.1645
19319TIP3    H179372   2.719   3.812  17.264 -1.6036  0.9320  0.1753
19319TIP3    H279373   2.755   3.930  17.352  2.0304 -0.5328  0.8329
19320TIP3   OH279374   2.973   0.197   3.469 -0.1412  0.2158 -0.4773
19320TIP3    H179375   2.909   0.246   3.418  1.6180  0.3168 -2.7878
19320TIP3    H279376   3.042   0.261   3.488  1.1123 -0.7503 -1.5693
19321TIP3   OH279377   1.846   0.737  16.276 -0.4741 -0.0664 -0.5104
19321TIP3    H179378   1.884   0.679  16.342  1.3595  2.5823  0.9463
19321TIP3    H279379   1.845   0.824  16.318 -0.8496  1.4256 -3.3737
19322TIP3   OH279380   2.791   0.480  14.901 -0.2929  0.0255 -0.3377
19322TIP3    H179381   2.784   0.448  14.991 -0.7323  0.5285 -0.1888
19322TIP3    H279382   2.881   0.513  14.895  0.0815 -0.9777 -0.4132
19323TIP3   OH279383   0.631   5.360  17.345  0.2855  0.4093 -0.1154
19323TIP3    H179384   0.576   5.429  17.382  0.9546  1.1985 -0.5697
19323TIP3    H279385   0.583   5.279  17.363 -0.1262  0.9069  1.1438
19324TIP3   OH279386   0.347   5.030  13.382 -0.0114  0.2899  0.4585
19324TIP3    H179387   0.285   4.970  13.341 -0.0612  1.1226 -0.7227
19324TIP3    H279388   0.328   5.116  13.343  0.5791  0.9350  1.5264
19325TIP3   OH279389   3.638   1.367  17.043 -0.1318  0.0906 -0.6025
19325TIP3    H179390   3.613   1.418  16.966 -1.5431  0.1808 -0.1154
19325TIP3    H279391   3.727   1.338  17.024 -0.1139  0.8666 -1.8659
19326TIP3   OH279392   1.547   1.757   6.100  0.5626 -0.4270 -0.2256
19326TIP3    H179393   1.619   1.784   6.158 -0.0247  0.0349  0.3055
19326TIP3    H279394   1.548   1.821   6.029 -1.3356  1.6079  1.4405
19327TIP3   OH279395   0.048   6.265   3.929 -0.2152  0.5529 -0.4621
19327TIP3    H179396   0.004   6.348   3.915 -1.9804 -0.0620  0.9740
19327TIP3    H279397  -0.022   6.206   3.959  1.3923 -0.7910  0.8515
19328TIP3   OH279398   0.998   0.845  12.600 -0.5361 -0.2312 -0.4636
19328TIP3    H179399   0.969   0.809  12.684 -0.1972  0.2319 -0.1408
19328TIP3    H279400   1.090   0.869  12.615 -0.4658 -0.1717 -0.9767
19329TIP3   OH279401   1.308   3.153   2.332  0.1127 -0.8056  0.4368
19329TIP3    H179402   1.307   3.216   2.405  0.2637 -1.3961  0.9626
19329TIP3    H279403   1.398   3.120   2.331 -0.3254 -2.1090  1.1425
19330TIP3   OH279404   0.248   1.669   3.801  0.6389  0.4002 -0.4326
19330TIP3    H179405   0.178   1.643   3.741  1.6726 -1.1701 -1.0159
19330TIP3    H279406   0.317   1.701   3.744  0.9979  0.4852  0.0424
19331TIP3   OH279407   1.324   6.348  13.060 -0.4184  0.6231  0.2388
19331TIP3    H179408   1.385   6.281  13.090 -0.6671 -0.5045 -1.5971
19331TIP3    H279409   1.277   6.374  13.138 -0.7662 -1.8624  0.9490
19332TIP3   OH279410   1.620   1.890  15.354 -0.3689  0.1401  0.7490
19332TIP3    H179411   1.704   1.898  15.308  0.2972 -0.2386  1.8594
19332TIP3    H279412   1.577   1.974  15.339 -0.0752  0.1123 -0.3538
19333TIP3   OH279413   5.228   0.395   3.493 -0.0627 -0.0872 -0.6496
19333TIP3    H179414   5.181   0.323   3.451  1.6739 -0.8523 -1.3687
19333TIP3    H279415   5.209   0.471   3.439  0.2319 -0.5777 -1.4736
19334TIP3   OH279416   2.684   1.638  16.522  0.2855 -0.0943  0.1139
19334TIP3    H179417   2.625   1.577  16.566 -0.3470  1.3883  1.4360
19334TIP3    H279418   2.628   1.687  16.463 -0.0089  1.6979  1.7734
19335TIP3   OH279419   1.018   1.268  14.723 -0.0559 -0.3504 -0.6729
19335TIP3    H179420   1.074   1.343  14.705  0.4263 -0.3431  0.7067
19335TIP3    H279421   0.982   1.285  14.810 -0.8723 -1.1576 -0.8387
19336TIP3   OH279422   2.897   0.295  11.654  0.0550 -0.0802 -0.0329
19336TIP3    H179423   2.864   0.227  11.712 -2.2089  0.7437 -0.2646
19336TIP3    H279424   2.863   0.272  11.568  1.3072  0.0651 -0.5922
19337TIP3   OH279425   3.318   0.649   4.577  0.1440  0.0689  0.4350
19337TIP3    H179426   3.367   0.727   4.550  1.1906 -0.5428  0.4845
19337TIP3    H279427   3.375   0.607   4.642 -0.3547 -0.7781  0.3435
19338TIP3   OH279428   1.375   5.351   3.056  0.3639  0.6293 -0.3965
19338TIP3    H179429   1.347   5.429   3.009 -0.3593  0.4125 -0.3472
19338TIP3    H279430   1.429   5.303   2.994 -1.7765 -0.3911 -1.5745
19339TIP3   OH279431   3.577   1.206  12.415  0.6902 -0.5787 -0.0168
19339TIP3    H179432   3.592   1.276  12.353 -0.2257 -1.0012 -0.7429
19339TIP3    H279433   3.483   1.209  12.433  1.1778  0.8514  2.9705
19340TIP3   OH279434   1.706   0.032  15.689 -0.3161 -0.5717  0.1704
19340TIP3    H179435   1.742   0.111  15.728 -0.9208 -0.7677  1.1333
19340TIP3    H279436   1.675   0.060  15.602 -2.6105  0.7941  1.3439
19341TIP3   OH279437   4.985   2.152   1.773  0.5919  0.0889  0.4243
19341TIP3    H179438   4.919   2.154   1.843  0.4061  1.0281  0.2331
19341TIP3    H279439   5.068   2.149   1.819  0.5889  2.9307  0.8004
19342TIP3   OH279440   3.175   4.332   3.897 -0.0335 -0.3317  0.1531
19342TIP3    H179441   3.216   4.411   3.863  1.3588 -0.8982  0.4417
19342TIP3    H279442   3.081   4.348   3.890  0.2055  1.5647  0.7198
19343TIP3   OH279443   4.809   4.449   3.089  0.1745  0.5184  0.0330
19343TIP3    H179444   4.800   4.435   3.183  0.2960  1.1303  0.1334
19343TIP3    H279445   4.723   4.426   3.054 -0.3423  1.7368  0.4643
19344TIP3   OH279446   3.592   5.030  14.756  0.2827  0.0145  0.1957
19344TIP3    H179447   3.541   5.052  14.834 -1.2476 -2.2189 -0.0975
19344TIP3    H279448   3.665   4.977  14.789  0.0930 -0.2425  0.2068
19345TIP3   OH279449   1.148   1.878  15.860  0.6294  0.0534  0.5010
19345TIP3    H179450   1.179   1.827  15.785 -2.1995  0.2534 -0.9679
19345TIP3    H279451   1.108   1.814  15.918 -0.8608  0.2579 -0.2348
19346TIP3   OH279452   1.240   1.886   5.920 -0.4037 -0.5331 -0.3597
19346TIP3    H179453   1.174   1.915   5.984 -1.5179  0.3001 -1.8175
19346TIP3    H279454   1.207   1.802   5.888 -1.0435  0.0848 -1.4046
19347TIP3   OH279455   1.540   3.055   3.063 -0.2118  0.4543  0.3728
19347TIP3    H179456   1.490   3.014   2.992 -0.8808  0.8245  0.6206
19347TIP3    H279457   1.526   3.149   3.052 -0.8967  0.4893  1.3915
19348TIP3   OH279458   5.537   1.692  12.575 -0.1688  0.4837  0.4412
19348TIP3    H179459   5.617   1.706  12.626  0.1250 -0.2830  0.2097
19348TIP3    H279460   5.517   1.599  12.587 -0.4324  0.4282 -0.3442
19349TIP3   OH279461   0.580   2.251  11.503 -0.3446 -0.8449  0.3929
19349TIP3    H179462   0.589   2.346  11.507 -0.1880 -0.8923  1.4414
19349TIP3    H279463   0.604   2.228  11.413 -0.0731  0.0741  0.2225
19350TIP3   OH279464   3.198   6.038   5.720 -0.0252  0.0839 -0.2903
19350TIP3    H179465   3.192   6.036   5.816  1.1320 -0.9763 -0.2145
19350TIP3    H279466   3.202   5.946   5.694 -1.8560  0.2865 -1.5036
19351TIP3   OH279467   6.763   3.566   3.798 -0.7319  0.2198 -0.5545
19351TIP3    H179468   6.782   3.523   3.715 -3.9584  1.2810 -1.9931
19351TIP3    H279469   6.772   3.660   3.779  0.9884  0.4342  1.0574
19352TIP3   OH279470   4.537   1.491  13.859  0.2943  0.7936 -0.1499
19352TIP3    H179471   4.462   1.498  13.799 -0.1489  2.8487  0.5625
19352TIP3    H279472   4.503   1.520  13.944  1.2024 -0.9964  0.8957
19353TIP3   OH279473   3.035   2.892  10.721  0.1732  0.2419 -0.7416
19353TIP3    H179474   3.107   2.842  10.683  0.0558  0.6806 -1.5824
19353TIP3    H279475   2.975   2.826  10.755  1.7355 -0.1195  1.5259
19354TIP3   OH279476   1.881   1.288  13.468 -0.1188 -0.4402  0.3325
19354TIP3    H179477   1.907   1.220  13.531  0.6889 -0.0052  0.4758
19354TIP3    H279478   1.794   1.315  13.496 -0.2547 -1.0930  0.5497
19355TIP3   OH279479   6.247   3.140  14.335 -0.2292  0.0468  0.1551
19355TIP3    H179480   6.308   3.200  14.294 -0.4780  0.2054  0.0136
19355TIP3    H279481   6.287   3.119  14.419  0.1470 -0.0633 -0.0533
19356TIP3   OH279482   3.544   0.232   4.330 -0.5687  0.4770 -0.1805
19356TIP3    H179483   3.558   0.277   4.247 -1.0180 -0.8846 -1.0359
19356TIP3    H279484   3.630   0.233   4.372 -0.5874  2.1673 -0.1135
19357TIP3   OH279485   3.644   0.166  10.862 -0.3895  0.1034  0.1120
19357TIP3    H179486   3.723   0.184  10.810 -0.4715 -0.1598 -0.1035
19357TIP3    H279487   3.666   0.088  10.913  0.2900  1.2772  1.7213
19358TIP3   OH279488   1.937   6.113   5.486 -0.3676  0.2020 -0.1124
19358TIP3    H179489   2.011   6.094   5.544 -1.4724 -1.3399  0.8813
19358TIP3    H279490   1.962   6.194   5.441  1.4078  0.3529  1.0285
19359TIP3   OH279491   1.079   5.579  11.768 -0.0517 -0.0443  0.3718
19359TIP3    H179492   1.019   5.610  11.835  0.0169 -0.4448  0.6244
19359TIP3    H279493   1.133   5.513  11.813  0.0603 -0.2426 -0.0485
19360TIP3   OH279494   6.219   5.494   5.936  0.4641  0.6187  0.6435
19360TIP3    H179495   6.271   5.431   5.985 -0.3629  0.1940  0.9927
19360TIP3    H279496   6.233   5.577   5.982  0.3366  0.3837  1.1145
19361TIP3   OH279497   5.241   1.847   0.753  0.2151  0.0997  0.9559
19361TIP3    H179498   5.304   1.915   0.727  0.1437  0.1469  0.9051
19361TIP3    H279499   5.163   1.896   0.780  0.1448  0.0360  0.8677
19362TIP3   OH279500   5.657   3.823   4.244  0.7848  0.7671 -0.1322
19362TIP3    H179501   5.685   3.755   4.183 -0.4371  0.5008 -0.4174
19362TIP3    H279502   5.580   3.862   4.203 -1.7519 -1.1993  2.3775
19363TIP3   OH279503   2.595   2.211   3.056 -0.1206 -0.0336  0.0011
19363TIP3    H179504   2.663   2.163   3.102 -0.3668 -0.8683 -0.4855
19363TIP3    H279505   2.622   2.209   2.964 -0.7959 -0.3728 -0.1942
19364TIP3   OH279506   6.205   4.323   2.370 -0.1520 -0.1101  0.2205
19364TIP3    H179507   6.298   4.332   2.390 -0.1819 -0.1346  0.3744
19364TIP3    H279508   6.182   4.236   2.403  0.2511 -0.9902 -1.6763
19365TIP3   OH279509   4.942   0.777  12.703  0.0066  0.2715  0.1608
19365TIP3    H179510   5.004   0.705  12.715 -0.6262 -0.4786 -0.9299
19365TIP3    H279511   4.856   0.737  12.719 -0.5270  0.2451 -2.3819
19366TIP3   OH279512   6.533   2.570   0.205 -0.1474  0.4327  0.5048
19366TIP3    H179513   6.525   2.651   0.155 -4.3905  0.1326  0.3591
19366TIP3    H279514   6.533   2.597   0.296 -0.9878  0.6751  0.4419
19367TIP3   OH279515   0.167   3.497   4.926  0.4429  0.3224  0.0520
19367TIP3    H179516   0.187   3.591   4.935 -2.3630  1.2448 -1.9854
19367TIP3    H279517   0.086   3.485   4.974 -0.4518 -0.5045 -1.6090
19368TIP3   OH279518   0.438   6.485   3.109  0.2320  0.3705  0.2776
19368TIP3    H179519   0.489   6.421   3.060  1.8514  1.1502  0.8748
19368TIP3    H279520   0.409   6.438   3.187 -0.6144 -0.2863 -0.4128
19369TIP3   OH279521   2.591   6.671  16.104 -0.7521  0.2862  0.0299
19369TIP3    H179522   2.563   6.624  16.026 -1.8165  1.1857 -0.1491
19369TIP3    H279523   2.662   6.728  16.073  0.2654 -0.8563  0.1665
19370TIP3   OH279524   1.037   5.345   5.493  0.2225  0.1966 -0.0825
19370TIP3    H179525   0.989   5.415   5.450  0.4112 -0.6310 -1.7568
19370TIP3    H279526   0.972   5.300   5.547 -0.0959  1.1089  0.2999
19371TIP3   OH279527   0.112   6.146  16.933  0.2552  0.4753  0.1651
19371TIP3    H179528   0.080   6.192  16.855 -0.4297  1.6601  1.1061
19371TIP3    H279529   0.207   6.154  16.929  0.1836  1.2556 -0.1382
19372TIP3   OH279530   0.810   4.729  11.004  0.1315 -0.0264  0.5174
19372TIP3    H179531   0.753   4.755  10.931  1.0967  4.5275  1.0764
19372TIP3    H279532   0.898   4.746  10.972  0.5475  3.7199  2.9706
19373TIP3   OH279533   3.922   5.248  15.837  0.4194  0.5279 -0.2666
19373TIP3    H179534   3.836   5.219  15.806  1.4590 -1.3565 -1.6313
19373TIP3    H279535   3.983   5.215  15.772  2.2700  1.1385  1.0676
19374TIP3   OH279536   0.749   6.571   4.683  0.3161  0.0057 -0.3331
19374TIP3    H179537   0.839   6.561   4.653  0.6223  1.2091  0.1260
19374TIP3    H279538   0.743   6.517   4.761  1.1691  1.2689  0.6360
19375TIP3   OH279539   4.576   5.824  16.933 -0.0279 -0.6881  0.3536
19375TIP3    H179540   4.534   5.738  16.939 -0.6294 -0.3448  1.3845
19375TIP3    H279541   4.656   5.816  16.985  0.5831 -0.9929 -0.6221
19376TIP3   OH279542   4.216   5.826   2.370 -0.7990 -0.3032  0.3350
19376TIP3    H179543   4.261   5.788   2.295  0.7358  0.8665  0.5949
19376TIP3    H279544   4.233   5.765   2.442 -0.7964 -0.5709  0.1068
19377TIP3   OH279545   1.867   1.894   0.080  0.3771  0.6675  0.2086
19377TIP3    H179546   1.783   1.936   0.096  0.5097  0.1242  2.8283
19377TIP3    H279547   1.845   1.802   0.066  0.5333  0.3238  1.9573
19378TIP3   OH279548   1.144   2.843  13.800  0.1362 -0.0766  0.1466
19378TIP3    H179549   1.211   2.845  13.868 -0.5976 -0.5536  0.8881
19378TIP3    H279550   1.193   2.824  13.720  0.7942 -1.3718  0.8273
19379TIP3   OH279551   4.573   4.624   1.342 -0.3217  0.1894  0.3501
19379TIP3    H179552   4.560   4.667   1.258  0.6017 -1.6302 -0.8021
19379TIP3    H279553   4.654   4.574   1.331 -0.7128 -0.8859  1.9664
19380TIP3   OH279554   6.716   3.895  11.965 -0.0880  0.4784  0.6576
19380TIP3    H179555   6.722   3.915  12.058  0.3710  0.9441  0.5286
19380TIP3    H279556   6.637   3.941  11.936 -0.2971  0.2375  0.8367
19381TIP3   OH279557   2.830   6.232  16.523  0.2352  0.3281  0.6714
19381TIP3    H179558   2.883   6.172  16.575 -1.7895 -1.8200  0.4210
19381TIP3    H279559   2.843   6.318  16.564 -0.2784 -1.0202  3.9597
19382TIP3   OH279560   2.085   2.908  14.902 -0.2858 -0.1965  0.1028
19382TIP3    H179561   2.077   2.975  14.970 -0.0935 -0.8259  0.7646
19382TIP3    H279562   1.999   2.865  14.902  0.3251 -1.4940  1.3597
19383TIP3   OH279563   5.608   3.621   2.280 -0.1755  0.0651  0.3288
19383TIP3    H179564   5.524   3.662   2.301 -0.5828 -1.0677  0.9773
19383TIP3    H279565   5.660   3.692   2.243 -1.4138  0.7861 -0.0949
19384TIP3   OH279566   1.169   5.052  15.474 -0.1883  0.6369 -0.2576
19384TIP3    H179567   1.236   4.988  15.496 -0.1447  1.5909  2.8666
19384TIP3    H279568   1.104   5.044  15.544 -0.7446  3.1819 -0.3811
19385TIP3   OH279569   3.836   5.728   1.660  0.4859 -0.4696 -0.0609
19385TIP3    H179570   3.765   5.789   1.639  1.2091  0.0167 -1.1341
19385TIP3    H279571   3.883   5.715   1.578  1.2001 -1.3746  0.4680
19386TIP3   OH279572   4.735   1.048  16.765  0.9996 -0.6063  0.1694
19386TIP3    H179573   4.660   1.049  16.706  1.8720  0.4358 -1.0091
19386TIP3    H279574   4.807   1.014  16.711  1.9212  0.7605  0.4790
19387TIP3   OH279575   4.938   5.663   1.145  0.5883 -0.1118 -0.5403
19387TIP3    H179576   4.895   5.598   1.089 -0.4946  0.7826 -0.7806
19387TIP3    H279577   5.031   5.641   1.140  0.2450 -1.6535 -0.5894
19388TIP3   OH279578   6.732   5.840  16.271  0.4211  0.6233  0.6201
19388TIP3    H179579   6.675   5.766  16.293  1.0355 -0.0419  0.0262
19388TIP3    H279580   6.762   5.822  16.182  2.7537  0.1346  1.4238
19389TIP3   OH279581   2.652   4.188  16.124  0.3466 -0.5036  0.1254
19389TIP3    H179582   2.658   4.218  16.033  1.2866 -0.5200  0.1701
19389TIP3    H279583   2.560   4.162  16.135 -0.3504  1.6420 -0.1237
19390TIP3   OH279584   1.390   1.018   1.710 -0.4719 -0.1217  0.1215
19390TIP3    H179585   1.442   1.054   1.782 -0.2939  0.4685 -0.2926
19390TIP3    H279586   1.303   1.055   1.722 -0.2061  0.7256 -0.4914
19391TIP3   OH279587   2.999   1.810  15.904 -0.1703  0.6788  0.7969
19391TIP3    H179588   2.945   1.741  15.866 -0.5934 -0.4884  3.2943
19391TIP3    H279589   3.081   1.766  15.927  0.6322  1.6877 -0.0148
19392TIP3   OH279590   2.440   2.856   1.596 -0.2427 -0.3385 -0.2809
19392TIP3    H179591   2.482   2.941   1.608 -1.8595  0.5481 -0.6147
19392TIP3    H279592   2.484   2.798   1.657  0.2120  0.9892  0.6902
19393TIP3   OH279593   6.666   6.214  11.958 -0.7516 -0.0256  0.2202
19393TIP3    H179594   6.687   6.142  11.899 -0.7549 -1.7228  2.1733
19393TIP3    H279595   6.746   6.267  11.961  0.7219 -2.1720  1.7095
19394TIP3   OH279596   1.215   6.435  17.213  0.2137 -0.3020 -0.3388
19394TIP3    H179597   1.152   6.365  17.197  0.6262 -1.3491  2.2201
19394TIP3    H279598   1.167   6.498  17.268  0.8486 -0.2374  0.1544
19395TIP3   OH279599   1.502   5.650   5.152  0.4794  0.4454 -0.0740
19395TIP3    H179600   1.527   5.610   5.068  0.8753 -2.2505  1.2288
19395TIP3    H279601   1.449   5.584   5.195 -0.8023  2.2895  1.3126
19396TIP3   OH279602   2.803   0.055  11.752 -0.6340 -0.0120  0.1848
19396TIP3    H179603   2.889   0.017  11.735 -1.1684 -0.6017 -1.3691
19396TIP3    H279604   2.750  -0.018  11.783 -0.9725  0.0213 -0.3075
19397TIP3   OH279605   5.238   4.443  12.664  0.0303 -0.1980  0.2290
19397TIP3    H179606   5.159   4.495  12.647  0.0097 -0.4180 -0.3695
19397TIP3    H279607   5.212   4.353  12.647  1.1196 -0.0443 -2.7899
19398TIP3   OH279608   5.680   4.173  11.687 -0.1805  0.2606 -0.0936
19398TIP3    H179609   5.711   4.111  11.620  0.5326 -0.2127  0.6493
19398TIP3    H279610   5.656   4.251  11.638  0.9330  0.1576 -0.8548
19399TIP3   OH279611   6.722   0.712   1.607  0.5439  0.4281 -0.2851
19399TIP3    H179612   6.695   0.662   1.531  0.2336 -1.0385  0.7444
19399TIP3    H279613   6.810   0.681   1.627  0.5820  0.7184  0.0122
19400TIP3   OH279614   1.153   4.396  15.583  0.0317  0.0647  0.7641
19400TIP3    H179615   1.244   4.425  15.592  0.0321 -0.0878  1.2709
19400TIP3    H279616   1.115   4.456  15.518  0.7524 -0.4900 -0.1988
19401TIP3   OH279617   4.617   4.197   5.061 -0.5208  0.6318  0.2928
19401TIP3    H179618   4.588   4.274   5.110  3.3026  2.3756  0.1493
19401TIP3    H279619   4.636   4.131   5.128 -1.6046  0.5898  0.5807
19402TIP3   OH279620   2.707   2.590  14.210  0.5739 -0.5282  0.6076
19402TIP3    H179621   2.786   2.551  14.173  0.6971  0.8475 -0.6401
19402TIP3    H279622   2.681   2.658  14.148 -1.6530 -0.9846  0.9351
19403TIP3   OH279623   0.299   2.470   4.835  0.0884  0.7977 -0.0511
19403TIP3    H179624   0.389   2.475   4.802 -0.2360  0.3539 -1.0589
19403TIP3    H279625   0.256   2.548   4.800 -0.5504 -0.2257 -1.6922
19404TIP3   OH279626   0.428   2.078   4.779 -0.4405  0.5652 -0.0228
19404TIP3    H179627   0.444   2.153   4.836 -1.4225  0.3632  0.5392
19404TIP3    H279628   0.428   2.003   4.838 -0.5690  0.2482 -0.4218
19405TIP3   OH279629   4.652   2.144   6.062  0.2062 -0.1658  0.4561
19405TIP3    H179630   4.618   2.100   6.140  1.2752  1.7772  2.0914
19405TIP3    H279631   4.732   2.096   6.041  0.0523 -0.5318  0.6843
19406TIP3   OH279632   2.116   2.264   0.436 -0.2434  0.2405  0.1871
19406TIP3    H179633   2.160   2.194   0.484  3.4347  1.3606 -1.2033
19406TIP3    H279634   2.082   2.222   0.357  1.1003 -0.1802 -0.1862
19407TIP3   OH279635   6.422   1.657   4.127 -0.5985 -0.6481 -0.4537
19407TIP3    H179636   6.335   1.637   4.093  0.0450 -0.4349 -2.3543
19407TIP3    H279637   6.407   1.726   4.192 -1.9094 -1.1261 -0.2226
19408TIP3   OH279638   0.146   2.364  14.187  0.0630  0.0325 -0.5775
19408TIP3    H179639   0.213   2.372  14.255  0.1237 -2.2827 -0.2819
19408TIP3    H279640   0.064   2.353  14.235 -0.2852  0.9554 -0.9334
19409TIP3   OH279641   1.396   6.282  11.043 -0.4292  0.2393  0.1221
19409TIP3    H179642   1.323   6.322  10.996 -0.0114  1.6590  0.6141
19409TIP3    H279643   1.403   6.194  11.007 -1.3837  0.6106 -1.0346
19410TIP3   OH279644   3.939   3.071   1.676  0.1167  0.5003 -0.1864
19410TIP3    H179645   3.904   3.069   1.765  1.1371 -0.7030  0.2098
19410TIP3    H279646   3.890   3.141   1.633 -0.9099  0.6108  1.1004
19411TIP3   OH279647   3.596   1.723  15.390  0.6628 -0.1509  0.0665
19411TIP3    H179648   3.601   1.754  15.300  0.4340 -0.9065 -0.2212
19411TIP3    H279649   3.675   1.756  15.432  0.0906  1.4088 -0.0066
19412TIP3   OH279650   2.750   5.421  15.663 -0.4556  0.2056 -0.4090
19412TIP3    H179651   2.823   5.382  15.615  0.1689  0.7227  0.1031
19412TIP3    H279652   2.716   5.488  15.604  0.2953  0.8250 -0.1632
19413TIP3   OH279653   5.018   2.162   6.899 -0.0633 -0.0592  0.0698
19413TIP3    H179654   4.928   2.130   6.908 -0.6177  0.6981 -2.1139
19413TIP3    H279655   5.072   2.083   6.903 -0.7778 -0.5238  1.4551
19414TIP3   OH279656   6.658   5.350  16.066  0.6984 -0.2337  0.1452
19414TIP3    H179657   6.628   5.335  16.156 -1.0263 -2.0263 -0.6684
19414TIP3    H279658   6.578   5.370  16.017  1.4061 -0.8448 -1.3030
19415TIP3   OH279659   2.316   3.960   4.317 -0.3150  0.3330  0.8197
19415TIP3    H179660   2.322   4.050   4.347 -0.6173  0.6702 -0.0866
19415TIP3    H279661   2.405   3.926   4.324  0.0413  1.0752  0.0896
19416TIP3   OH279662   6.431   6.110  11.581  0.0360 -0.1123 -0.1448
19416TIP3    H179663   6.461   6.024  11.551  0.0849  0.0947 -0.6947
19416TIP3    H279664   6.483   6.172  11.530  1.1075  0.2645  1.3189
19417TIP3   OH279665   5.468   1.725  15.326 -0.0170  0.5961  0.1837
19417TIP3    H179666   5.528   1.673  15.273 -0.3370  3.2418 -3.1937
19417TIP3    H279667   5.520   1.754  15.401  2.2159  0.7347 -1.3076
19418TIP3   OH279668   1.745   6.682   0.489  0.4056  0.1080  0.1912
19418TIP3    H179669   1.683   6.676   0.416 -0.4233 -0.5710  0.9315
19418TIP3    H279670   1.784   6.769   0.480 -0.5206  0.4777 -0.3990
19419TIP3   OH279671   4.110   3.839   2.261  0.5738 -0.6536  0.2892
19419TIP3    H179672   4.123   3.875   2.173  1.0445 -1.2205  0.1187
19419TIP3    H279673   4.025   3.872   2.288  1.2611  1.1435  0.4218
19420TIP3   OH279674   5.447   6.755   0.054  0.1335  0.0180  0.0675
19420TIP3    H179675   5.400   6.827   0.096 -0.5703 -0.2858 -0.1884
19420TIP3    H279676   5.380   6.707   0.004  0.4858 -1.1231  0.6486
19421TIP3   OH279677   5.164   5.390  11.661  0.6475  0.1816  0.0460
19421TIP3    H179678   5.157   5.439  11.579 -0.9880 -0.9183 -0.5258
19421TIP3    H279679   5.105   5.435  11.721  0.7010  0.0953  0.1645
19422TIP3   OH279680   1.790   1.719   0.853  0.3526  0.1720  0.3896
19422TIP3    H179681   1.774   1.704   0.760  0.3655  1.3308  0.1754
19422TIP3    H279682   1.864   1.662   0.875 -1.3341 -2.1553  0.3893
19423TIP3   OH279683   4.119   3.445  16.642  0.4119 -0.2144 -0.4457
19423TIP3    H179684   4.030   3.416  16.658  0.3908  0.4879  0.8144
19423TIP3    H279685   4.171   3.406  16.712  0.6579  1.3550  0.2894
19424TIP3   OH279686   5.255   6.251   6.356 -0.2414 -0.0447  0.2481
19424TIP3    H179687   5.342   6.258   6.317  0.7833 -2.3589  1.8865
19424TIP3    H279688   5.268   6.196   6.433 -3.0426  0.2110  1.0043
19425TIP3   OH279689   2.536   3.385  13.219  0.1360  0.1921 -0.0953
19425TIP3    H179690   2.542   3.444  13.143 -1.5256 -0.1951 -0.5893
19425TIP3    H279691   2.561   3.299  13.184 -0.3231  0.0723 -0.1360
19426TIP3   OH279692   1.189   2.633   5.198  0.7760  0.0610 -0.0142
19426TIP3    H179693   1.225   2.545   5.211 -1.0695 -0.7265  0.0893
19426TIP3    H279694   1.150   2.630   5.111  0.4904  0.6932  0.0902
19427TIP3   OH279695   3.058   3.895   0.354 -0.3787 -0.3586 -0.1397
19427TIP3    H179696   3.115   3.875   0.428 -1.5321 -0.1480  0.8332
19427TIP3    H279697   3.028   3.985   0.370 -0.3260 -0.1559 -1.0881
19428TIP3   OH279698   4.529   2.111   0.787 -0.4980 -0.3874 -0.0829
19428TIP3    H179699   4.588   2.064   0.728 -1.0057 -0.5547 -0.4676
19428TIP3    H279700   4.520   2.198   0.748  1.2113  0.3926  1.1463
19429TIP3   OH279701   4.163   6.229   0.322  0.6945  0.2592 -0.0485
19429TIP3    H179702   4.079   6.202   0.286  1.5011  1.0833 -2.7214
19429TIP3    H279703   4.210   6.147   0.338 -0.7863 -0.2558  2.1842
19430TIP3   OH279704   0.674   4.408   5.133  0.4721  0.2424  0.4533
19430TIP3    H179705   0.633   4.353   5.200 -0.8137 -0.2972 -0.7135
19430TIP3    H279706   0.759   4.367   5.118  0.6660  0.2080  1.5362
19431TIP3   OH279707   3.030   2.209   1.862 -0.1910 -0.0412 -0.3560
19431TIP3    H179708   2.993   2.129   1.824 -0.8186  0.6516 -1.2616
19431TIP3    H279709   3.056   2.261   1.786  1.2599  0.1464  0.2408
19432TIP3   OH279710   0.579   4.423  15.578  0.0919  0.0938 -0.1594
19432TIP3    H179711   0.497   4.465  15.604 -0.0187  1.1051 -1.9680
19432TIP3    H279712   0.599   4.461  15.493  1.6111 -1.3299 -0.4856
19433TIP3   OH279713   0.885   0.611   2.039 -0.2200 -0.7914 -0.6050
19433TIP3    H179714   0.800   0.581   2.070 -1.0117  0.9656 -0.9428
19433TIP3    H279715   0.907   0.553   1.966 -0.9629 -1.4666 -0.2980
19434TIP3   OH279716   0.170   3.204   5.452  0.2429 -0.0888 -0.4320
19434TIP3    H179717   0.091   3.245   5.489  0.1183 -1.3547  0.7816
19434TIP3    H279718   0.143   3.116   5.427  1.1340 -0.3514 -0.5155
19435TIP3   OH279719   1.590   0.560   3.584 -0.2585 -0.6173  0.8324
19435TIP3    H179720   1.604   0.513   3.502  2.6786  0.8110  0.3529
19435TIP3    H279721   1.647   0.516   3.647 -0.7642 -0.3244  1.5017
19436TIP3   OH279722   0.019   6.552   2.856 -0.4276 -0.4382 -0.6227
19436TIP3    H179723   0.068   6.478   2.893  2.0338  1.6683  0.6819
19436TIP3    H279724   0.084   6.622   2.846 -2.5359  1.4762 -2.1583
19437TIP3   OH279725   2.369   2.353   1.953  0.3136  0.1795 -0.5382
19437TIP3    H179726   2.320   2.431   1.926 -0.3850 -0.6075 -1.5768
19437TIP3    H279727   2.461   2.381   1.951  0.2921  0.2552 -3.5146
19438TIP3   OH279728   4.098   5.261   5.195  0.0485  0.6616  0.5698
19438TIP3    H179729   4.094   5.183   5.250  0.5769  0.3220  0.1395
19438TIP3    H279730   4.083   5.229   5.106 -1.7444  1.3305  0.5929
19439TIP3   OH279731   1.727   5.211  13.903 -0.2624  0.4530 -0.7455
19439TIP3    H179732   1.674   5.210  13.823 -0.6280 -4.4027 -0.7584
19439TIP3    H279733   1.793   5.142  13.889  1.6276  1.5331  1.9974
19440TIP3   OH279734   1.343   6.137  17.245  0.9660  0.0809  0.0501
19440TIP3    H179735   1.350   6.047  17.275  0.3772  0.0073 -0.0242
19440TIP3    H279736   1.272   6.136  17.179 -0.8079  1.0285  1.8283
19441TIP3   OH279737   0.153   0.355  10.594 -0.4259  0.6413  0.7409
19441TIP3    H179738   0.095   0.339  10.669 -0.5037  2.3294  1.0810
19441TIP3    H279739   0.223   0.291  10.604 -0.7586  0.4328  1.9298
19442TIP3   OH279740   5.749   2.934  12.164  0.4306  0.8037 -0.0367
19442TIP3    H179741   5.823   2.981  12.124 -0.5881  1.0831 -1.7017
19442TIP3    H279742   5.728   2.986  12.242  3.3218 -0.4953  1.7773
19443TIP3   OH279743   2.814   1.712  16.915  0.4965  0.2928 -0.4501
19443TIP3    H179744   2.899   1.756  16.920  1.0024 -0.6492 -0.4412
19443TIP3    H279745   2.822   1.653  16.840  0.3490 -0.8033  0.3698
19444TIP3   OH279746   3.126   2.490  12.065 -0.0315 -0.0431  0.0849
19444TIP3    H179747   3.212   2.485  12.107  0.3516 -0.7598 -0.7480
19444TIP3    H279748   3.094   2.400  12.064 -0.2908  0.0473 -0.6164
19445TIP3   OH279749   6.702   1.983   1.256 -0.2502 -0.6053 -0.1987
19445TIP3    H179750   6.779   1.965   1.202 -1.0825 -0.9689 -1.3086
19445TIP3    H279751   6.731   2.049   1.318  1.1286 -1.1927 -0.1845
19446TIP3   OH279752   0.498   0.720  13.219  0.6294 -0.3972 -0.3517
19446TIP3    H179753   0.455   0.636  13.237  0.9028 -0.3391  0.6089
19446TIP3    H279754   0.425   0.781  13.207  0.4027 -1.0047 -2.3372
19447TIP3   OH279755   4.939   3.774   3.483  0.1949  0.1495  0.0119
19447TIP3    H179756   4.958   3.813   3.398  0.4297  0.0583  0.0235
19447TIP3    H279757   4.895   3.691   3.462 -0.1150  0.3177 -0.0143
19448TIP3   OH279758   2.277   4.388  17.181  0.4211  0.3618 -0.2138
19448TIP3    H179759   2.295   4.374  17.088 -1.3702  1.1739 -0.7347
19448TIP3    H279760   2.185   4.363  17.191  0.7959 -0.4575  1.5245
19449TIP3   OH279761   3.888   1.755  11.292  0.1811  0.2300 -0.2331
19449TIP3    H179762   3.966   1.810  11.295 -0.1480  0.6826  0.0730
19449TIP3    H279763   3.815   1.816  11.286 -0.3159 -0.0576  1.9215
19450TIP3   OH279764   4.678   5.912   6.326  0.4676  0.1542 -0.0161
19450TIP3    H179765   4.644   5.825   6.349 -1.8113  0.6797 -1.1119
19450TIP3    H279766   4.629   5.972   6.382 -1.1649  1.0092 -2.2129
19451TIP3   OH279767   5.890   5.660  12.439 -0.5642 -0.1062  0.3735
19451TIP3    H179768   5.796   5.647  12.450 -0.5544 -1.3088 -0.7280
19451TIP3    H279769   5.929   5.610  12.511 -0.7567  0.5424  0.9400
19452TIP3   OH279770   5.333   3.543   4.227  0.0704  0.2936 -0.8080
19452TIP3    H179771   5.327   3.634   4.256 -0.0289 -0.4914  1.9419
19452TIP3    H279772   5.312   3.546   4.134 -0.4294  3.0061 -0.6904
19453TIP3   OH279773   2.416   5.244   0.207 -0.4758  0.0570 -0.9769
19453TIP3    H179774   2.491   5.239   0.267 -2.4708 -0.7369  1.6370
19453TIP3    H279775   2.391   5.153   0.192  0.5570  0.1576 -3.9821
19454TIP3   OH279776   6.470   4.783   4.826  0.3621 -0.1507 -0.3883
19454TIP3    H179777   6.417   4.704   4.823 -0.7923  0.6198 -1.1585
19454TIP3    H279778   6.416   4.850   4.784  0.8427  1.3172  1.1953
19455TIP3   OH279779   1.447   2.518  15.689  0.4759 -0.0049  0.1450
19455TIP3    H179780   1.449   2.487  15.779  0.9926  1.4484  0.6699
19455TIP3    H279781   1.517   2.583  15.684 -0.3353  0.8395 -0.9531
19456TIP3   OH279782   3.756   6.624   4.793  0.6907  0.2291  0.1774
19456TIP3    H179783   3.824   6.640   4.859  2.4124  2.0719 -1.8749
19456TIP3    H279784   3.805   6.611   4.712 -1.3776 -0.6580 -1.0014
19457TIP3   OH279785   2.530   5.786   3.634 -0.6161  0.2769  0.2198
19457TIP3    H179786   2.436   5.765   3.635  0.0324 -3.4307  1.7546
19457TIP3    H279787   2.560   5.754   3.549 -0.6775  1.3835 -0.2342
19458TIP3   OH279788   0.389   1.819  16.204 -0.0887 -0.5532 -0.2143
19458TIP3    H179789   0.360   1.852  16.119 -1.6447 -0.6164  0.2532
19458TIP3    H279790   0.307   1.800  16.251  0.7073  0.4942  1.6859
19459TIP3   OH279791   6.771   5.912  12.013 -0.6161  0.0903  0.0904
19459TIP3    H179792   6.854   5.928  11.969 -0.7899 -0.9630 -0.6598
19459TIP3    H279793   6.705   5.932  11.947 -0.8749 -1.7260 -0.2613
19460TIP3   OH279794   1.473   0.999   5.297 -0.2527 -0.1807  0.1024
19460TIP3    H179795   1.403   1.059   5.324 -0.0004 -0.3385  1.1136
19460TIP3    H279796   1.430   0.914   5.289 -0.3442 -0.1170 -0.1055
19461TIP3   OH279797   0.855   2.603  14.029  0.4560  0.4439 -0.1607
19461TIP3    H179798   0.810   2.655  14.096 -0.0816 -0.7092  0.3859
19461TIP3    H279799   0.792   2.597  13.957  1.0823  1.7968 -0.8753
19462TIP3   OH279800   2.396   5.746  16.450 -0.0150  0.7114 -0.1032
19462TIP3    H179801   2.458   5.681  16.417 -0.6614  0.3744 -0.6697
19462TIP3    H279802   2.451   5.822  16.472  0.6619  0.2238 -0.0831
19463TIP3   OH279803   0.188   4.520  12.994 -0.0363  0.4008  0.1965
19463TIP3    H179804   0.187   4.428  13.019 -0.3120  0.3376 -0.0512
19463TIP3    H279805   0.281   4.543  12.994  0.0597  0.0198 -0.1263
19464TIP3   OH279806   0.631   4.318  10.389 -0.4492 -0.1486  0.2388
19464TIP3    H179807   0.620   4.244  10.448  0.8230 -0.7083 -0.1932
19464TIP3    H279808   0.542   4.340  10.361 -1.1077  0.2207  2.4173
19465TIP3   OH279809   0.890   3.011   5.647 -0.2190 -0.2361 -0.2169
19465TIP3    H179810   0.837   3.061   5.586 -1.4884 -0.6787  0.4960
19465TIP3    H279811   0.835   3.001   5.725  1.9794  1.9512  1.8144
19466TIP3   OH279812   6.490   1.388  14.057 -0.1261  0.4685  0.6098
19466TIP3    H179813   6.532   1.461  14.013  0.4185  2.3161  3.8789
19466TIP3    H279814   6.562   1.340  14.098 -0.6343 -0.9622 -0.1013
19467TIP3   OH279815   4.066   6.233  14.719  0.0923  0.1430  0.0287
19467TIP3    H179816   4.043   6.322  14.694 -1.4539  0.6216  2.7818
19467TIP3    H279817   3.987   6.182  14.700  0.5146 -0.3962 -0.3148
19468TIP3   OH279818   6.201   4.717   6.096  0.3412  0.1696  0.0757
19468TIP3    H179819   6.251   4.691   6.019  2.6810 -2.8483  2.3361
19468TIP3    H279820   6.118   4.670   6.089  0.3028  0.3514 -0.8079
19469TIP3   OH279821   1.842   0.231  17.003 -0.4110  0.2167 -0.1169
19469TIP3    H179822   1.771   0.232  17.067  1.8981  2.6491  2.6630
19469TIP3    H279823   1.817   0.298  16.939 -0.5422  1.2790  1.0050
19470TIP3   OH279824   3.442   5.832   3.429 -0.1698 -0.4874  0.1831
19470TIP3    H179825   3.467   5.914   3.386  0.5260  0.2493  1.8876
19470TIP3    H279826   3.376   5.793   3.371  0.6293  0.4805 -1.4541
19471TIP3   OH279827   1.337   5.122   5.799  0.4213  0.0955 -0.2049
19471TIP3    H179828   1.332   5.204   5.848 -1.7196  0.8679 -1.5501
19471TIP3    H279829   1.308   5.055   5.860 -1.6256  0.9453 -0.1730
19472TIP3   OH279830   2.127   4.554   1.389  0.0662 -0.0193 -0.6900
19472TIP3    H179831   2.065   4.541   1.317 -0.8495 -0.7862  0.2150
19472TIP3    H279832   2.203   4.501   1.365  0.0473  0.2682 -1.4128
19473TIP3   OH279833   0.324   5.369  15.126  0.1311 -0.6009 -0.1133
19473TIP3    H179834   0.235   5.364  15.160  0.1768  0.5123  0.2267
19473TIP3    H279835   0.356   5.279  15.126 -0.6385 -0.8821  0.7355
19474TIP3   OH279836   6.574   6.735  14.030  0.1676  0.2013 -0.3193
19474TIP3    H179837   6.614   6.660  13.986  1.0285  0.3469  0.1796
19474TIP3    H279838   6.528   6.782  13.961  1.6494  0.5277 -1.1381
19475TIP3   OH279839   1.444   0.987   3.012 -0.3810 -0.0851  0.1347
19475TIP3    H179840   1.537   1.005   2.999  0.1201 -1.6557  1.2622
19475TIP3    H279841   1.406   0.996   2.924  1.0283 -0.4411 -0.5505
19476TIP3   OH279842   5.031   5.444   4.389 -0.3413 -0.4027  0.0844
19476TIP3    H179843   5.111   5.401   4.361 -0.2671  0.8095 -1.7302
19476TIP3    H279844   5.060   5.509   4.454  0.1166 -0.1555 -0.3645
19477TIP3   OH279845   4.630   3.016   4.757  0.3167  0.0599  0.4107
19477TIP3    H179846   4.582   3.035   4.837  1.6694  0.6731  1.1148
19477TIP3    H279847   4.585   3.065   4.689 -0.6361 -0.1858  0.8448
19478TIP3   OH279848   6.643   0.188   2.217 -0.1849  0.0662  0.1178
19478TIP3    H179849   6.711   0.141   2.168  0.1427  2.2282 -1.6491
19478TIP3    H279850   6.562   0.147   2.188  0.1637 -0.3749 -0.2703
19479TIP3   OH279851   2.329   2.569   4.590 -0.0571  0.5373 -0.6414
19479TIP3    H179852   2.249   2.518   4.581  0.8633 -0.7099 -2.4084
19479TIP3    H279853   2.301   2.652   4.628 -2.1122  0.0019 -0.8681
19480TIP3   OH279854   0.035   1.076  13.466 -0.1176 -0.1834 -0.2012
19480TIP3    H179855   0.002   1.044  13.381  0.8595 -1.5677 -0.1027
19480TIP3    H279856  -0.003   1.016  13.530 -0.5298  0.6175  0.3194
19481TIP3   OH279857   3.033   0.818  12.707 -1.0245  0.2380  0.0212
19481TIP3    H179858   3.075   0.747  12.756 -1.8928 -0.9343 -0.8516
19481TIP3    H279859   3.074   0.815  12.620 -0.4624  1.3968  0.2235
19482TIP3   OH279860   3.642   0.625  13.360  0.0281  0.4434  0.0668
19482TIP3    H179861   3.661   0.710  13.399 -1.0275 -0.1386  2.0025
19482TIP3    H279862   3.637   0.565  13.435 -2.2287 -0.7479 -0.9468
19483TIP3   OH279863   5.938   2.116  16.186  0.4933  0.0138  0.1024
19483TIP3    H179864   5.990   2.057  16.239  1.2307  1.7191  1.3645
19483TIP3    H279865   5.915   2.188  16.245 -0.6901  0.7981 -1.2547
19484TIP3   OH279866   3.675   6.104  16.481 -0.8584  0.2615 -0.3375
19484TIP3    H179867   3.758   6.106  16.435 -0.6600 -1.0774 -0.0801
19484TIP3    H279868   3.611   6.079  16.415 -0.9965  0.8468 -0.4335
19485TIP3   OH279869   4.123   2.679   3.930 -0.2912 -0.3681 -0.1190
19485TIP3    H179870   4.210   2.706   3.902 -0.5100  0.5515  0.0518
19485TIP3    H279871   4.063   2.727   3.873 -0.6899 -0.9627 -0.2109
19486TIP3   OH279872   2.693   3.022   5.828  0.4650 -0.4498  0.1018
19486TIP3    H179873   2.627   2.952   5.837  0.2275 -0.4988 -1.7684
19486TIP3    H279874   2.759   3.000   5.894  0.4214 -2.4845 -0.4464
19487TIP3   OH279875   2.953   3.967   4.801  0.1934  0.7475  0.6871
19487TIP3    H179876   2.916   4.050   4.830  0.0222  1.3291 -1.1159
19487TIP3    H279877   3.025   3.992   4.743  0.5925 -0.3762  0.6784
19488TIP3   OH279878   1.770   5.055  14.218 -0.2614 -0.3494  0.0540
19488TIP3    H179879   1.828   5.057  14.295  0.6866  0.3561 -0.6412
19488TIP3    H279880   1.725   5.139  14.221 -0.0289 -0.2087 -0.2872
19489TIP3   OH279881   6.008   5.900  14.699 -0.1873 -0.2068 -0.2148
19489TIP3    H179882   5.974   5.812  14.719 -0.2572 -0.8971 -2.9891
19489TIP3    H279883   6.008   5.945  14.784 -0.8673 -2.6199  1.1751
19490TIP3   OH279884   5.952   1.582   3.333  0.6821 -0.2556  0.2021
19490TIP3    H179885   5.946   1.565   3.239  0.6804 -0.3599  0.2209
19490TIP3    H279886   6.040   1.617   3.345  0.6020 -0.0251  0.1282
19491TIP3   OH279887   2.662   2.617  11.653  0.3384 -0.0725 -0.0718
19491TIP3    H179888   2.574   2.603  11.618 -0.4204  0.7815  1.3715
19491TIP3    H279889   2.721   2.586  11.585 -1.0666  0.2751 -1.4921
19492TIP3   OH279890   3.975   0.393  15.621  0.8228 -0.0758 -0.2041
19492TIP3    H179891   4.054   0.382  15.674 -0.2062  0.5837  1.5613
19492TIP3    H279892   3.971   0.488  15.604  1.0731 -0.2611 -1.4145
19493TIP3   OH279893   3.149   1.865  11.757 -0.2803 -0.2723  0.0190
19493TIP3    H179894   3.117   1.951  11.783  0.5937  0.2445 -0.5417
19493TIP3    H279895   3.084   1.833  11.694 -0.4481  0.1110 -0.0022
19494TIP3   OH279896   2.038   5.030  12.180  0.0648 -0.1861 -0.8170
19494TIP3    H179897   1.988   5.097  12.133 -1.3201 -1.2743 -0.9800
19494TIP3    H279898   2.049   5.065  12.268 -0.7913  0.2172 -0.8539
19495TIP3   OH279899   0.555   0.082   1.861  0.4525 -0.4597  0.4600
19495TIP3    H179900   0.621   0.150   1.852 -1.2200  1.2104  0.0039
19495TIP3    H279901   0.576   0.018   1.793  1.9806 -0.3503  0.8053
19496TIP3   OH279902   6.535   0.223  17.316  0.1162 -0.8754  0.4039
19496TIP3    H179903   6.521   0.316  17.333  1.0318 -0.4072 -1.2245
19496TIP3    H279904   6.616   0.202  17.361  0.0302 -0.8343  0.5796
19497TIP3   OH279905   4.439   4.886   3.111  0.4334  0.0163  0.3957
19497TIP3    H179906   4.426   4.850   3.023 -1.0430  0.7950  0.2670
19497TIP3    H279907   4.426   4.812   3.170  0.5834 -0.3265  0.0017
19498TIP3   OH279908   2.892   0.777  15.003  0.1250  1.1815 -0.3965
19498TIP3    H179909   2.826   0.838  14.970 -2.2062 -0.6282  0.5438
19498TIP3    H279910   2.921   0.728  14.926  1.1982  2.6771 -0.9785
19499TIP3   OH279911   4.938   3.300  16.973  0.2207  0.8229 -0.4696
19499TIP3    H179912   4.938   3.258  17.059  1.5317  0.4862 -0.6276
19499TIP3    H279913   5.024   3.282  16.937 -0.7109 -0.0683 -2.3672
19500TIP3   OH279914   0.312   2.032  16.952 -0.2897  0.0278 -0.2660
19500TIP3    H179915   0.360   1.970  16.896  0.0812 -0.1028  0.1869
19500TIP3    H279916   0.379   2.067  17.011 -0.4769  0.9514 -0.5940
19501TIP3   OH279917   3.260   5.343  12.292 -0.0068  0.0315 -0.7705
19501TIP3    H179918   3.250   5.377  12.381  0.7065  0.7342 -0.9471
19501TIP3    H279919   3.354   5.347  12.275 -0.0541 -0.8251 -1.2837
19502TIP3   OH279920   6.085   6.615  14.937 -0.4312 -0.2268  0.1612
19502TIP3    H179921   6.093   6.645  15.027 -0.9213 -0.7749  0.3933
19502TIP3    H279922   5.996   6.640  14.912 -0.3526 -0.2251 -0.1192
19503TIP3   OH279923   4.153   1.176  13.483 -0.2658 -0.9048  0.0920
19503TIP3    H179924   4.220   1.232  13.446 -0.0184 -0.8106  0.6716
19503TIP3    H279925   4.191   1.088  13.479 -0.1158 -0.8544  0.4003
19504TIP3   OH279926   4.872   2.269   4.897  0.3114 -0.8947 -0.1848
19504TIP3    H179927   4.832   2.286   4.982 -0.2452 -0.4322 -0.5293
19504TIP3    H279928   4.827   2.191   4.865  0.3324 -0.9134 -0.1683
19505TIP3   OH279929   6.107   0.487   1.384  0.2393 -0.8161  0.1114
19505TIP3    H179930   6.104   0.392   1.371  0.1810 -0.5942 -1.9009
19505TIP3    H279931   6.080   0.500   1.475 -2.6788 -2.5471 -0.3760
19506TIP3   OH279932   2.845   5.745  13.735  0.0596 -0.3230 -0.0533
19506TIP3    H179933   2.792   5.743  13.655 -0.0945 -0.4718  0.0530
19506TIP3    H279934   2.935   5.757  13.704 -0.0086 -0.3080 -0.2452
19507TIP3   OH279935   2.388   0.311  13.732 -0.9068 -0.7688 -0.7436
19507TIP3    H179936   2.322   0.352  13.677 -0.9905 -0.5621 -0.4926
19507TIP3    H279937   2.461   0.374  13.733 -1.2811 -0.3184  0.1502
19508TIP3   OH279938   6.490   4.092   3.647 -0.1501  0.1579  0.3508
19508TIP3    H179939   6.571   4.129   3.682 -0.4903 -0.7717  2.2565
19508TIP3    H279940   6.480   4.009   3.693 -1.3309 -0.5434 -1.0850
19509TIP3   OH279941   5.112   5.282  12.950  0.7968 -0.7474 -0.3006
19509TIP3    H179942   5.097   5.197  12.992 -2.5400 -0.0278  0.1983
19509TIP3    H279943   5.098   5.346  13.020  0.7158  0.3044 -1.2517
19510TIP3   OH279944   6.686   2.473   3.670  0.6667  0.0945 -0.5842
19510TIP3    H179945   6.618   2.515   3.722  1.0822  0.8209 -0.6092
19510TIP3    H279946   6.646   2.393   3.637 -0.4283  0.8743 -1.2014
19511TIP3   OH279947   0.494   0.947   0.002 -0.2036 -0.7347 -0.4958
19511TIP3    H179948   0.500   1.013  -0.066 -0.8390 -0.2800 -0.1204
19511TIP3    H279949   0.566   0.886  -0.017  1.2782  0.7989 -0.0558
19512TIP3   OH279950   2.007   2.401   3.174  0.6088  0.2225 -0.4045
19512TIP3    H179951   2.025   2.447   3.256 -0.0062  3.6502 -2.0141
19512TIP3    H279952   1.966   2.466   3.118 -1.2284 -2.6244 -2.6891
19513TIP3   OH279953   0.968   2.170   2.639  0.4043  0.2443  0.0514
19513TIP3    H179954   1.055   2.208   2.643  0.3051  0.4662  0.1456
19513TIP3    H279955   0.943   2.157   2.730  0.0745  0.8052  0.0467
19514TIP3   OH279956   3.165   5.820   1.660 -0.5328  0.6067 -0.5925
19514TIP3    H179957   3.139   5.750   1.720  2.0026  0.0760  0.0344
19514TIP3    H279958   3.141   5.787   1.573 -1.8299  0.1989 -0.1013
19515TIP3   OH279959   4.043   2.883  13.328  0.4922 -0.6252 -0.4232
19515TIP3    H179960   4.024   2.820  13.259  0.2028 -0.9636 -0.0363
19515TIP3    H279961   4.038   2.833  13.409  0.5021 -0.1591 -0.1299
19516TIP3   OH279962   5.571   2.021  17.018 -0.0429 -0.0277  0.1299
19516TIP3    H179963   5.610   1.934  17.018  3.3142  1.3200 -0.3422
19516TIP3    H279964   5.617   2.068  16.949 -1.5145  2.2210  0.5693
19517TIP3   OH279965   1.921   5.213   0.401  0.0386 -0.4823  0.5196
19517TIP3    H179966   1.922   5.143   0.467  0.9308 -0.6476  0.3478
19517TIP3    H279967   1.880   5.173   0.325  1.3213 -1.1325  0.1262
19518TIP3   OH279968   2.140   0.647   4.437  0.1110 -0.2393  0.0319
19518TIP3    H179969   2.163   0.686   4.352 -1.7440  0.3301 -0.2399
19518TIP3    H279970   2.203   0.685   4.498 -0.7326  2.1706 -0.4713
19519TIP3   OH279971   3.182   2.571  11.586 -0.1736  0.2764 -0.9122
19519TIP3    H179972   3.264   2.608  11.620 -0.9819  0.8399  0.4960
19519TIP3    H279973   3.124   2.647  11.577 -2.4076 -0.6018  3.5183
19520TIP3   OH279974   3.414   0.568   5.783 -0.0626 -0.0856  0.5355
19520TIP3    H179975   3.427   0.566   5.877 -0.9464 -2.1179  0.6725
19520TIP3    H279976   3.500   0.547   5.747  0.7404  2.5048  0.7504
19521TIP3   OH279977   0.922   0.831  14.962 -0.2123 -0.1840  0.0757
19521TIP3    H179978   0.985   0.759  14.971  0.2261  0.2837  0.8358
19521TIP3    H279979   0.973   0.910  14.979 -0.5389  0.3770 -1.3942
19522TIP3   OH279980   1.692   1.312  14.282  0.1918 -0.3001 -0.0541
19522TIP3    H179981   1.734   1.394  14.256 -0.1618 -0.1875 -0.2708
19522TIP3    H279982   1.735   1.288  14.364  1.5437 -0.8300 -0.8821
19523TIP3   OH279983   0.084   5.288  13.683  0.6439  0.0104  0.0344
19523TIP3    H179984   0.090   5.194  13.699  0.9834 -0.6643 -3.3545
19523TIP3    H279985   0.173   5.313  13.656  0.8050  1.5679  1.8537
19524TIP3   OH279986   6.056   3.120   5.081  0.2965 -0.3229  0.4132
19524TIP3    H179987   6.115   3.133   5.155  0.5430  0.6811  0.0569
19524TIP3    H279988   5.994   3.193   5.086  0.4180 -0.1441 -0.4531
19525TIP3   OH279989   5.412   6.383   2.692 -0.0632 -0.8829 -0.5200
19525TIP3    H179990   5.384   6.292   2.684 -2.2517 -0.2970 -0.2582
19525TIP3    H279991   5.342   6.433   2.649  0.1559  0.7761  0.9250
19526TIP3   OH279992   0.902   3.171   3.841 -0.2036  0.2602 -0.5038
19526TIP3    H179993   0.882   3.128   3.924  0.1084  0.2182 -0.4494
19526TIP3    H279994   0.879   3.106   3.774 -1.2438  0.6000 -0.4889
19527TIP3   OH279995   3.534   6.372   2.616 -0.2430  0.1493 -0.1471
19527TIP3    H179996   3.553   6.287   2.655 -0.0848  0.8697  1.4361
19527TIP3    H279997   3.620   6.412   2.605 -0.3691  0.4480 -0.0498
19528TIP3   OH279998   0.922   5.564  12.451 -0.0323  0.1102  0.1584
19528TIP3    H179999   0.949   5.597  12.537 -2.1349  0.5696  0.6962
19528TIP3    H280000   0.857   5.497  12.470 -2.4087  1.9206 -1.0338
19529TIP3   OH280001   6.734   3.934   4.974  0.0376  0.2247 -0.1470
19529TIP3    H180002   6.670   3.872   4.940  1.3454 -1.0197 -0.4230
19529TIP3    H280003   6.681   4.005   5.010 -1.4605  0.0730 -1.8896
19530TIP3   OH280004   5.425   2.529   5.792  0.0278 -0.0481 -0.0216
19530TIP3    H180005   5.370   2.462   5.834 -0.8091  0.5552 -0.1271
19530TIP3    H280006   5.369   2.566   5.723  0.2908  1.1236  0.3782
19531TIP3   OH280007   3.647   0.256  13.933  0.0563  0.6710 -0.5492
19531TIP3    H180008   3.700   0.213  13.865  0.8385  0.2580  0.3083
19531TIP3    H280009   3.584   0.189  13.959 -0.1219  0.7673 -0.7304
19532TIP3   OH280010   1.849   1.512  11.326 -0.9619 -0.2181  0.2729
19532TIP3    H180011   1.794   1.440  11.354 -2.2987  1.2294  1.5205
19532TIP3    H280012   1.906   1.530  11.401 -0.4259 -0.1474 -0.1404
19533TIP3   OH280013   1.283   4.272   4.890  0.1191  0.0052 -0.3945
19533TIP3    H180014   1.299   4.208   4.960  0.0393  2.0867  1.6453
19533TIP3    H280015   1.235   4.343   4.932  1.5080  2.1367 -2.1418
19534TIP3   OH280016   5.035   5.262  12.100 -0.3194  0.0043 -0.2134
19534TIP3    H180017   5.127   5.262  12.125 -0.0549  2.2368 -0.9467
19534TIP3    H280018   5.031   5.207  12.022  0.9778  2.0737 -1.8352
19535TIP3   OH280019   2.440   6.038   5.960  0.3758  0.1244 -0.0708
19535TIP3    H180020   2.500   5.999   5.896  0.1144  0.2947 -0.4171
19535TIP3    H280021   2.426   5.968   6.024  3.4558  1.0256  1.8086
19536TIP3   OH280022   0.299   4.202   3.126 -0.2718  0.2827 -0.1821
19536TIP3    H180023   0.343   4.121   3.101  0.5227  0.7016 -0.1563
19536TIP3    H280024   0.265   4.237   3.044 -0.6078 -0.0683 -0.1952
19537TIP3   OH280025   4.931   0.462  12.156 -0.3824  0.1543 -0.1089
19537TIP3    H180026   5.012   0.427  12.119 -0.0516  0.8558 -0.0627
19537TIP3    H280027   4.952   0.552  12.179 -1.0246  0.1814  0.4055
19538TIP3   OH280028   1.152   1.785  11.556  0.1150 -1.1440 -0.0774
19538TIP3    H180029   1.225   1.757  11.501 -0.5353 -1.0531 -1.0061
19538TIP3    H280030   1.164   1.738  11.639  2.8493  1.0030  0.8887
19539TIP3   OH280031   3.229   3.292  14.641 -0.4028  0.1569 -0.2000
19539TIP3    H180032   3.197   3.341  14.717 -1.3300  0.3559 -0.7043
19539TIP3    H280033   3.196   3.203  14.655 -1.1521  0.3479 -0.6897
19540TIP3   OH280034   5.929   1.547  14.368 -0.0540  0.0742  0.7998
19540TIP3    H180035   5.880   1.530  14.287 -1.3263  1.2129  1.2736
19540TIP3    H280036   5.861   1.569  14.432  1.0294  0.6516  1.7803
19541TIP3   OH280037   0.218   4.241  13.093 -0.6280 -0.6552  0.4594
19541TIP3    H180038   0.175   4.167  13.052 -3.5199  0.5103  1.1709
19541TIP3    H280039   0.244   4.209  13.180 -0.7101 -1.1617  0.2994
19542TIP3   OH280040   6.211   0.758   4.658  0.3370 -0.2290 -0.5254
19542TIP3    H180041   6.136   0.720   4.702  0.3156 -0.1404 -0.4850
19542TIP3    H280042   6.214   0.848   4.690 -0.1017  0.0517 -1.2314
19543TIP3   OH280043   2.738   3.914  11.433  0.2671  0.6026 -0.5603
19543TIP3    H180044   2.793   3.849  11.388  0.1959  1.0437 -1.2930
19543TIP3    H280045   2.673   3.940  11.368  1.7052  3.1523 -1.1276
19544TIP3   OH280046   4.028   1.650  16.390 -0.6731 -0.5584  0.4644
19544TIP3    H180047   4.044   1.592  16.316 -2.0884 -3.0409  1.9523
19544TIP3    H280048   4.114   1.683  16.415  0.0450 -1.2114 -1.0540
19545TIP3   OH280049   2.494   1.274   4.932 -0.5939  0.0930  0.0336
19545TIP3    H180050   2.542   1.308   4.856  3.3213  1.9248  2.9491
19545TIP3    H280051   2.451   1.351   4.970  0.7002  0.0644  1.6730
19546TIP3   OH280052   4.182   1.498   2.275 -0.3504 -0.2967 -0.0933
19546TIP3    H180053   4.207   1.406   2.278 -1.0806 -0.5111 -0.3100
19546TIP3    H280054   4.192   1.530   2.364  1.1427 -0.2395 -0.2629
19547TIP3   OH280055   1.683   4.709  15.786  0.8121  0.0217 -0.4926
19547TIP3    H180056   1.675   4.762  15.707  1.5660 -1.1597 -1.3975
19547TIP3    H280057   1.778   4.704  15.802  0.6196  2.0214  1.7576
19548TIP3   OH280058   4.405   3.506  11.804 -0.1157  0.0037 -0.0664
19548TIP3    H180059   4.399   3.549  11.719 -0.0472  0.3106  0.0817
19548TIP3    H280060   4.493   3.526  11.835 -1.2113  2.8512  1.6278
19549TIP3   OH280061   5.779   5.076  16.310 -0.2555  0.3833  0.2349
19549TIP3    H180062   5.766   5.111  16.222 -0.8622  0.2840  0.2760
19549TIP3    H280063   5.776   5.153  16.367  1.8926  0.6632  0.0332
19550TIP3   OH280064   2.967   3.276   4.742  0.2995 -0.0950 -0.3965
19550TIP3    H180065   2.912   3.202   4.768  0.3078  0.0358  0.0001
19550TIP3    H280066   3.003   3.251   4.657 -1.0108  0.1589 -1.0607
19551TIP3   OH280067   5.671   4.661  12.960  0.0477 -0.3910 -0.6492
19551TIP3    H180068   5.752   4.694  12.922  0.3795 -0.0071  0.3466
19551TIP3    H280069   5.652   4.580  12.912  1.3945 -0.8503 -0.4350
19552TIP3   OH280070   4.101   1.458  10.413 -0.2245 -0.1823 -1.0472
19552TIP3    H180071   4.062   1.543  10.393  0.1001  1.0638  2.8119
19552TIP3    H280072   4.195   1.471  10.400 -0.0227  0.5887  0.9410
19553TIP3   OH280073   2.139   5.393   0.228  0.0865  0.6495  0.3494
19553TIP3    H180074   2.155   5.374   0.321  0.7480 -2.0882 -0.2426
19553TIP3    H280075   2.179   5.478   0.214  2.0404  0.0970  2.0879
19554TIP3   OH280076   0.097   1.901  11.423  0.0970 -0.6549 -0.3172
19554TIP3    H180077   0.180   1.930  11.385  0.5663  1.3145  1.9204
19554TIP3    H280078   0.110   1.908  11.518 -2.7316  0.1429  0.1163
19555TIP3   OH280079   5.996   3.007   0.362 -0.2199  0.4797  0.1556
19555TIP3    H180080   5.908   3.017   0.397  0.7553 -0.8583  3.3316
19555TIP3    H280081   5.988   2.935   0.299 -1.3220 -0.0471  0.8646
19556TIP3   OH280082   1.422   3.713  14.722  0.3114  0.2587  0.3868
19556TIP3    H180083   1.469   3.777  14.776  2.1142 -1.8662  1.4966
19556TIP3    H280084   1.469   3.714  14.639  1.7757 -1.0825  1.1356
19557TIP3   OH280085   0.107   5.252   5.214  0.0956  0.1149 -0.1928
19557TIP3    H180086   0.202   5.242   5.204  0.1812 -0.1702  0.8003
19557TIP3    H280087   0.071   5.171   5.179  0.3100 -0.3332  0.5905
19558TIP3   OH280088   2.279   4.997  16.766 -0.0480  0.4701 -0.5830
19558TIP3    H180089   2.205   5.025  16.711  0.1093 -0.0916 -1.1057
19558TIP3    H280090   2.347   4.973  16.703 -0.4443 -1.8038 -0.2291
19559TIP3   OH280091   1.598   2.649   2.911 -0.5649  0.0022 -0.3923
19559TIP3    H180092   1.609   2.561   2.947  1.0497  0.8337  1.2848
19559TIP3    H280093   1.605   2.707   2.986 -1.1009  1.6288 -1.5359
19560TIP3   OH280094   1.945   5.621  13.412 -0.6829 -0.0633  0.4070
19560TIP3    H180095   1.886   5.604  13.339 -0.5967 -1.3852  0.6267
19560TIP3    H280096   2.027   5.579  13.387  0.5960  2.6773 -0.4017
19561TIP3   OH280097   3.459   6.742   1.641 -0.1853  0.0570 -0.0487
19561TIP3    H180098   3.482   6.702   1.557  1.1976 -0.6041  0.6017
19561TIP3    H280099   3.492   6.831   1.635  1.4506 -0.4642  0.3368
19562TIP3   OH280100   6.313   4.975  15.969  0.1893  0.8300 -0.1779
19562TIP3    H180101   6.220   4.953  15.973  0.5267 -0.7464 -0.4127
19562TIP3    H280102   6.324   5.045  16.033 -1.1951  1.1975 -0.3100
19563TIP3   OH280103   4.740   6.336  13.602 -0.3040 -0.3804  0.1637
19563TIP3    H180104   4.692   6.322  13.684 -0.5481  0.9376  0.2632
19563TIP3    H280105   4.682   6.391  13.550  0.3932 -0.1714 -0.3952
19564TIP3   OH280106   5.237   0.804  15.512 -1.2069  0.3960  0.0798
19564TIP3    H180107   5.215   0.892  15.482  1.0629  1.6243  1.6913
19564TIP3    H280108   5.164   0.778  15.568 -2.1087  1.0376 -0.7796
19565TIP3   OH280109   6.598   2.452  16.648 -0.2868 -0.2842  0.8892
19565TIP3    H180110   6.663   2.382  16.657  1.6984  1.6049  2.4127
19565TIP3    H280111   6.650   2.530  16.625 -2.1668  1.0880  1.0622
19566TIP3   OH280112   5.439   3.276   0.104 -0.0495  0.1278 -0.0836
19566TIP3    H180113   5.483   3.191   0.111 -0.2132  0.0566  0.1039
19566TIP3    H280114   5.410   3.295   0.193 -1.0200 -0.1648 -0.3228
19567TIP3   OH280115   0.501   2.948  10.934  0.3467 -1.2805 -0.0507
19567TIP3    H180116   0.442   3.023  10.924  2.5656  0.7472  1.1322
19567TIP3    H280117   0.453   2.888  10.990 -1.5248 -0.8185 -1.0653
19568TIP3   OH280118   3.199   0.060   1.256 -0.3431  0.7542 -0.9351
19568TIP3    H180119   3.230  -0.020   1.214  0.1263 -0.7728  1.9822
19568TIP3    H280120   3.113   0.076   1.217 -0.7862 -1.6631 -1.1210
19569TIP3   OH280121   2.934   4.072   5.794  0.4323 -0.6917 -0.5888
19569TIP3    H180122   2.853   4.093   5.840  1.6227 -0.7563  1.6943
19569TIP3    H280123   2.906   4.045   5.706 -1.8412  1.1062 -0.5200
19570TIP3   OH280124   5.358   0.959  13.797 -0.4789 -0.1866 -0.1776
19570TIP3    H180125   5.267   0.946  13.770 -0.8945 -2.0089  1.7921
19570TIP3    H280126   5.354   0.958  13.893  1.3165  2.3468 -0.0028
19571TIP3   OH280127   2.311   1.201  13.339 -0.0958  0.2870  0.5413
19571TIP3    H180128   2.383   1.143  13.317  0.7401  0.9500  1.4400
19571TIP3    H280129   2.273   1.225  13.254  0.6551 -0.1725  0.0586
19572TIP3   OH280130   1.650   4.199  17.238 -0.7932  0.2982 -0.2554
19572TIP3    H180131   1.698   4.129  17.282 -1.7254 -0.0210  0.2802
19572TIP3    H280132   1.600   4.154  17.170  0.1559  0.7103 -1.2579
19573TIP3   OH280133   0.877   4.873  12.324  0.6834 -0.2659  0.1118
19573TIP3    H180134   0.855   4.786  12.289  1.3473 -0.2583 -0.3641
19573TIP3    H280135   0.957   4.858  12.374  0.5881  0.0053  0.3431
19574TIP3   OH280136   5.988   4.859   2.150 -0.7297  0.4346  0.6233
19574TIP3    H180137   6.047   4.932   2.132 -0.2844  0.3010  1.4849
19574TIP3    H280138   6.039   4.800   2.205 -1.2984 -0.2265  0.4519
19575TIP3   OH280139   4.089   2.056   0.155 -0.1549 -0.0523 -0.3655
19575TIP3    H180140   4.097   2.053   0.059 -0.4537 -2.0314 -0.3711
19575TIP3    H280141   4.081   1.965   0.181 -2.3496  0.5382  1.3623
19576TIP3   OH280142   4.330   2.229  14.290  0.4014  0.1860  0.0057
19576TIP3    H180143   4.301   2.303  14.237 -1.1842  0.1679  0.7862
19576TIP3    H280144   4.253   2.203  14.340  0.6829 -2.4505 -0.7605
19577TIP3   OH280145   6.152   5.777  12.004 -0.5126  0.0022  0.0010
19577TIP3    H180146   6.183   5.687  12.001 -0.1412  0.0210  2.0448
19577TIP3    H280147   6.074   5.775  12.060  0.8540  1.2546  2.0727
19578TIP3   OH280148   4.950   6.208  13.049 -0.4768  0.3514  0.0177
19578TIP3    H180149   4.894   6.136  13.077 -2.2628  0.8602 -2.0110
19578TIP3    H280150   4.929   6.279  13.109 -0.5089 -0.0546  0.5000
19579TIP3   OH280151   3.710   4.813   3.562 -0.5466  0.5593  0.1154
19579TIP3    H180152   3.633   4.758   3.550  0.5815 -1.1445  0.3931
19579TIP3    H280153   3.767   4.791   3.488  0.7979 -0.1957  1.3277
19580TIP3   OH280154   3.944   2.215  16.076 -0.3059  0.4256  0.5254
19580TIP3    H180155   3.932   2.269  16.153 -1.9878 -0.2433  0.7937
19580TIP3    H280156   3.974   2.275  16.008 -0.4421  1.3395  1.2621
19581TIP3   OH280157   0.209   3.132   2.713  0.0690 -0.1823 -0.1279
19581TIP3    H180158   0.258   3.070   2.766 -2.8926 -2.1286  0.5877
19581TIP3    H280159   0.236   3.113   2.623  2.1467  0.3526  0.3357
19582TIP3   OH280160   5.565   5.051  17.124 -0.6066  0.1900  0.1051
19582TIP3    H180161   5.613   5.130  17.102  0.3903 -0.3060  0.4385
19582TIP3    H280162   5.625   5.000  17.177 -0.8892 -1.2054 -0.8430
19583TIP3   OH280163   1.063   0.309   3.544  0.1777 -0.0564 -0.0205
19583TIP3    H180164   1.032   0.394   3.574  2.7321  0.8196  0.4340
19583TIP3    H280165   1.069   0.256   3.624  0.9515  0.1914  0.0977
19584TIP3   OH280166   2.984   2.469  14.152  0.5534  0.0002 -0.0633
19584TIP3    H180167   2.968   2.376  14.161  0.7711 -0.0670 -0.3416
19584TIP3    H280168   2.961   2.489  14.061 -0.0219  0.3296  0.1496
19585TIP3   OH280169   4.402   0.863  17.272  0.0903 -0.2945  0.6052
19585TIP3    H180170   4.435   0.807  17.202  1.4309  0.2850  0.7337
19585TIP3    H280171   4.398   0.950  17.232 -1.3228 -0.3330  0.6047
19586TIP3   OH280172   4.113   4.487   2.395 -0.5808 -0.4355 -0.2255
19586TIP3    H180173   4.164   4.481   2.314  0.1261 -1.4017  0.2707
19586TIP3    H280174   4.115   4.580   2.418 -0.6877 -0.1711 -1.2536
19587TIP3   OH280175   0.485   4.959  14.223 -0.1288  0.0011 -0.2918
19587TIP3    H180176   0.564   5.000  14.258 -1.6016  2.9882 -0.1874
19587TIP3    H280177   0.431   4.941  14.301 -0.1349 -0.7747 -0.4638
19588TIP3   OH280178   1.520   6.569   1.687 -0.0373  0.1651 -0.7131
19588TIP3    H180179   1.450   6.581   1.751 -1.2168 -2.2441 -1.4156
19588TIP3    H280180   1.576   6.501   1.725 -0.7750 -1.3319 -2.1220
19589TIP3   OH280181   1.963   4.733  13.988  0.1610  0.3028  0.5016
19589TIP3    H180182   2.041   4.750  13.935  0.6163 -0.1838  0.9983
19589TIP3    H280183   1.991   4.753  14.077  0.2311 -1.4236  0.9095
19590TIP3   OH280184   0.032   2.027  17.032  0.3870 -0.1987 -0.5477
19590TIP3    H180185   0.057   1.935  17.023  2.5292  0.2801  0.0658
19590TIP3    H280186   0.107   2.076  17.000 -0.5114  1.3641 -0.3686
19591TIP3   OH280187   5.701   0.582  13.120 -1.0662  0.5638  0.3413
19591TIP3    H180188   5.719   0.663  13.072 -0.0486  1.1044  1.5764
19591TIP3    H280189   5.743   0.595  13.205 -0.5538 -1.4189  0.4303
19592TIP3   OH280190   1.827   5.725   6.101 -0.2061  0.7878 -0.3190
19592TIP3    H180191   1.742   5.756   6.129 -0.2755  0.2283  0.1162
19592TIP3    H280192   1.817   5.630   6.095  0.7380  0.5750  1.0236
19593TIP3   OH280193   5.826   0.210  12.742 -0.7587  0.8745  0.0921
19593TIP3    H180194   5.735   0.213  12.713 -1.1772  2.5116  1.3779
19593TIP3    H280195   5.827   0.264  12.821  1.1793  0.2231  0.5633
19594TIP3   OH280196   3.155   1.931  12.584 -0.4620  0.2716 -0.6130
19594TIP3    H180197   3.237   1.956  12.542  0.1937 -1.6020 -0.5331
19594TIP3    H280198   3.150   1.836  12.573 -0.7243 -0.2130  2.6648
19595TIP3   OH280199   0.151   6.183   3.491 -0.2744 -0.0714  0.5399
19595TIP3    H180200   0.090   6.114   3.465 -0.4845 -0.1499  1.2164
19595TIP3    H280201   0.207   6.142   3.557  0.5259 -0.0048 -0.0798
19596TIP3   OH280202   4.306   6.239  14.143 -0.3757 -0.2978  0.1050
19596TIP3    H180203   4.288   6.286  14.225  0.4541  0.8346 -0.3477
19596TIP3    H280204   4.359   6.163  14.170  2.5963  1.7090  0.3561
19597TIP3   OH280205   2.070   2.474   4.553  0.3009 -0.2197 -0.2729
19597TIP3    H180206   2.039   2.540   4.492 -0.8102 -1.1396 -0.7273
19597TIP3    H280207   2.000   2.466   4.618 -0.3468 -2.0830 -1.1244
19598TIP3   OH280208   5.791   1.207  12.010  0.6250 -0.1106 -0.4109
19598TIP3    H180209   5.702   1.225  11.981  1.0796 -0.5368 -2.1993
19598TIP3    H280210   5.785   1.122  12.055  0.1961 -0.3720 -0.9477
19599TIP3   OH280211   2.870   3.067   4.100  0.2656 -0.7173 -0.0351
19599TIP3    H180212   2.915   3.081   4.017  1.0011  0.1575  0.4838
19599TIP3    H280213   2.839   3.154   4.126  1.4588 -0.6494  1.3513
19600TIP3   OH280214   4.775   3.867   5.714 -0.8141 -0.2043  0.0206
19600TIP3    H180215   4.792   3.952   5.756 -0.4602 -0.0507 -0.4269
19600TIP3    H280216   4.731   3.816   5.782 -0.7078  0.2130  0.4144
19601TIP3   OH280217   3.499   0.743   0.099 -0.6670  0.4887  0.8221
19601TIP3    H180218   3.590   0.758   0.124 -0.5870 -0.6675  1.2789
19601TIP3    H280219   3.492   0.780   0.011 -0.3573  2.5780  1.6324
19602TIP3   OH280220   1.484   1.517   0.633  0.1798 -0.7092  0.0486
19602TIP3    H180221   1.406   1.572   0.625  0.2539 -0.5593  0.3375
19602TIP3    H280222   1.495   1.478   0.547 -0.6887 -1.3722  0.2298
19603TIP3   OH280223   4.179   4.068   0.212 -0.5335  0.4401  0.2357
19603TIP3    H180224   4.090   4.057   0.179 -1.0940  0.1514  1.7406
19603TIP3    H280225   4.171   4.057   0.307  0.8829  1.7430  0.5617
19604TIP3   OH280226   4.861   3.029   4.168  0.0283 -0.0578 -0.4254
19604TIP3    H180227   4.882   2.944   4.206 -0.0711  0.8327  1.8425
19604TIP3    H280228   4.931   3.087   4.200 -0.9137  1.0653 -0.3225
19605TIP3   OH280229   1.868   0.521  17.148 -0.2671 -0.1816 -0.5870
19605TIP3    H180230   1.850   0.541  17.056 -3.4924 -3.4089 -0.8965
19605TIP3    H280231   1.781   0.506  17.186  0.9680  0.7291  2.9818
19606TIP3   OH280232   4.079   4.639  15.540 -0.4885 -0.3280  0.3674
19606TIP3    H180233   4.143   4.569  15.538  0.6570  0.6998 -1.7718
19606TIP3    H280234   4.070   4.667  15.449 -1.6288  1.6469  1.0085
19607TIP3   OH280235   2.317   6.052  16.832  0.0213  0.2027  0.0968
19607TIP3    H180236   2.280   6.006  16.757 -2.8039 -1.9979  2.6108
19607TIP3    H280237   2.249   6.113  16.859  0.1614 -0.4057  1.9670
19608TIP3   OH280238   4.129   5.538  16.351  0.4321  0.0288 -0.2213
19608TIP3    H180239   4.147   5.486  16.429  0.6400  0.4602  0.0179
19608TIP3    H280240   4.186   5.501  16.284 -0.3826 -0.9152 -0.4126
19609TIP3   OH280241   6.553   5.484   0.258  0.4539  0.2213 -0.1631
19609TIP3    H180242   6.461   5.494   0.280  0.5175 -0.6775  0.5424
19609TIP3    H280243   6.597   5.555   0.305 -0.0456  1.7470 -1.8696
19610TIP3   OH280244   0.736   6.494   4.961 -0.1641  0.0449  0.2327
19610TIP3    H180245   0.645   6.464   4.972 -0.3256  0.4153 -0.0446
19610TIP3    H280246   0.773   6.492   5.049 -0.6736  0.5982  0.4709
19611TIP3   OH280247   6.273   1.928  10.959 -0.2240  0.1329  0.2586
19611TIP3    H180248   6.293   2.001  10.901 -1.7097  0.9949  0.7717
19611TIP3    H280249   6.177   1.919  10.953  0.0094 -2.6180 -0.8000
19612TIP3   OH280250   3.876   2.192  11.311 -0.0076 -0.0592 -0.0655
19612TIP3    H180251   3.920   2.237  11.239  0.4864  1.1166  0.9372
19612TIP3    H280252   3.839   2.263  11.364  0.5338 -0.8317  1.3955
19613TIP3   OH280253   0.785   5.205  16.709 -0.0806  0.3987 -0.1827
19613TIP3    H180254   0.773   5.294  16.676 -3.2510  0.0397 -0.3485
19613TIP3    H280255   0.771   5.149  16.633  2.7080 -0.3110 -0.2627
19614TIP3   OH280256   5.072   3.313  11.233  0.0313 -0.2277  0.3065
19614TIP3    H180257   5.094   3.406  11.223  0.3239 -0.2155  0.9980
19614TIP3    H280258   5.139   3.267  11.183 -1.0562 -0.0301 -1.4402
19615TIP3   OH280259   6.513   3.803  15.735  0.6677  0.4159 -0.5033
19615TIP3    H180260   6.442   3.739  15.733  1.9682 -1.1819  1.3731
19615TIP3    H280261   6.482   3.870  15.797  0.0093  0.7682 -1.1932
19616TIP3   OH280262   3.935   2.428   6.138 -0.1959  0.1677 -0.8471
19616TIP3    H180263   3.966   2.365   6.073 -1.3804  0.1039 -1.3820
19616TIP3    H280264   3.894   2.375   6.206  0.3807  0.2752 -0.4092
19617TIP3   OH280265   6.023   1.308   1.965  0.6345  0.4376  0.2534
19617TIP3    H180266   5.935   1.344   1.972  0.5419  0.4221 -0.7139
19617TIP3    H280267   6.075   1.378   1.926  0.6148 -0.1901 -0.9561
19618TIP3   OH280268   1.124   2.615   2.420 -0.0371 -0.6134 -0.1164
19618TIP3    H180269   1.057   2.546   2.421  0.5254 -1.2083  1.9589
19618TIP3    H280270   1.207   2.567   2.425  0.4344  0.1825 -0.1942
19619TIP3   OH280271   6.039   0.785   4.364  0.0159  0.0457 -0.6638
19619TIP3    H180272   6.078   0.871   4.351 -1.7929  1.0522  0.2749
19619TIP3    H280273   5.960   0.785   4.309 -0.2247 -0.8656 -0.3445
19620TIP3   OH280274   2.312   6.485  17.245  0.2891  0.4825 -0.5327
19620TIP3    H180275   2.304   6.580  17.236 -1.5526  0.3599 -0.5610
19620TIP3    H280276   2.240   6.460  17.302  0.8311 -0.8952 -0.4159
19621TIP3   OH280277   5.827   0.472  14.130 -0.0234  0.5005 -0.3234
19621TIP3    H180278   5.838   0.389  14.175 -0.4102  0.5298 -0.1660
19621TIP3    H280279   5.775   0.525  14.191  0.3908  0.9231 -0.3387
19622TIP3   OH280280   6.424   1.011   0.680  0.0909  0.1633  0.1848
19622TIP3    H180281   6.505   0.992   0.634 -0.0181 -0.3035  0.1828
19622TIP3    H280282   6.424   1.106   0.690  1.4918  0.0310  1.7692
19623TIP3   OH280283   4.102   3.401  12.982  0.2430 -0.1060  0.2874
19623TIP3    H180284   4.043   3.392  13.057  0.0742  0.0124  0.1700
19623TIP3    H280285   4.180   3.443  13.018 -0.0073  0.3472  0.3166
19624TIP3   OH280286   3.524   4.004  13.968 -0.2654  0.5683  0.5075
19624TIP3    H180287   3.441   3.961  13.989  0.2666 -0.3463  0.8088
19624TIP3    H280288   3.525   4.008  13.872 -0.5755  0.4247  0.4977
19625TIP3   OH280289   4.510   2.534  14.408 -0.2270 -0.3470  0.0309
19625TIP3    H180290   4.597   2.497  14.422  0.2536  0.2406 -1.2645
19625TIP3    H280291   4.451   2.474  14.454  0.9567  0.1229  2.3006
19626TIP3   OH280292   2.212   0.810   2.113 -0.3816  0.3972 -0.2035
19626TIP3    H180293   2.290   0.793   2.165  0.1549  0.3524 -1.0042
19626TIP3    H280294   2.243   0.812   2.022 -1.6098 -1.7204 -0.7526
19627TIP3   OH280295   4.806   6.729   5.517  0.1533 -0.1075  0.3158
19627TIP3    H180296   4.866   6.782   5.568 -0.5453 -0.3722  1.4638
19627TIP3    H280297   4.861   6.664   5.474  0.8651  0.7343 -0.0662
19628TIP3   OH280298   5.466   6.193  14.275  0.4120  0.3010 -0.6167
19628TIP3    H180299   5.400   6.180  14.207 -1.4334  0.3827  1.0428
19628TIP3    H280300   5.455   6.284  14.302  0.1018 -0.1137  0.7310
19629TIP3   OH280301   2.246   5.245  15.969  0.0212 -0.4373 -0.1795
19629TIP3    H180302   2.190   5.169  15.955 -0.3620 -0.5401  1.6764
19629TIP3    H280303   2.313   5.239  15.901 -0.6703 -1.7845 -0.7678
19630TIP3   OH280304   5.615   0.243   2.400 -1.4034 -1.1020  0.0167
19630TIP3    H180305   5.667   0.165   2.378 -0.0489 -0.9717  2.4337
19630TIP3    H280306   5.524   0.212   2.397 -1.0027 -2.2797 -0.8752
19631TIP3   OH280307   1.689   3.888   0.263  0.3014  0.2898 -0.2730
19631TIP3    H180308   1.736   3.847   0.335 -1.4888  0.7068  1.1958
19631TIP3    H280309   1.643   3.816   0.220  0.4807  0.2018 -0.3206
19632TIP3   OH280310   2.989   4.349   1.907 -0.1484  0.1635  0.9630
19632TIP3    H180311   2.920   4.394   1.859  1.1407 -1.3542 -2.7124
19632TIP3    H280312   3.053   4.417   1.927 -0.8578  0.9108  0.7561
19633TIP3   OH280313   6.107   1.400  15.194 -0.5851 -0.0479  0.3883
19633TIP3    H180314   6.157   1.477  15.221 -0.0218 -0.3374  0.1787
19633TIP3    H280315   6.079   1.361  15.277  0.3202 -0.3952  0.5436
19634TIP3   OH280316   0.262   2.126   0.454 -0.5890 -0.8245 -0.1036
19634TIP3    H180317   0.304   2.105   0.370  0.4760  0.5258  0.0515
19634TIP3    H280318   0.320   2.191   0.494 -1.8280 -0.3816  1.0446
19635TIP3   OH280319   2.165   6.142  14.649  0.3102  0.2430 -0.9122
19635TIP3    H180320   2.251   6.179  14.630  1.3443  1.2335  4.3223
19635TIP3    H280321   2.184   6.058  14.691 -1.2981  0.1453 -0.3074
19636TIP3   OH280322   6.121   3.155  14.703 -0.3265 -0.5884  0.5179
19636TIP3    H180323   6.063   3.193  14.637  1.5845 -0.2865 -1.0470
19636TIP3    H280324   6.071   3.081  14.738 -0.7216 -2.0041 -2.6632
19637TIP3   OH280325   0.473   3.056   0.498 -0.9808 -0.7735 -0.0582
19637TIP3    H180326   0.449   3.067   0.590  1.9635  0.5572  0.6688
19637TIP3    H280327   0.422   3.122   0.452 -0.9445 -0.0349  0.9375
19638TIP3   OH280328   5.965   5.126   2.291 -0.4242 -0.1433 -0.4450
19638TIP3    H180329   5.882   5.079   2.279 -0.9407  0.6587 -0.1203
19638TIP3    H280330   5.984   5.162   2.204 -1.1644  0.8611 -0.2012
19639TIP3   OH280331   0.368   1.297  14.958  0.2930  0.3640  0.1293
19639TIP3    H180332   0.372   1.393  14.959 -1.3009  0.5064 -1.7034
19639TIP3    H280333   0.292   1.276  15.011 -1.2047  0.3611 -1.8796
19640TIP3   OH280334   0.119   3.775   1.266  0.7668 -0.1333  0.1010
19640TIP3    H180335   0.034   3.815   1.283  0.2997 -1.3324  0.7143
19640TIP3    H280336   0.102   3.706   1.202  1.2826 -0.3512  0.1859
19641TIP3   OH280337   6.304   1.172   3.611  0.1060 -0.0136  1.1133
19641TIP3    H180338   6.224   1.223   3.604  0.8550  1.2626  1.6050
19641TIP3    H280339   6.361   1.207   3.542 -0.8653 -3.1503 -1.5661
19642TIP3   OH280340   5.721   0.007  11.505 -0.5091  0.7223 -0.6402
19642TIP3    H180341   5.636  -0.029  11.532  0.0999  0.6665  1.2913
19642TIP3    H280342   5.770   0.019  11.586  0.8813  1.9699 -1.6080
19643TIP3   OH280343   5.145   3.778  16.019  0.1437  0.2847  0.2283
19643TIP3    H180344   5.225   3.827  16.038 -1.1851  3.2990 -1.1647
19643TIP3    H280345   5.155   3.750  15.929  0.5100 -1.3505  0.7461
19644TIP3   OH280346   4.269   2.584  11.852 -0.3220  0.2454 -0.9272
19644TIP3    H180347   4.174   2.599  11.846 -0.0924  1.2651 -2.7790
19644TIP3    H280348   4.305   2.667  11.882 -0.0688 -0.4596  0.8239
19645TIP3   OH280349   2.483   2.078   6.374  0.0390  0.3060  0.5128
19645TIP3    H180350   2.539   2.006   6.402  0.3286 -0.1656 -1.1729
19645TIP3    H280351   2.543   2.153   6.363 -0.2617  0.8473  2.2659
19646TIP3   OH280352   0.641   6.145  12.489  0.0398  0.6321 -0.5937
19646TIP3    H180353   0.580   6.088  12.441  0.2883  0.1955 -0.4036
19646TIP3    H280354   0.586   6.197  12.547 -0.0412 -1.1683  1.0611
19647TIP3   OH280355   5.568   0.879   3.586  0.0810  0.4107 -0.5287
19647TIP3    H180356   5.472   0.882   3.584  0.0268  0.3270  0.7761
19647TIP3    H280357   5.589   0.876   3.680  1.3457  0.0260 -0.8126
19648TIP3   OH280358   0.490   5.727   6.764 -0.1299 -0.0791 -0.1302
19648TIP3    H180359   0.518   5.815   6.740 -0.9431  0.6490  1.4271
19648TIP3    H280360   0.571   5.678   6.774  0.3081  0.1353 -2.1214
19649TIP3   OH280361   1.858   1.336   3.280 -0.3681  0.0753 -0.0027
19649TIP3    H180362   1.912   1.376   3.348  1.1918  0.2323 -1.2680
19649TIP3    H280363   1.803   1.408   3.248  0.5752  0.6040 -0.4876
19650TIP3   OH280364   0.512   2.356  13.705 -0.4956  0.1613  0.4529
19650TIP3    H180365   0.504   2.312  13.790 -0.0151  1.4930  1.2223
19650TIP3    H280366   0.443   2.316  13.651 -0.8767 -0.6454  1.4843
19651TIP3   OH280367   1.631   5.065  12.135 -0.0195 -0.3533  0.6663
19651TIP3    H180368   1.712   5.115  12.127  0.5659 -1.5885 -2.2191
19651TIP3    H280369   1.637   5.023  12.221  1.5715  0.9116  1.2232
19652TIP3   OH280370   3.193   1.985  16.039 -0.2810  0.6219  0.1823
19652TIP3    H180371   3.224   1.909  16.087 -3.3916 -0.6948  0.3549
19652TIP3    H280372   3.134   1.949  15.973  1.5718  2.6141 -2.7728
19653TIP3   OH280373   1.802   2.777  16.295 -0.2409 -0.0268 -0.2710
19653TIP3    H180374   1.755   2.811  16.371  2.3321  1.3522  0.8442
19653TIP3    H280375   1.763   2.823  16.220 -0.3876  1.4378  0.6616
19654TIP3   OH280376   3.003   3.577   2.751  0.3441 -0.8090  0.0751
19654TIP3    H180377   2.935   3.583   2.685  0.9616 -3.2029 -0.9114
19654TIP3    H280378   2.958   3.591   2.834 -0.8215  0.2315 -0.6964
19655TIP3   OH280379   0.005   6.183   1.959 -0.3914 -0.1898  0.9393
19655TIP3    H180380  -0.013   6.154   2.049 -1.2752 -0.2202  0.7667
19655TIP3    H280381  -0.065   6.247   1.941 -0.2243 -0.1921  0.2733
19656TIP3   OH280382   5.082   3.869   4.996  0.0161  0.2040  0.6668
19656TIP3    H180383   5.176   3.887   4.996  0.0881 -0.0906 -0.5460
19656TIP3    H280384   5.053   3.891   4.908 -0.6375 -1.7378  0.3572
19657TIP3   OH280385   6.745   3.534   5.567 -0.0472 -0.0345 -0.3745
19657TIP3    H180386   6.675   3.496   5.620  1.0713 -1.6694  0.0083
19657TIP3    H280387   6.727   3.504   5.478  0.3692 -0.8194 -0.2070
19658TIP3   OH280388   1.284   3.998   2.167 -0.6610  0.8973  0.2483
19658TIP3    H180389   1.354   4.026   2.109 -0.8366 -1.8577 -1.4665
19658TIP3    H280390   1.217   3.962   2.109 -1.4147 -0.8491  2.0695
19659TIP3   OH280391   2.048   1.804  11.546 -0.3641  0.3197 -0.2359
19659TIP3    H180392   1.962   1.823  11.585  0.1366  2.0570  0.1093
19659TIP3    H280393   2.058   1.870  11.478  1.6422  1.6624  1.2483
19660TIP3   OH280394   6.359   3.969   4.372 -0.4353 -0.0059 -0.3071
19660TIP3    H180395   6.275   3.941   4.410 -1.5665  2.1072 -1.0755
19660TIP3    H280396   6.408   3.888   4.360 -1.5697 -1.1374  1.9794
19661TIP3   OH280397   5.100   5.913   3.844  0.4551 -0.2047  0.1179
19661TIP3    H180398   5.109   5.868   3.760 -0.4997 -0.3481  0.0821
19661TIP3    H280399   5.049   5.853   3.898 -1.0683  0.9195 -0.0172
19662TIP3   OH280400   1.419   4.689  16.892  0.3300  0.0988 -0.1243
19662TIP3    H180401   1.436   4.669  16.800  2.5111  1.1077  0.0078
19662TIP3    H280402   1.369   4.770  16.890  0.2449  0.0412 -0.4242
19663TIP3   OH280403   6.576   6.171   2.610 -0.0164  0.0199  0.7591
19663TIP3    H180404   6.620   6.245   2.570 -1.1836  0.1711 -0.3317
19663TIP3    H280405   6.503   6.210   2.660 -1.1073 -0.3901 -0.4515
19664TIP3   OH280406   0.543   4.937  16.878  0.0451  0.0956 -0.0615
19664TIP3    H180407   0.501   5.022  16.865 -0.4454 -0.3722 -1.7787
19664TIP3    H280408   0.540   4.924  16.973  0.4576  2.1387  0.2877
19665TIP3   OH280409   2.998   5.982  17.002 -0.1732 -0.2209  0.5464
19665TIP3    H180410   3.010   5.928  17.080 -0.4075  0.5187  1.1045
19665TIP3    H280411   2.948   6.058  17.033 -0.2134  0.1125 -0.3110
19666TIP3   OH280412   5.658   3.703  15.028 -0.5080  0.9663 -0.3233
19666TIP3    H180413   5.567   3.695  15.002 -0.3487  0.9093 -0.8692
19666TIP3    H280414   5.673   3.797  15.036 -0.6276  0.9730 -0.1854
19667TIP3   OH280415   6.169   6.329   0.324  0.1468 -0.0015  0.5327
19667TIP3    H180416   6.145   6.421   0.313 -1.3277 -0.3343  0.7612
19667TIP3    H280417   6.092   6.288   0.365  1.2646 -1.0702  1.6930
19668TIP3   OH280418   3.101   0.793   1.449  0.6180 -0.4566  0.3144
19668TIP3    H180419   3.080   0.723   1.511 -1.1298 -0.0967  0.1953
19668TIP3    H280420   3.191   0.817   1.469  0.7851 -1.7764  1.2975
19669TIP3   OH280421   4.254   1.892   4.758  0.2113 -0.3992  0.2957
19669TIP3    H180422   4.193   1.903   4.685  1.8685  3.4886 -0.7650
19669TIP3    H280423   4.301   1.812   4.737 -2.1569 -1.6506 -0.6276
19670TIP3   OH280424   4.682   6.732  13.669  0.3196 -0.3567 -0.0611
19670TIP3    H180425   4.731   6.767  13.595  0.5250 -0.1286  0.1809
19670TIP3    H280426   4.737   6.749  13.745 -0.0700 -0.2265  0.1980
19671TIP3   OH280427   4.637   6.048  17.279  0.0517  0.2466 -0.1409
19671TIP3    H180428   4.548   6.015  17.263 -0.5581  1.5749  0.3609
19671TIP3    H280429   4.694   5.978  17.249 -1.1690 -0.6704 -0.4054
19672TIP3   OH280430   2.711   5.508   1.368 -0.2233  0.4137  0.2410
19672TIP3    H180431   2.658   5.433   1.342 -0.7204  1.1549 -1.0037
19672TIP3    H280432   2.785   5.506   1.307 -1.7961  2.6216 -1.9508
19673TIP3   OH280433   4.125   0.141  11.553 -0.3343 -0.3859 -0.6269
19673TIP3    H180434   4.068   0.169  11.624  2.0643  1.5808  0.7073
19673TIP3    H280435   4.106   0.201  11.481 -1.0640 -0.7894 -0.7720
19674TIP3   OH280436   0.188   2.591   5.877  0.9094  0.4690 -0.1412
19674TIP3    H180437   0.133   2.669   5.864  2.4846  2.1133  2.4178
19674TIP3    H280438   0.126   2.524   5.906 -0.3141  1.0605 -1.2481
19675TIP3   OH280439   3.274   6.491   3.231 -0.5858 -0.1126 -0.2784
19675TIP3    H180440   3.305   6.547   3.160 -0.9707 -0.9752 -1.1527
19675TIP3    H280441   3.319   6.523   3.309 -1.7480  2.2506 -0.4838
19676TIP3   OH280442   1.686   3.201  10.661  0.3257 -0.7083 -0.3508
19676TIP3    H180443   1.771   3.246  10.662 -0.3286  0.7551  2.9663
19676TIP3    H280444   1.702   3.119  10.708 -0.0395 -0.4706  0.2024
19677TIP3   OH280445   6.221   2.664   4.365  0.6324 -0.3637 -0.3557
19677TIP3    H180446   6.267   2.676   4.449 -0.2390 -1.2041  0.2560
19677TIP3    H280447   6.282   2.698   4.300  0.9032  1.3122  0.7064
19678TIP3   OH280448   2.297   3.151   3.822  0.1602 -0.0929 -0.0586
19678TIP3    H180449   2.359   3.093   3.866 -0.6933 -1.9930 -1.2618
19678TIP3    H280450   2.341   3.174   3.740 -0.1594 -0.3198 -0.2926
19679TIP3   OH280451   4.892   3.552   2.435  0.2394 -0.1559  0.0712
19679TIP3    H180452   4.917   3.532   2.344  1.2876 -0.5709  0.4353
19679TIP3    H280453   4.817   3.495   2.452 -1.3066  1.4098 -1.1810
19680TIP3   OH280454   2.132   1.250  12.385 -0.2879 -0.0650  0.1876
19680TIP3    H180455   2.088   1.329  12.353  0.2960 -0.2752 -1.2014
19680TIP3    H280456   2.063   1.201  12.430 -0.3174  1.9887  2.6128
19681TIP3   OH280457   0.760   1.543   6.698  0.0240  0.5957  0.8535
19681TIP3    H180458   0.833   1.486   6.723  1.3040  2.1611  0.8511
19681TIP3    H280459   0.686   1.484   6.684  1.4555 -1.1122  0.2340
19682TIP3   OH280460   4.650   6.512   6.010  0.4498 -0.2526  0.4943
19682TIP3    H180461   4.736   6.491   6.046  0.0974  1.7633  2.7351
19682TIP3    H280462   4.649   6.608   6.004 -1.5253 -0.2466  0.1796
19683TIP3   OH280463   3.785   3.373   0.999  0.3392  0.4314  0.0205
19683TIP3    H180464   3.704   3.405   1.040  1.2506  0.6765  1.7017
19683TIP3    H280465   3.796   3.284   1.032  0.1785 -0.0372 -1.1224
19684TIP3   OH280466   5.653   5.873   5.327  0.6639 -0.6827  0.6482
19684TIP3    H180467   5.747   5.881   5.308  0.4690  1.4004  0.3555
19684TIP3    H280468   5.617   5.830   5.249  0.9023  1.6789 -0.8845
19685TIP3   OH280469   6.549   6.096  16.427 -0.6106 -0.1046  0.1652
19685TIP3    H180470   6.564   6.019  16.482  1.7685 -0.2772 -0.6006
19685TIP3    H280471   6.480   6.145  16.472  0.1664 -1.0036  2.4537
19686TIP3   OH280472   0.162   6.446   4.168 -0.2356  0.1085 -0.0760
19686TIP3    H180473   0.189   6.537   4.157 -0.2739  0.3419  1.5024
19686TIP3    H280474   0.231   6.395   4.127  0.7583  0.8013  0.6824
19687TIP3   OH280475   4.815   4.253  11.574 -0.4566  0.0196  0.2036
19687TIP3    H180476   4.910   4.258  11.571 -0.4968  0.4008 -1.1984
19687TIP3    H280477   4.792   4.186  11.509 -1.1885  1.1473 -0.7578
19688TIP3   OH280478   3.160   6.701  15.175  0.1920  0.0562  0.3171
19688TIP3    H180479   3.217   6.779  15.173 -1.3126  1.2382  0.9897
19688TIP3    H280480   3.192   6.651  15.250 -0.5631  1.4853  1.6627
19689TIP3   OH280481   1.573   5.296   3.226  0.1323 -0.5074 -0.1155
19689TIP3    H180482   1.538   5.258   3.306 -0.1454  0.9959  0.5102
19689TIP3    H280483   1.497   5.303   3.168  0.4648 -2.2739 -0.8314
19690TIP3   OH280484   6.049   0.202   4.828 -0.1738 -0.2013  0.6572
19690TIP3    H180485   6.041   0.289   4.868 -3.5890  0.0877 -0.3562
19690TIP3    H280486   6.117   0.212   4.762 -0.8830  1.9078  0.1791
19691TIP3   OH280487   1.309   2.517  14.104  0.3380 -0.3801  0.2943
19691TIP3    H180488   1.357   2.438  14.127  4.2941  1.0238 -2.0304
19691TIP3    H280489   1.309   2.517  14.008 -5.0843 -0.4394  0.0226
19692TIP3   OH280490   6.546   2.004   1.508 -0.2222 -0.0250 -0.4303
19692TIP3    H180491   6.562   1.954   1.428  0.5389 -1.3345  0.5005
19692TIP3    H280492   6.625   2.057   1.519 -1.4732  2.3529 -2.0160
19693TIP3   OH280493   4.211   6.427  16.793 -0.4532  0.3237  0.3322
19693TIP3    H180494   4.247   6.429  16.881 -1.7888  0.4679  0.9098
19693TIP3    H280495   4.135   6.369  16.800 -1.7935  1.9355 -0.1909
19694TIP3   OH280496   1.711   6.213   2.325 -0.0664  0.1257 -0.1316
19694TIP3    H180497   1.681   6.125   2.306  0.4728 -0.0693 -0.1007
19694TIP3    H280498   1.775   6.232   2.256 -0.6929  0.7563 -0.5441
19695TIP3   OH280499   3.761   0.919  14.602  0.3112 -0.2745  0.5060
19695TIP3    H180500   3.838   0.975  14.603  1.3745 -1.6796  1.5038
19695TIP3    H280501   3.788   0.840  14.554 -1.0053 -0.1584 -0.4975
19696TIP3   OH280502   2.452   2.550   3.452 -0.4652 -0.2369  0.2662
19696TIP3    H180503   2.442   2.495   3.529  0.3025  0.5579  0.9673
19696TIP3    H280504   2.508   2.622   3.482 -1.3402  0.8652 -0.6304
19697TIP3   OH280505   6.357   6.262  13.656  0.0708 -0.0153 -0.2045
19697TIP3    H180506   6.365   6.237  13.748  0.2631  0.2043 -0.1602
19697TIP3    H280507   6.263   6.261  13.639 -0.1556  2.0879  0.6135
19698TIP3   OH280508   1.700   0.425   2.666 -0.5088  0.2147 -0.1941
19698TIP3    H180509   1.684   0.332   2.678 -1.3024  0.3332 -0.3116
19698TIP3    H280510   1.794   0.432   2.651 -0.3987 -0.5315  0.1477
19699TIP3   OH280511   4.059   3.564   2.773 -0.0198 -0.4159  0.0222
19699TIP3    H180512   4.031   3.572   2.682 -1.6602 -1.6012  0.3736
19699TIP3    H280513   4.141   3.515   2.769 -0.0725 -0.4466 -0.8166
19700TIP3   OH280514   4.419   5.950  17.123 -0.4520 -0.3515  0.1282
19700TIP3    H180515   4.499   5.905  17.095  1.3973  0.8291  3.0804
19700TIP3    H280516   4.356   5.879  17.139  0.0925 -1.3408 -1.8083
19701TIP3   OH280517   1.320   5.411  13.511  0.0465  0.3988  0.0356
19701TIP3    H180518   1.391   5.387  13.571  0.4793  0.3991 -0.4736
19701TIP3    H280519   1.291   5.496  13.542  0.3945  0.4832  0.1383
19702TIP3   OH280520   5.274   0.055   3.658  0.4086 -0.2941 -0.2314
19702TIP3    H180521   5.351   0.082   3.607  0.0454  1.2019 -0.0364
19702TIP3    H280522   5.280  -0.040   3.661  1.5724 -0.2848 -1.2855
19703TIP3   OH280523   4.748   5.393   3.159 -0.0288 -0.0098 -0.4860
19703TIP3    H180524   4.656   5.418   3.153  0.4993  1.9034 -1.4704
19703TIP3    H280525   4.753   5.308   3.116 -1.4650 -0.5788  0.3989
19704TIP3   OH280526   4.758   0.286  16.743  0.0143  0.6003  0.0515
19704TIP3    H180527   4.781   0.209  16.692 -0.8806  0.2054  0.2189
19704TIP3    H280528   4.782   0.264  16.833 -0.5232  0.3920  0.1462
19705TIP3   OH280529   5.097   3.030   2.203 -0.0543  0.4667 -0.2804
19705TIP3    H180530   5.052   3.017   2.120  0.3143  2.8022 -0.9132
19705TIP3    H280531   5.187   3.003   2.186 -0.7926 -3.2127  0.6963
19706TIP3   OH280532   5.957   4.666  12.590 -0.0666  0.0778 -0.3779
19706TIP3    H180533   5.924   4.589  12.543  1.6795 -0.9915  0.0661
19706TIP3    H280534   6.043   4.682  12.552  0.7499  0.1165  1.3757
19707TIP3   OH280535   5.532   2.484  11.557  0.3426  0.4523 -0.2264
19707TIP3    H180536   5.525   2.573  11.522 -0.0251  2.3867  4.1736
19707TIP3    H280537   5.444   2.448  11.546  0.4837  0.5742 -2.0332
19708TIP3   OH280538   5.990   0.779   5.153  0.1462  0.5607  0.1293
19708TIP3    H180539   6.029   0.785   5.241  0.6654 -0.8058  0.0202
19708TIP3    H280540   6.049   0.721   5.105 -1.9215 -1.5205 -0.0877
19709TIP3   OH280541   3.410   0.581  14.229  0.7575  0.7395 -0.0675
19709TIP3    H180542   3.412   0.635  14.149  1.1744  0.0970 -0.5026
19709TIP3    H280543   3.389   0.493  14.197  3.6950 -0.1516  0.1336
19710TIP3   OH280544   0.248   2.078   2.071  0.1010 -0.4636 -0.0729
19710TIP3    H180545   0.246   1.984   2.091 -1.5111 -0.5021 -0.2747
19710TIP3    H280546   0.183   2.116   2.130  2.7405  1.0270  2.0997
19711TIP3   OH280547   4.751   3.692   0.115 -0.1885  0.0161 -0.2736
19711TIP3    H180548   4.794   3.730   0.192 -0.3863 -0.3718  0.0323
19711TIP3    H280549   4.790   3.606   0.105 -0.2151  0.0379 -0.5674
19712TIP3   OH280550   1.701   4.282  11.935  0.0998 -0.4220  0.0335
19712TIP3    H180551   1.774   4.282  11.996 -0.1903 -0.0838  0.3892
19712TIP3    H280552   1.623   4.289  11.990 -0.1021  1.5515 -0.4113
19713TIP3   OH280553   0.883   3.159  12.549 -0.1109  0.0179 -0.0988
19713TIP3    H180554   0.963   3.198  12.585 -0.6447  1.1747 -0.1067
19713TIP3    H280555   0.842   3.230  12.500 -1.4181 -0.3955  0.3513
19714TIP3   OH280556   1.346   3.326  13.772  0.0393 -0.5297  0.3624
19714TIP3    H180557   1.304   3.409  13.792  1.2998 -0.4234  3.0917
19714TIP3    H280558   1.312   3.301  13.686 -1.5637  2.0034  0.1677
19715TIP3   OH280559   2.559   6.441   3.358 -0.3321 -0.0985 -0.1995
19715TIP3    H180560   2.584   6.357   3.319  0.2187  0.6790 -1.5858
19715TIP3    H280561   2.553   6.423   3.452  1.5607 -1.2635 -0.2575
19716TIP3   OH280562   3.253   6.175  17.179  0.7615  0.1948 -0.0162
19716TIP3    H180563   3.264   6.197  17.272  1.4365 -0.1367 -0.0025
19716TIP3    H280564   3.159   6.172  17.166  0.5941  3.1487 -0.0663
19717TIP3   OH280565   0.696   0.008   2.589 -0.1334  0.0505 -0.5764
19717TIP3    H180566   0.693   0.001   2.494  2.2516  2.4049 -0.9289
19717TIP3    H280567   0.788  -0.001   2.612 -0.5608  0.2058  1.4566
19718TIP3   OH280568   2.169   0.169   0.460  0.5744  0.0217 -0.5433
19718TIP3    H180569   2.258   0.159   0.425  0.7174 -0.6215 -0.0125
19718TIP3    H280570   2.174   0.137   0.550  0.2616  1.8828  0.1835
19719TIP3   OH280571   0.498   2.909   4.010  0.4009 -0.2962 -0.2832
19719TIP3    H180572   0.430   2.966   4.046  1.0910 -0.8196  1.9819
19719TIP3    H280573   0.552   2.885   4.085  0.3014 -3.7411 -1.1281
19720TIP3   OH280574   1.129   3.247   2.131 -0.0586 -0.1178 -0.5703
19720TIP3    H180575   1.183   3.199   2.194  0.2438 -0.0198 -0.7532
19720TIP3    H280576   1.082   3.311   2.184 -0.5893 -0.7264 -0.3023
19721TIP3   OH280577   3.000   3.663  15.658 -0.5192 -0.2958 -0.8933
19721TIP3    H180578   2.942   3.587  15.661 -0.5003 -0.3509 -1.6623
19721TIP3    H280579   2.990   3.697  15.569 -0.2076  0.3519 -0.6874
19722TIP3   OH280580   6.057   5.859   2.160 -0.2303 -0.0135  0.1579
19722TIP3    H180581   5.988   5.818   2.109 -0.1824 -1.5815  1.2702
19722TIP3    H280582   6.104   5.786   2.201  0.9883  1.0826  0.8150
19723TIP3   OH280583   3.502   4.679  13.750 -0.6966 -0.1381 -0.0732
19723TIP3    H180584   3.520   4.598  13.703 -0.2107 -0.7074  1.0553
19723TIP3    H280585   3.547   4.746  13.699  1.5175 -1.0138  0.6347
19724TIP3   OH280586   4.668   4.528  10.953 -0.4147  0.1333 -0.1415
19724TIP3    H180587   4.712   4.509  10.870  1.8859 -1.8874  1.3991
19724TIP3    H280588   4.649   4.442  10.991 -2.1324  0.9931  1.1013
19725TIP3   OH280589   4.682   0.011  11.598 -0.3051 -0.1722  0.0956
19725TIP3    H180590   4.714   0.101  11.591  1.1739 -0.7439 -1.0486
19725TIP3    H280591   4.667  -0.002  11.691  2.2864  0.3619  0.6493
19726TIP3   OH280592   0.610   2.215   1.194  0.0635 -0.2846  0.0874
19726TIP3    H180593   0.616   2.214   1.290  0.3145  2.4821  0.2041
19726TIP3    H280594   0.516   2.224   1.176  0.0560 -0.3237  0.1084
19727TIP3   OH280595   0.882   4.850   1.910 -0.1314 -0.3836  0.8857
19727TIP3    H180596   0.918   4.917   1.968 -0.7270  0.3228  0.4437
19727TIP3    H280597   0.819   4.802   1.965 -1.3211  0.8219  0.6180
19728TIP3   OH280598   5.546   3.613   0.723 -0.0746 -0.0099 -0.2918
19728TIP3    H180599   5.624   3.636   0.773 -0.7591  1.0996  0.2914
19728TIP3    H280600   5.581   3.574   0.642  1.0479 -2.1102  1.0908
19729TIP3   OH280601   0.155   2.148   4.192 -0.2037 -0.5856  0.1800
19729TIP3    H180602   0.224   2.111   4.248 -0.5519 -0.9925  0.3383
19729TIP3    H280603   0.097   2.194   4.253 -0.7238 -1.2445  0.1869
19730TIP3   OH280604   1.772   3.515  11.658  0.1838  0.0361 -0.0304
19730TIP3    H180605   1.774   3.482  11.568 -0.2261 -0.4227  0.1249
19730TIP3    H280606   1.859   3.494  11.692  0.1989 -0.1686 -0.1891
19731TIP3   OH280607   2.244   3.214  12.012  0.3404  0.5259 -0.5319
19731TIP3    H180608   2.284   3.134  11.979  1.5836 -0.8266  3.6512
19731TIP3    H280609   2.292   3.284  11.968  0.3554 -0.9434 -3.0613
19732TIP3   OH280610   1.320   4.645   4.652 -0.1024 -0.8251 -0.6042
19732TIP3    H180611   1.381   4.573   4.668  0.2614 -0.0026  2.2316
19732TIP3    H280612   1.234   4.604   4.657  0.0871 -1.7711 -3.4166
19733TIP3   OH280613   3.410   0.665   3.074 -0.7204 -0.0406  0.4089
19733TIP3    H180614   3.351   0.590   3.080 -0.0202 -0.6554 -0.0884
19733TIP3    H280615   3.358   0.739   3.103 -1.2124 -0.8303  1.6139
19734TIP3   OH280616   1.124   3.590   3.371 -0.0891 -0.3150 -0.6979
19734TIP3    H180617   1.047   3.561   3.323  0.5034 -0.9862 -1.2575
19734TIP3    H280618   1.110   3.683   3.386 -1.2564 -0.5394 -0.3229
19735TIP3   OH280619   5.395   3.591   4.503 -0.1939  0.1683 -0.9789
19735TIP3    H180620   5.383   3.626   4.592  0.8709 -1.3877 -0.1723
19735TIP3    H280621   5.368   3.662   4.446  1.0636  2.0139  0.5656
19736TIP3   OH280622   3.919   2.570   1.826  0.5547  0.5753 -0.0162
19736TIP3    H180623   3.966   2.653   1.819  0.2432  0.7523 -0.0278
19736TIP3    H280624   3.918   2.535   1.736  0.3223  0.7604 -0.0858
19737TIP3   OH280625   0.548   0.226   5.380 -0.9041  0.8277 -0.2019
19737TIP3    H180626   0.517   0.146   5.423  0.3098  0.0451 -0.7314
19737TIP3    H280627   0.470   0.263   5.339 -1.5551  0.1246  0.3709
19738TIP3   OH280628   4.850   2.296  11.280  0.2000  0.3148 -0.3858
19738TIP3    H180629   4.873   2.235  11.350  1.0534  2.6987  1.5671
19738TIP3    H280630   4.833   2.240  11.204  1.7159 -2.2754  1.0256
19739TIP3   OH280631   3.781   3.664   6.728  0.1031 -0.4451  0.0452
19739TIP3    H180632   3.781   3.737   6.789  0.4288  0.0790 -0.5665
19739TIP3    H280633   3.703   3.679   6.673 -0.3123 -1.0312  0.4620
19740TIP3   OH280634   3.296   1.777  16.224  0.3336 -0.7070  0.1861
19740TIP3    H180635   3.352   1.713  16.181 -0.6159 -1.4036 -0.0225
19740TIP3    H280636   3.281   1.741  16.311 -1.2145 -1.3945 -0.3492
19741TIP3   OH280637   4.716   4.186  15.726 -0.5629 -0.4911  0.4369
19741TIP3    H180638   4.750   4.244  15.658  0.0854 -0.8895  0.4189
19741TIP3    H280639   4.792   4.137  15.757 -0.9094 -0.5326  1.2383
19742TIP3   OH280640   2.259   0.105  11.932  0.3771 -0.8881  0.2554
19742TIP3    H180641   2.341   0.118  11.885  0.4634 -2.8469 -0.2092
19742TIP3    H280642   2.284   0.105  12.025  0.6791 -0.1038  0.1783
19743TIP3   OH280643   1.197   3.811  16.751 -0.1556 -0.5838  0.5070
19743TIP3    H180644   1.261   3.785  16.685  0.4540  0.1631  0.7867
19743TIP3    H280645   1.228   3.770  16.832  0.0011 -0.1673  0.6562
19744TIP3   OH280646   2.659   2.063   1.984  0.0929 -0.2903 -0.7015
19744TIP3    H180647   2.747   2.050   1.950 -0.2683  0.4085 -1.9821
19744TIP3    H280648   2.646   2.158   1.981 -1.5949 -0.4962 -3.0233
19745TIP3   OH280649   5.890   1.683  10.829  0.4945 -0.3728 -0.0952
19745TIP3    H180650   5.814   1.656  10.881  0.2403  0.6948  0.1232
19745TIP3    H280651   5.852   1.724  10.751  0.8734 -1.4473 -0.8764
19746TIP3   OH280652   3.006   0.449  13.397 -0.5072  0.1351 -0.0699
19746TIP3    H180653   2.921   0.475  13.434 -1.6033 -0.8237 -1.8063
19746TIP3    H280654   3.005   0.354  13.400 -0.2983  0.0470 -1.7366
19747TIP3   OH280655   5.346   4.321   5.978  0.1675  0.2043 -0.2362
19747TIP3    H180656   5.406   4.283   5.914  0.7274  1.4529 -0.4667
19747TIP3    H280657   5.312   4.399   5.936 -1.6537 -0.4643 -0.1115
19748TIP3   OH280658   0.140   4.003  11.063  0.1745  0.1498 -0.2749
19748TIP3    H180659   0.234   4.003  11.084  0.0729  1.6170  0.3416
19748TIP3    H280660   0.136   3.999  10.968  0.8969  0.5749 -0.3323
19749TIP3   OH280661   0.092   3.605  12.742 -1.0245  0.2656  0.4859
19749TIP3    H180662   0.097   3.581  12.835 -0.3187 -0.3864  0.2864
19749TIP3    H280663   0.156   3.676  12.732 -0.5982 -0.1361  0.3555
19750TIP3   OH280664   2.051   6.122   5.783  0.3841 -0.1034  0.0756
19750TIP3    H180665   2.142   6.145   5.767  0.0798  0.4266 -1.0017
19750TIP3    H280666   2.047   6.027   5.771  0.9973 -0.3021  1.2576
19751TIP3   OH280667   6.408   1.257   4.452  0.4206 -0.2076  0.0465
19751TIP3    H180668   6.443   1.176   4.415  0.7739  0.5367 -1.3028
19751TIP3    H280669   6.444   1.327   4.397 -0.1910  0.8522  0.9359
19752TIP3   OH280670   3.627   1.303   5.598 -0.1304 -0.1207  0.4285
19752TIP3    H180671   3.657   1.394   5.590  0.7668 -0.4215  0.2938
19752TIP3    H280672   3.631   1.285   5.691 -0.0173 -0.1144  0.4252
19753TIP3   OH280673   2.806   1.871  12.544  0.0374  0.0164  0.5848
19753TIP3    H180674   2.810   1.819  12.464 -0.6612  0.6415  0.1267
19753TIP3    H280675   2.887   1.920  12.545 -0.3206  0.6381 -0.1918
19754TIP3   OH280676   2.309   0.818  16.591 -0.0207  0.0754  0.6566
19754TIP3    H180677   2.269   0.880  16.652 -1.0727 -0.1997  0.2671
19754TIP3    H280678   2.266   0.836  16.507  0.4060 -0.4874  0.3094
19755TIP3   OH280679   5.127   4.093  12.424  0.1784  0.3304  1.0103
19755TIP3    H180680   5.069   4.018  12.439  1.0126 -0.0534  2.5027
19755TIP3    H280681   5.206   4.055  12.385 -0.4964  0.8482 -0.9784
19756TIP3   OH280682   6.758   5.602   4.921  0.0438  0.1476 -0.0307
19756TIP3    H180683   6.758   5.608   5.016 -0.3188  0.5914 -0.0507
19756TIP3    H280684   6.821   5.668   4.892 -0.3563  0.5051 -0.1120
19757TIP3   OH280685   2.287   0.763   0.092  0.2040 -0.2040 -0.1318
19757TIP3    H180686   2.316   0.702   0.024  1.4856 -0.2364  0.4010
19757TIP3    H280687   2.220   0.816   0.050 -0.1698 -1.2731 -0.9296
19758TIP3   OH280688   1.294   2.160  12.453  0.3098  0.3703 -0.7325
19758TIP3    H180689   1.359   2.090  12.461  1.7636  1.8237  1.0140
19758TIP3    H280690   1.276   2.166  12.359  1.9664 -0.7302 -1.1543
19759TIP3   OH280691   5.579   4.655  14.358  0.3388  0.2500 -0.0743
19759TIP3    H180692   5.614   4.730  14.312 -0.6311  0.5485 -0.3535
19759TIP3    H280693   5.490   4.681  14.383 -0.5605 -1.2848 -1.4127
19760TIP3   OH280694   6.066   1.436   6.674  0.3766 -0.5157 -0.4324
19760TIP3    H180695   6.042   1.518   6.718  0.9538  0.7555 -2.3856
19760TIP3    H280696   6.102   1.381   6.744  0.4385  1.0766  0.8391
19761TIP3   OH280697   6.743   4.287   2.142 -0.4678  0.4333  0.2608
19761TIP3    H180698   6.717   4.343   2.069 -1.2481 -1.0888 -0.6817
19761TIP3    H280699   6.725   4.340   2.220 -1.1745  1.4941 -0.5858
19762TIP3   OH280700   1.356   3.543   4.343 -0.0396  0.7091 -0.0827
19762TIP3    H180701   1.263   3.525   4.345  0.0296 -0.2038 -2.4023
19762TIP3    H280702   1.396   3.462   4.312  1.7730  0.4568  2.5857
19763TIP3   OH280703   4.027   5.238  16.318 -0.0734  0.3932  0.1179
19763TIP3    H180704   4.083   5.276  16.386 -0.0319  1.9892 -0.7505
19763TIP3    H280705   4.088   5.198  16.257 -0.0421 -0.0635  0.4445
19764TIP3   OH280706   4.403   1.996  12.498 -0.2269  0.2363  0.0044
19764TIP3    H180707   4.393   1.931  12.568 -0.0403 -1.3073 -1.3592
19764TIP3    H280708   4.490   1.978  12.461 -0.6771  0.4376 -1.1892
19765TIP3   OH280709   4.245   4.768   2.535 -0.1356  0.1388 -0.4896
19765TIP3    H180710   4.267   4.859   2.556  0.7349 -0.4773  1.5065
19765TIP3    H280711   4.323   4.718   2.560 -1.0906 -1.2943 -0.2474
19766TIP3   OH280712   0.476   6.527  12.032  0.3044 -0.2624 -0.1606
19766TIP3    H180713   0.491   6.481  12.114 -1.7405 -0.0526  0.3827
19766TIP3    H280714   0.481   6.620  12.055 -0.4005 -0.2031 -0.2435
19767TIP3   OH280715   2.813   3.117   4.451 -0.0911  0.0486 -0.4373
19767TIP3    H180716   2.757   3.161   4.514 -0.2639 -0.2791 -0.3590
19767TIP3    H280717   2.754   3.086   4.383 -0.1237 -1.0097  0.0531
19768TIP3   OH280718   6.359   4.185  11.188 -0.1554  0.5411  0.5076
19768TIP3    H180719   6.414   4.251  11.230  0.1524  0.2746  0.5243
19768TIP3    H280720   6.406   4.161  11.109 -0.5486  0.7595  0.1983
19769TIP3   OH280721   5.513   2.256  10.957 -0.3620 -0.0383 -0.0765
19769TIP3    H180722   5.585   2.212  10.912 -0.4223 -0.3319  0.1056
19769TIP3    H280723   5.438   2.198  10.944 -0.2803 -0.3539  0.7591
19770TIP3   OH280724   2.675   5.538   5.531 -0.6972  0.4658  0.5382
19770TIP3    H180725   2.590   5.518   5.493 -2.0857  0.9627  3.1208
19770TIP3    H280726   2.736   5.477   5.489 -2.4744 -0.4901 -0.7520
19771TIP3   OH280727   4.187   2.634   2.939 -0.1161  0.4148  0.8873
19771TIP3    H180728   4.172   2.607   2.848 -2.6525  0.4715  1.2146
19771TIP3    H280729   4.197   2.729   2.935  3.6264  0.1336  0.3240
19772TIP3   OH280730   2.555   0.701   2.449  0.1388 -0.1389  0.2088
19772TIP3    H180731   2.573   0.670   2.360 -0.0590 -0.5078  0.2939
19772TIP3    H280732   2.462   0.725   2.447  0.5912  1.6903 -0.2107
19773TIP3   OH280733   4.608   4.407   4.580 -0.3065 -0.7755  0.0882
19773TIP3    H180734   4.615   4.483   4.522 -1.2882  0.2297  1.2301
19773TIP3    H280735   4.638   4.334   4.527  0.1482  0.3238 -1.2292
19774TIP3   OH280736   3.648   6.432  13.755  0.0290  0.2401  0.2975
19774TIP3    H180737   3.601   6.515  13.745 -0.2925  0.2876  1.9842
19774TIP3    H280738   3.650   6.417  13.849  0.5038 -1.4405  0.0422
19775TIP3   OH280739   3.734   3.518   1.431 -0.0865 -0.7168  0.6344
19775TIP3    H180740   3.762   3.427   1.428 -0.4661 -0.8025 -1.3162
19775TIP3    H280741   3.799   3.565   1.380 -0.6894 -0.1361  0.3786
19776TIP3   OH280742   6.732   6.729   1.395 -0.4726  0.2606 -0.3505
19776TIP3    H180743   6.677   6.748   1.471 -0.7338  0.6072 -0.6222
19776TIP3    H280744   6.785   6.807   1.383  0.1985 -0.1301 -0.0016
19777TIP3   OH280745   5.378   6.069  14.533 -0.0855  0.4848  0.1066
19777TIP3    H180746   5.336   6.124  14.600 -2.6241 -0.3164 -0.7196
19777TIP3    H280747   5.307   6.047  14.473  0.9689 -3.0052 -0.0499
19778TIP3   OH280748   0.713   6.072  11.377  0.3360 -0.3471 -0.5461
19778TIP3    H180749   0.773   6.145  11.392  0.3699 -0.3608 -0.6154
19778TIP3    H280750   0.649   6.106  11.315  0.7920 -0.6149 -1.1799
19779TIP3   OH280751   6.384   2.575   4.857  0.2058 -0.3524  0.4732
19779TIP3    H180752   6.384   2.646   4.922  0.0096 -1.4581  1.7227
19779TIP3    H280753   6.400   2.496   4.908  1.4588 -1.1273 -1.0189
19780TIP3   OH280754   2.535   5.665  13.495 -0.4156  0.3272 -0.4574
19780TIP3    H180755   2.583   5.611  13.433 -2.1837  1.0586 -2.6186
19780TIP3    H280756   2.602   5.711  13.544  1.0776 -1.2429 -0.9266
19781TIP3   OH280757   2.435   5.446   3.070  0.2678  0.3147 -0.1736
19781TIP3    H180758   2.433   5.354   3.044 -0.1288  0.2588  0.0506
19781TIP3    H280759   2.527   5.472   3.060  0.0460  0.5016 -2.3358
19782TIP3   OH280760   6.457   1.730   1.371 -0.8330  0.7073  0.3868
19782TIP3    H180761   6.475   1.644   1.408  0.5231  1.2143  0.9751
19782TIP3    H280762   6.364   1.729   1.351 -1.2353 -0.2349  2.1291
19783TIP3   OH280763   3.676   6.491   5.141 -0.1815 -0.2788 -0.3359
19783TIP3    H180764   3.681   6.505   5.235 -1.3793 -1.6565 -0.0350
19783TIP3    H280765   3.673   6.579   5.104 -1.5433  0.3008  1.0393
19784TIP3   OH280766   6.447   4.527   2.217 -0.2712 -0.0205 -0.1349
19784TIP3    H180767   6.537   4.545   2.243 -0.2591 -1.2314  0.7893
19784TIP3    H280768   6.394   4.576   2.280 -0.2769  0.9067 -0.8434
19785TIP3   OH280769   0.554   5.550  16.783 -0.2082  0.1808  0.1850
19785TIP3    H180770   0.611   5.495  16.730  2.6205  2.1674  0.9076
19785TIP3    H280771   0.528   5.495  16.857  0.2701 -0.9758 -0.4891
19786TIP3   OH280772   0.067   2.325  13.358  0.3331  0.0901 -0.5133
19786TIP3    H180773   0.001   2.256  13.347 -0.1529  0.6908 -1.5947
19786TIP3    H280774   0.019   2.406  13.345  1.0898  0.5880 -0.2625
19787TIP3   OH280775   0.843   4.975  17.129  0.1928  0.0256 -0.2391
19787TIP3    H180776   0.855   5.058  17.083 -1.2699 -0.7197 -2.1072
19787TIP3    H280777   0.828   5.000  17.220  0.4066  1.7710 -0.6439
19788TIP3   OH280778   2.280   5.307  10.899 -0.2398  0.4558 -0.0222
19788TIP3    H180779   2.369   5.335  10.880  0.4773 -0.4694  1.7211
19788TIP3    H280780   2.261   5.239  10.835  1.0465 -0.6561  0.7227
19789TIP3   OH280781   0.030   3.536  10.996  0.3868 -0.3751  0.0499
19789TIP3    H180782  -0.008   3.461  11.042 -2.7234  1.8374  1.4420
19789TIP3    H280783   0.046   3.600  11.065  0.1517  1.2981 -1.3920
19790TIP3   OH280784   5.706   5.088   4.935  0.1226 -0.2850  0.4250
19790TIP3    H180785   5.725   5.092   4.841  0.7832  2.4712  0.5876
19790TIP3    H280786   5.772   5.028   4.970  0.5957 -0.4620 -0.7175
19791TIP3   OH280787   3.255   6.545  15.381 -0.4591 -0.1530 -0.3846
19791TIP3    H180788   3.260   6.494  15.463 -1.3546  0.2908 -0.0371
19791TIP3    H280789   3.328   6.512  15.328 -0.2002 -0.8436  0.3699
19792TIP3   OH280790   0.624   0.632   5.589  0.4463 -0.9251  0.1095
19792TIP3    H180791   0.541   0.610   5.630 -0.4602 -0.5175 -1.4193
19792TIP3    H280792   0.635   0.726   5.604  1.3055 -1.2000  1.4086
19793TIP3   OH280793   1.674   6.748  15.232 -0.4040 -0.0006 -0.2849
19793TIP3    H180794   1.716   6.795  15.305 -1.2288 -0.7739  0.7075
19793TIP3    H280795   1.732   6.673  15.216 -0.4267 -0.0420 -0.1729
19794TIP3   OH280796   4.191   3.202   5.663 -0.8638  0.8288 -0.1589
19794TIP3    H180797   4.111   3.189   5.713 -1.4976 -1.9714 -1.6805
19794TIP3    H280798   4.249   3.250   5.722 -1.9759 -1.1620  2.7730
19795TIP3   OH280799   6.415   6.081  13.219  0.2044 -0.8813 -0.6251
19795TIP3    H180800   6.437   6.010  13.280 -2.3067 -0.2720  1.1176
19795TIP3    H280801   6.351   6.043  13.159  0.9929 -0.8384 -1.5236
19796TIP3   OH280802   1.842   1.898   2.693  0.0789 -0.0603 -0.8158
19796TIP3    H180803   1.877   1.975   2.649 -1.5777  1.4059  0.3092
19796TIP3    H280804   1.919   1.855   2.731  1.1301  0.5269 -2.1887
19797TIP3   OH280805   5.663   5.619   5.446 -0.4172  0.4189  0.3214
19797TIP3    H180806   5.754   5.612   5.475 -0.1379  0.0903 -0.5813
19797TIP3    H280807   5.662   5.697   5.389 -0.8920  0.9062  0.9858
19798TIP3   OH280808   0.466   2.711   3.012 -0.4543 -0.2514  0.1582
19798TIP3    H180809   0.470   2.647   2.941  0.3356  0.9424 -0.9395
19798TIP3    H280810   0.557   2.739   3.024 -0.9727  2.1419 -0.8573
19799TIP3   OH280811   4.835   4.452  13.581  0.0088  0.0723  0.2191
19799TIP3    H180812   4.820   4.546  13.592  1.5824  0.6249 -1.6361
19799TIP3    H280813   4.834   4.439  13.486  0.8750 -1.5951  0.3984
19800TIP3   OH280814   6.538   4.567   2.628  0.0491  0.1708 -0.2081
19800TIP3    H180815   6.594   4.500   2.667  1.5443  0.0691 -2.4144
19800TIP3    H280816   6.598   4.637   2.602 -1.0120  0.6762 -1.3803
19801TIP3   OH280817   4.563   4.718   5.784  0.5062 -0.9353  0.0506
19801TIP3    H180818   4.526   4.796   5.826  1.8480 -0.0240 -0.3814
19801TIP3    H280819   4.595   4.749   5.699  0.4980 -2.1085 -0.4046
19802TIP3   OH280820   6.354   4.770  13.109  0.1688  0.3229 -0.1130
19802TIP3    H180821   6.394   4.683  13.109 -0.9654 -0.2164 -0.0958
19802TIP3    H280822   6.411   4.823  13.052 -0.5493 -1.1258 -2.2976
19803TIP3   OH280823   2.338   2.805   5.245 -0.4050 -0.1969 -0.2771
19803TIP3    H180824   2.247   2.783   5.229  0.3453 -1.5055 -3.3677
19803TIP3    H280825   2.360   2.868   5.177  2.1363 -3.3968 -2.7426
19804TIP3   OH280826   3.243   4.763  16.060 -0.6619 -0.1332  0.2260
19804TIP3    H180827   3.332   4.739  16.088 -0.1857  0.1310 -0.9926
19804TIP3    H280828   3.253   4.785  15.967 -1.8083  0.9409  0.3411
19805TIP3   OH280829   5.588   0.909   0.504 -0.6838 -1.2346 -0.7296
19805TIP3    H180830   5.544   0.909   0.589 -0.8212  1.2091 -0.7301
19805TIP3    H280831   5.670   0.955   0.519 -0.7354 -0.7193 -1.9243
19806TIP3   OH280832   0.594   1.637  15.143  0.1243 -0.1687 -0.5729
19806TIP3    H180833   0.566   1.648  15.052  1.1498  0.5688 -0.8145
19806TIP3    H280834   0.681   1.677  15.147 -0.2168  0.5189  0.9060
19807TIP3   OH280835   1.576   6.293  14.041  0.2450  0.2586 -0.0411
19807TIP3    H180836   1.670   6.273  14.040  0.3556  0.7878 -0.3256
19807TIP3    H280837   1.538   6.231  13.979  0.1397 -1.1712  1.3558
19808TIP3   OH280838   1.335   3.159   6.171 -0.3588 -0.2030 -0.1869
19808TIP3    H180839   1.273   3.189   6.237 -2.4475 -0.6835 -1.8240
19808TIP3    H280840   1.340   3.064   6.182 -0.7370 -0.2899 -0.6993
19809TIP3   OH280841   5.441   4.341   0.472  0.3318 -0.0472  0.2622
19809TIP3    H180842   5.400   4.276   0.529 -2.1891 -0.5734 -1.9701
19809TIP3    H280843   5.375   4.361   0.406  1.7609  3.2503 -0.4120
19810TIP3   OH280844   1.799   5.663   6.482  0.5723 -0.0023  0.2412
19810TIP3    H180845   1.758   5.744   6.514  0.5961  0.3966 -0.6864
19810TIP3    H280846   1.892   5.684   6.477  0.8507 -0.7426  1.8576
19811TIP3   OH280847   3.871   6.032  16.676  0.6113  0.6953  0.2082
19811TIP3    H180848   3.856   5.975  16.752  0.3444  0.3854 -0.0713
19811TIP3    H280849   3.790   6.024  16.625  2.7794 -3.9196 -3.2653
19812TIP3   OH280850   3.805   3.328   2.600  0.3978  0.7072 -0.0571
19812TIP3    H180851   3.821   3.416   2.564 -0.1118  1.4289  1.3861
19812TIP3    H280852   3.750   3.344   2.677  0.1456 -0.9114  0.1240
19813TIP3   OH280853   2.565   2.306  14.640  0.0603 -0.0188  0.2104
19813TIP3    H180854   2.544   2.370  14.708  0.3682  2.1177 -1.5991
19813TIP3    H280855   2.501   2.321  14.571 -0.9819 -2.9358  0.4020
19814TIP3   OH280856   1.674   3.645   4.801  0.3694 -0.2672 -0.4219
19814TIP3    H180857   1.586   3.664   4.834  0.3675  0.3260 -0.7530
19814TIP3    H280858   1.707   3.730   4.771  0.5697 -0.6963 -1.4597
19815TIP3   OH280859   3.110   6.494  11.933  0.6436 -0.0022 -0.3076
19815TIP3    H180860   3.031   6.481  11.985  0.9450 -0.5109  0.0351
19815TIP3    H280861   3.168   6.422  11.959  0.1301 -1.3692 -2.6446
19816TIP3   OH280862   6.046   2.674   4.074 -0.1074  0.4656  0.4282
19816TIP3    H180863   5.962   2.696   4.116  0.5797  1.7099  1.2100
19816TIP3    H280864   6.110   2.727   4.121  1.1181 -0.4181 -0.2139
19817TIP3   OH280865   5.444   2.959  12.821 -0.7254  0.4640  0.5200
19817TIP3    H180866   5.525   2.985  12.865  0.4862 -2.1621  0.0203
19817TIP3    H280867   5.422   2.874  12.859 -3.0183  0.8855  0.2717
19818TIP3   OH280868   4.229   6.214  12.402  0.4458 -0.3513  0.1325
19818TIP3    H180869   4.192   6.295  12.366  1.1925 -0.2577 -0.4480
19818TIP3    H280870   4.240   6.157  12.326 -1.3772 -1.5567  0.6996
19819TIP3   OH280871   2.625   3.725   2.287 -0.2221  0.1454  0.4315
19819TIP3    H180872   2.596   3.675   2.363  1.0104  1.7157  2.0588
19819TIP3    H280873   2.579   3.809   2.295  1.6693  1.2199  0.8844
19820TIP3   OH280874   0.672   1.564   2.508 -0.4589  0.2223 -0.7614
19820TIP3    H180875   0.607   1.573   2.438 -0.9793  0.2274 -0.2756
19820TIP3    H280876   0.665   1.645   2.558 -0.0265  0.2537 -0.7444
19821TIP3   OH280877   5.829   6.473   3.333 -0.0164  0.0486 -0.0860
19821TIP3    H180878   5.837   6.447   3.241 -0.1978  0.7948 -0.3241
19821TIP3    H280879   5.917   6.502   3.357  0.0051 -0.0360 -0.0641
19822TIP3   OH280880   1.305   0.810  11.202 -0.1215 -0.2274 -0.0886
19822TIP3    H180881   1.390   0.769  11.217  0.8193  1.5027 -0.4900
19822TIP3    H280882   1.290   0.800  11.108  0.3751  0.8150 -0.2854
19823TIP3   OH280883   4.246   3.925  16.383 -0.4034  0.0244  0.1573
19823TIP3    H180884   4.207   3.858  16.327  0.7141 -0.2460 -0.3091
19823TIP3    H280885   4.266   3.997  16.324 -1.0382  0.5497  0.5567
19824TIP3   OH280886   3.687   2.634   1.949  0.4733  0.3472  0.3991
19824TIP3    H180887   3.704   2.667   2.037  1.3220 -0.1989  0.4539
19824TIP3    H280888   3.772   2.602   1.919 -0.2088 -1.3505  0.1756
19825TIP3   OH280889   4.267   4.168  16.778 -0.3159  0.0036 -0.2831
19825TIP3    H180890   4.192   4.198  16.829  0.5595  1.0601  0.4267
19825TIP3    H280891   4.232   4.097  16.724 -1.8751  0.6272 -0.1590
19826TIP3   OH280892   0.405   4.474   2.125  0.5414 -0.0452  0.0392
19826TIP3    H180893   0.396   4.403   2.061  2.8223  0.0120 -0.4569
19826TIP3    H280894   0.344   4.451   2.195 -0.1814 -1.4653 -0.9910
19827TIP3   OH280895   6.584   5.284  13.163  0.1842  0.2253 -0.2900
19827TIP3    H180896   6.614   5.375  13.162 -2.5976  1.3349 -3.5809
19827TIP3    H280897   6.616   5.247  13.081 -1.5193 -0.6458 -0.6169
19828TIP3   OH280898   3.811   5.211  12.655 -0.1205 -0.2555  0.5415
19828TIP3    H180899   3.796   5.119  12.677 -0.1131 -0.7662 -1.4289
19828TIP3    H280900   3.906   5.218  12.649 -0.1536 -0.3031 -0.0337
19829TIP3   OH280901   0.580   2.354  16.673  0.1547 -0.2900 -0.1304
19829TIP3    H180902   0.508   2.416  16.684  1.2508  0.7256  1.8766
19829TIP3    H280903   0.618   2.377  16.588 -0.4526  0.7098 -0.1562
19830TIP3   OH280904   4.127   0.629  12.732  0.0001  0.1926 -0.5374
19830TIP3    H180905   4.121   0.646  12.826  1.3516 -0.8306 -0.2324
19830TIP3    H280906   4.208   0.578  12.722 -1.2714 -1.7157 -1.9476
19831TIP3   OH280907   4.960   4.880   4.086  0.5026  0.4469  0.5628
19831TIP3    H180908   5.005   4.952   4.041  0.3876  0.5736  0.6490
19831TIP3    H280909   4.881   4.864   4.035  0.7700  0.0549  0.2707
19832TIP3   OH280910   0.894   0.384   5.989 -0.5005 -0.1566  0.7666
19832TIP3    H180911   0.967   0.384   5.927  0.3060 -0.2422  1.6981
19832TIP3    H280912   0.859   0.473   5.985  0.9398  0.5051  1.7603
19833TIP3   OH280913   1.026   5.351   6.015  0.4964 -0.2208 -0.1134
19833TIP3    H180914   1.115   5.371   5.984  0.3525  1.5816  0.5377
19833TIP3    H280915   1.037   5.333   6.108  0.0927  0.8872  0.1648
19834TIP3   OH280916   1.124   0.333   5.788 -0.1637 -0.2852 -0.2519
19834TIP3    H180917   1.206   0.306   5.746 -0.5336 -0.7396 -0.6971
19834TIP3    H280918   1.056   0.283   5.742 -0.7043  0.1951  0.0177
19835TIP3   OH280919   0.372   4.917   2.578  0.2504  0.2112 -0.5214
19835TIP3    H180920   0.315   4.945   2.506 -1.4680 -1.6167  0.0084
19835TIP3    H280921   0.349   4.975   2.650 -0.6699 -0.2412 -0.4377
19836TIP3   OH280922   4.871   0.161   3.111  0.2084  0.0563  0.4425
19836TIP3    H180923   4.939   0.098   3.136 -0.7832 -0.1591  2.8922
19836TIP3    H280924   4.918   0.244   3.101  1.0365 -0.3865  0.5600
19837TIP3   OH280925   4.778   3.140   1.211 -0.8404 -0.2460 -0.1878
19837TIP3    H180926   4.806   3.109   1.297 -0.4025 -0.5869 -0.4484
19837TIP3    H280927   4.733   3.223   1.228 -2.1909 -1.0887  0.5534
19838TIP3   OH280928   0.803   0.526  12.821  0.8071 -0.1674  0.2468
19838TIP3    H180929   0.827   0.617  12.841  0.3872  0.0758 -0.3187
19838TIP3    H280930   0.814   0.480  12.904  0.4963  0.5107  0.6793
19839TIP3   OH280931   3.231   3.119   5.929 -0.6220  0.1953 -0.6069
19839TIP3    H180932   3.259   3.194   5.981 -0.2665 -0.2153 -0.1981
19839TIP3    H280933   3.137   3.133   5.916 -0.2936  1.5409 -1.9197
19840TIP3   OH280934   5.047   1.279   4.322 -1.1092  0.5037 -0.7181
19840TIP3    H180935   5.014   1.217   4.387 -1.7618 -1.9352 -3.2091
19840TIP3    H280936   5.006   1.362   4.346 -3.3161 -0.8325  0.5290
19841TIP3   OH280937   2.191   5.897  13.253  0.0391  0.1125 -0.2059
19841TIP3    H180938   2.259   5.879  13.317  0.2212  0.6683 -0.2338
19841TIP3    H280939   2.196   5.824  13.191  0.5145  0.0745 -0.1257
19842TIP3   OH280940   0.115   4.087  13.409 -0.5007 -0.0936  0.5032
19842TIP3    H180941   0.028   4.061  13.377  0.8043 -0.9176 -2.7681
19842TIP3    H280942   0.132   4.029  13.483 -1.2446 -2.6592 -1.2011
19843TIP3   OH280943   4.031   3.593   0.727 -0.0879 -0.3346  0.4789
19843TIP3    H180944   4.038   3.609   0.633  0.7036 -0.2609  0.5477
19843TIP3    H280945   3.977   3.666   0.759  2.1367  1.4169  0.5346
19844TIP3   OH280946   3.547   2.168   6.111  0.1534 -0.1943 -0.4370
19844TIP3    H180947   3.514   2.159   6.200  1.1421  1.7150  0.1855
19844TIP3    H280948   3.582   2.082   6.089 -0.2531 -0.7301  0.9511
19845TIP3   OH280949   2.874   3.473  11.751 -0.1664 -0.3490  0.1236
19845TIP3    H180950   2.931   3.540  11.789 -0.0039 -0.3941 -0.0366
19845TIP3    H280951   2.901   3.392  11.794 -0.2769 -0.3304  0.2268
19846TIP3   OH280952   3.171   1.309   6.116  0.5546 -0.4414  0.3488
19846TIP3    H180953   3.215   1.237   6.071  0.7158 -0.6480  0.8274
19846TIP3    H280954   3.149   1.274   6.202  0.2312 -0.0603  0.4246
19847TIP3   OH280955   3.612   2.905   3.135 -0.0895  0.1521 -0.3578
19847TIP3    H180956   3.545   2.955   3.088 -0.2457  0.9797  0.7015
19847TIP3    H280957   3.678   2.886   3.069 -1.9801 -1.9516 -1.8060
19848TIP3   OH280958   4.031   5.658   0.770  0.1113 -0.6265 -0.4361
19848TIP3    H180959   3.965   5.590   0.751 -1.5146  0.6062  0.5059
19848TIP3    H280960   4.114   5.611   0.772 -0.9843 -2.6401  0.4125
19849TIP3   OH280961   0.435   1.829  12.268  0.4051  0.1768 -0.2317
19849TIP3    H180962   0.437   1.794  12.179 -0.0752  1.0870 -0.6118
19849TIP3    H280963   0.355   1.793  12.306  0.0301  0.6769 -0.5450
19850TIP3   OH280964   1.679   2.371   0.019 -0.3741  0.3715 -0.1798
19850TIP3    H180965   1.624   2.431  -0.031 -1.6878 -0.1406  0.6146
19850TIP3    H280966   1.619   2.303   0.050  1.1341 -1.6551 -1.4491
19851TIP3   OH280967   0.045   3.458  11.305 -0.0523  0.2568 -1.3291
19851TIP3    H180968   0.114   3.468  11.370  1.3264  0.6543 -2.7827
19851TIP3    H280969  -0.010   3.536  11.315 -0.9246 -0.5420  0.4981
19852TIP3   OH280970   5.955   2.873  14.378  0.3871  0.6326 -0.0253
19852TIP3    H180971   6.046   2.854  14.399  0.5396  0.6208 -0.6679
19852TIP3    H280972   5.932   2.811  14.309  0.2620  1.4047 -0.6958
19853TIP3   OH280973   3.712   4.291  14.587 -0.4751  0.4134  0.1721
19853TIP3    H180974   3.805   4.281  14.568 -0.7217  0.4901 -1.1733
19853TIP3    H280975   3.696   4.385  14.580 -0.6315  0.4167  0.5462
19854TIP3   OH280976   3.189   3.380  14.131  0.3710  0.4134 -0.8268
19854TIP3    H180977   3.270   3.357  14.086 -0.2353 -0.3204 -1.5863
19854TIP3    H280978   3.119   3.355  14.070 -0.6202 -2.6409  1.2376
19855TIP3   OH280979   4.675   1.131  14.998  0.1608 -0.5627  0.4692
19855TIP3    H180980   4.642   1.135  15.087  0.4990  0.2671  0.5643
19855TIP3    H280981   4.601   1.158  14.943  0.6891  1.4962  0.6948
19856TIP3   OH280982   5.739   3.243  12.958 -0.2223 -0.2782 -0.2073
19856TIP3    H180983   5.748   3.182  12.885 -2.0341  0.6030 -1.2203
19856TIP3    H280984   5.657   3.218  13.001 -0.4556  0.7870 -0.0014
19857TIP3   OH280985   5.329   0.089   0.764 -0.9144 -0.4285 -0.0660
19857TIP3    H180986   5.298   0.049   0.845 -0.4152 -2.3986 -0.7887
19857TIP3    H280987   5.253   0.087   0.706 -0.9574 -0.0585 -0.0261
19858TIP3   OH280988   5.884   5.586   2.304  0.0355 -0.5273  0.0627
19858TIP3    H180989   5.792   5.605   2.321  0.0483  0.3249 -0.7901
19858TIP3    H280990   5.887   5.561   2.212  0.4339 -2.1236  0.4733
19859TIP3   OH280991   0.829   5.881  14.972  0.2761 -0.6601 -0.2899
19859TIP3    H180992   0.748   5.929  14.954  2.4187  2.6338 -2.2210
19859TIP3    H280993   0.811   5.792  14.944 -2.6763 -0.0823 -0.5510
19860TIP3   OH280994   6.695   3.736   2.987 -0.1935  0.1749  1.1224
19860TIP3    H180995   6.674   3.826   3.013 -0.9574  0.6412 -0.9408
19860TIP3    H280996   6.627   3.683   3.028 -1.5203  0.9082 -0.0657
19861TIP3   OH280997   0.608   1.983   1.736 -0.3529  0.1539 -0.1976
19861TIP3    H180998   0.536   2.022   1.785 -0.2256  0.8798 -0.5709
19861TIP3    H280999   0.676   1.968   1.802 -0.6045  0.0701  0.0434
19862TIP3   OH281000   0.708   5.785   2.293  0.5377 -0.1525 -0.4240
19862TIP3    H181001   0.705   5.698   2.333  0.8895 -0.4087 -0.9431
19862TIP3    H281002   0.616   5.809   2.282  0.3795  0.7948  2.3444
19863TIP3   OH281003   1.833   4.534  11.748 -0.2561  0.5821 -0.3039
19863TIP3    H181004   1.850   4.604  11.684  1.8395  2.1148  1.7776
19863TIP3    H281005   1.914   4.484  11.749 -1.6588 -1.9083 -1.6128
19864TIP3   OH281006   5.530   4.378   0.117  1.0478  0.2182  0.3063
19864TIP3    H181007   5.594   4.368   0.187 -1.6759 -1.6209  2.7377
19864TIP3    H281008   5.446   4.380   0.161 -0.7743  0.2326 -2.8805
19865TIP3   OH281009   1.035   3.891  13.096 -0.5530  0.1273  0.4759
19865TIP3    H181010   0.944   3.909  13.120 -0.6913  1.1599 -0.7370
19865TIP3    H281011   1.032   3.868  13.004  0.2996 -0.9691  0.7086
19866TIP3   OH281012   1.984   1.500   2.096 -0.6201  0.1019  0.3977
19866TIP3    H181013   1.937   1.447   2.160  0.2464 -1.7744 -0.4137
19866TIP3    H281014   1.934   1.487   2.014 -0.8122  1.1649  0.3364
19867TIP3   OH281015   6.728   2.975   2.219  0.2972  0.3362 -0.2263
19867TIP3    H181016   6.637   2.977   2.248  0.4504 -0.6166  0.3627
19867TIP3    H281017   6.722   2.961   2.124 -0.1656  0.0099 -0.1541
19868TIP3   OH281018   6.638   3.386   2.269  0.8290 -0.0486  0.4955
19868TIP3    H181019   6.714   3.396   2.211  0.0315 -0.1243 -0.6079
19868TIP3    H281020   6.576   3.453   2.239  0.1958 -0.4314  0.9248
19869TIP3   OH281021   5.547   5.113   0.563 -0.1615 -0.3521  0.2352
19869TIP3    H181022   5.585   5.039   0.516  0.6716 -0.2613  0.7438
19869TIP3    H281023   5.512   5.074   0.644  3.4449  0.1809  2.2987
19870TIP3   OH281024   1.204   2.376  16.780  0.1797  0.2449  0.3151
19870TIP3    H181025   1.188   2.414  16.694 -0.3172  1.2755  0.8390
19870TIP3    H281026   1.262   2.302  16.764 -2.4664 -1.6183 -1.2934
19871TIP3   OH281027   1.789   1.063   5.654 -0.3416  0.0861  0.0866
19871TIP3    H181028   1.702   1.056   5.692 -0.4802  3.0481  0.5050
19871TIP3    H281029   1.775   1.098   5.566  0.4492  2.2629  0.7690
19872TIP3   OH281030   3.943   2.100   5.711  0.0556  0.1764 -0.0836
19872TIP3    H181031   3.858   2.076   5.747 -0.2515 -0.0660 -0.9418
19872TIP3    H281032   3.930   2.188   5.674  0.1394  0.0903 -0.3221
19873TIP3   OH281033   0.330   3.464   0.592  0.3304 -0.3260 -0.4600
19873TIP3    H181034   0.371   3.409   0.659  1.1415  0.8958  0.0803
19873TIP3    H281035   0.315   3.405   0.518  3.3936 -0.7933 -0.8200
19874TIP3   OH281036   6.292   5.312   4.660 -0.5334  0.4200 -0.7334
19874TIP3    H181037   6.231   5.269   4.600 -0.3737  0.1534 -0.7061
19874TIP3    H281038   6.342   5.372   4.605  1.4135 -1.6473 -1.4223
19875TIP3   OH281039   6.150   3.994  14.875  0.7060 -0.3418 -0.1387
19875TIP3    H181040   6.220   3.992  14.941  2.5886  2.2226 -1.8578
19875TIP3    H281041   6.181   3.934  14.807 -0.5376 -1.8634  0.5654
19876TIP3   OH281042   0.088   6.581  11.961  0.0500  0.6294 -0.1141
19876TIP3    H181043   0.159   6.639  11.990 -0.2602 -0.3269  2.8327
19876TIP3    H281044   0.024   6.585  12.031 -1.6565 -0.5516 -1.5271
19877TIP3   OH281045   0.764   2.175   5.869  0.7150  0.3952 -0.8260
19877TIP3    H181046   0.825   2.176   5.795  0.3353  1.1289 -1.1491
19877TIP3    H281047   0.817   2.198   5.945  1.0303  0.0393 -0.9378
19878TIP3   OH281048   0.021   5.575  13.448  0.0483  0.2559 -0.1233
19878TIP3    H181049   0.083   5.504  13.429  1.1620  1.6226 -1.8656
19878TIP3    H281050   0.069   5.635  13.505  0.1333  1.0186 -0.9806
19879TIP3   OH281051   3.477   3.032   3.434 -0.1533  0.2876  0.1716
19879TIP3    H181052   3.384   3.022   3.412 -0.4110  1.9525  0.3962
19879TIP3    H281053   3.500   3.120   3.404  0.5438  1.0902  2.8080
19880TIP3   OH281054   6.026   3.023   2.423  0.1010 -0.2305  0.3416
19880TIP3    H181055   5.948   3.012   2.477 -1.0792  0.2278 -1.1953
19880TIP3    H281056   6.037   3.118   2.415  0.6856 -0.2904  0.3567
19881TIP3   OH281057   4.292   2.838  10.827  0.3702  0.2466  0.1765
19881TIP3    H181058   4.357   2.894  10.784 -0.2857  0.6053 -0.3737
19881TIP3    H281059   4.279   2.766  10.766 -0.6864  0.8411 -0.3317
19882TIP3   OH281060   4.174   3.719  14.565  0.2304 -0.4513 -0.5463
19882TIP3    H181061   4.133   3.649  14.513 -0.1305 -0.1339 -0.6903
19882TIP3    H281062   4.183   3.681  14.652 -1.3369 -0.1805 -0.2354
19883TIP3   OH281063   4.224   5.773   0.203  0.2084 -0.5233 -0.7070
19883TIP3    H181064   4.287   5.751   0.271 -0.7610  0.6394  0.6224
19883TIP3    H281065   4.259   5.732   0.124  1.8801 -1.0841  0.2729
19884TIP3   OH281066   4.696   3.505  11.907  0.3793  0.2531  0.4532
19884TIP3    H181067   4.782   3.490  11.867 -0.4250 -2.1979 -0.5056
19884TIP3    H281068   4.689   3.439  11.975 -1.3592 -0.7032 -0.5734
19885TIP3   OH281069   3.647   4.630   0.874 -0.1917 -0.2267 -0.5959
19885TIP3    H181070   3.555   4.636   0.847 -0.2449  0.3342 -0.3226
19885TIP3    H281071   3.673   4.541   0.852 -0.7756 -0.3621 -0.7644
19886TIP3   OH281072   5.486   1.762  11.654 -0.2383 -0.6069 -0.4643
19886TIP3    H181073   5.529   1.721  11.579 -0.7287 -2.0210  0.0044
19886TIP3    H281074   5.392   1.750  11.636 -0.4031  0.5166 -0.4179
19887TIP3   OH281075   4.516   6.581   2.856 -0.2120  0.3433  0.1874
19887TIP3    H181076   4.516   6.516   2.927  0.6784  0.5997  0.4300
19887TIP3    H281077   4.535   6.664   2.899 -1.1218  0.7431 -0.1556
19888TIP3   OH281078   0.144   1.023   4.316  0.7623  0.6320 -0.0726
19888TIP3    H181079   0.217   1.041   4.374 -0.1711 -0.1113  1.3997
19888TIP3    H281080   0.101   1.107   4.303  1.0518  0.8213  0.2007
19889TIP3   OH281081   1.828   5.401   3.977  0.2282 -0.1143  0.0596
19889TIP3    H181082   1.785   5.316   3.974  1.0530 -0.5331  0.0838
19889TIP3    H281083   1.920   5.383   3.963  0.5497  0.6729  0.9873
19890TIP3   OH281084   4.059   4.918   6.027 -0.6390  0.1550 -0.7379
19890TIP3    H181085   4.034   4.842   5.975  0.3908  0.0002 -1.0363
19890TIP3    H281086   4.150   4.934   6.004 -0.0776 -0.0363  1.1673
19891TIP3   OH281087   5.525   4.579  11.343  0.0105 -0.0157  0.4942
19891TIP3    H181088   5.464   4.651  11.353 -0.9423 -0.5215 -1.2982
19891TIP3    H281089   5.611   4.618  11.361 -0.6151  1.2183  0.9111
19892TIP3   OH281090   3.719   0.102  11.989 -0.4483 -0.3335 -0.1503
19892TIP3    H181091   3.719   0.094  11.894 -1.9831 -3.3994 -0.0092
19892TIP3    H281092   3.631   0.134  12.011 -0.1291  0.2869  0.2758
19893TIP3   OH281093   3.850   0.253  16.887 -0.4248  0.1378 -0.0452
19893TIP3    H181094   3.864   0.232  16.794 -0.2465  1.2156 -0.2778
19893TIP3    H281095   3.756   0.240  16.900 -0.4557 -0.0012 -0.3807
19894TIP3   OH281096   1.122   3.666   1.890 -0.2870  0.1721  0.5067
19894TIP3    H181097   1.131   3.635   1.980 -0.2111  0.6728  0.6733
19894TIP3    H281098   1.146   3.759   1.894 -0.3294  0.2068 -0.0196
19895TIP3   OH281099   0.915   2.208  16.597 -0.3685 -0.5438  0.4363
19895TIP3    H181100   0.867   2.132  16.564 -2.1332  0.1766  1.1901
19895TIP3    H281101   0.980   2.172  16.657 -2.0453 -1.4450  1.8051
19896TIP3   OH281102   0.004   3.664   0.527  0.6582 -0.4620  0.0023
19896TIP3    H181103   0.085   3.711   0.509  0.8228 -0.5806  0.4315
19896TIP3    H281104  -0.064   3.716   0.484  0.6761  0.8126  1.4159
19897TIP3   OH281105   2.026   1.542  17.195 -0.2831 -0.1131  0.4928
19897TIP3    H181106   2.084   1.606  17.237 -1.3418  1.8505 -0.8521
19897TIP3    H281107   1.939   1.563  17.230 -0.9487  0.5670 -1.4635
19898TIP3   OH281108   3.561   0.162   3.559  0.6319  0.7715 -0.0266
19898TIP3    H181109   3.538   0.252   3.580 -0.3582  0.6562 -0.5159
19898TIP3    H281110   3.632   0.139   3.619 -0.6203  1.1423  1.6674
19899TIP3   OH281111   2.573   6.575  15.839 -0.4816 -0.5656  0.5424
19899TIP3    H181112   2.564   6.517  15.763 -2.7609 -0.4379  0.6620
19899TIP3    H281113   2.665   6.601  15.837 -0.9266  1.7731 -3.9602
19900TIP3   OH281114   6.390   3.957  16.464  0.8775 -0.0310 -0.0477
19900TIP3    H181115   6.354   4.036  16.504  1.2318  0.3129 -0.4047
19900TIP3    H281116   6.366   3.963  16.372 -0.7062 -1.2600  0.2422
19901TIP3   OH281117   6.408   1.840  10.444  0.6915  0.3570 -0.0486
19901TIP3    H181118   6.437   1.928  10.424 -2.1632  1.6265  0.7831
19901TIP3    H281119   6.373   1.846  10.533 -0.7792 -1.2634 -0.4506
19902TIP3   OH281120   2.615   2.418  16.264  0.4369  0.6671 -0.5532
19902TIP3    H181121   2.585   2.336  16.227 -0.3620  0.4807  0.4531
19902TIP3    H281122   2.703   2.431  16.227  0.0644  0.0176 -1.6935
19903TIP3   OH281123   5.579   6.186   3.595 -0.3898  0.2568  0.0636
19903TIP3    H181124   5.500   6.233   3.622  0.5260  1.4042  0.8332
19903TIP3    H281125   5.559   6.094   3.614 -2.3162  0.2332 -1.7148
19904TIP3   OH281126   0.718   6.676  11.355 -0.1083  0.3768 -0.0191
19904TIP3    H181127   0.761   6.668  11.440  0.3653 -2.0320 -0.3872
19904TIP3    H281128   0.633   6.634  11.367 -0.3318  0.6781 -0.5360
19905TIP3   OH281129   5.621   3.821  14.245  0.3305  0.2353  0.2338
19905TIP3    H181130   5.573   3.903  14.237 -0.1276  0.0218  0.7760
19905TIP3    H281131   5.621   3.801  14.338  2.1210  0.6144  0.3572
19906TIP3   OH281132   4.535   5.158  12.423  0.0535  0.1413  0.4847
19906TIP3    H181133   4.622   5.142  12.460  0.6127  0.7940 -0.5239
19906TIP3    H281134   4.494   5.219  12.484  0.3462 -0.0557  0.8845
19907TIP3   OH281135   2.858   0.513  14.195  0.1349  0.0037 -0.3148
19907TIP3    H181136   2.770   0.543  14.172 -0.2382 -1.5928 -1.1387
19907TIP3    H281137   2.894   0.583  14.249 -1.6788  0.6528  0.1330
19908TIP3   OH281138   5.879   4.243  17.168 -0.0344 -0.6262  0.2951
19908TIP3    H181139   5.837   4.318  17.128 -0.3089  0.4031  2.3905
19908TIP3    H281140   5.876   4.175  17.100  0.7717  1.3749 -1.8830
19909TIP3   OH281141   0.519   4.619   1.341 -0.3280 -0.5057  0.6837
19909TIP3    H181142   0.536   4.543   1.286 -0.2897  0.2040 -0.3012
19909TIP3    H281143   0.468   4.679   1.286 -0.0038  0.3632  1.2970
19910TIP3   OH281144   1.583   0.588   1.925  0.0525  0.1339 -0.0084
19910TIP3    H181145   1.587   0.557   2.016 -0.3376  2.5463  0.9089
19910TIP3    H281146   1.495   0.563   1.895  0.5336 -1.5566 -0.1147
19911TIP3   OH281147   0.645   1.500   1.194  0.1385 -0.4032 -0.7666
19911TIP3    H181148   0.731   1.462   1.182  0.8280  0.7871  0.1802
19911TIP3    H281149   0.651   1.548   1.277 -1.6498 -0.8827 -0.3075
19912TIP3   OH281150   2.265   2.284  12.992  0.0081 -0.0934  0.6967
19912TIP3    H181151   2.326   2.339  12.942  0.7644  0.0223  1.7164
19912TIP3    H281152   2.314   2.260  13.071 -2.2218  2.4644  3.0535
19913TIP3   OH281153   0.019   1.467  14.199  0.0717  0.0045 -0.5606
19913TIP3    H181154   0.027   1.514  14.116  0.5724  1.6871  0.4056
19913TIP3    H281155   0.108   1.460  14.232 -0.3673  2.3057  1.3789
19914TIP3   OH281156   3.257   3.155  12.038 -0.1796 -0.0145  0.6320
19914TIP3    H181157   3.324   3.148  11.970  1.2475 -0.0498  1.9871
19914TIP3    H281158   3.223   3.244  12.031  1.5164  0.7132  1.2476
19915TIP3   OH281159   6.629   4.571  17.305  0.9862 -0.8831  0.4790
19915TIP3    H181160   6.627   4.568  17.209  1.2954 -0.9994  0.4727
19915TIP3    H281161   6.669   4.487  17.329  0.1522 -1.2095  0.7368
19916TIP3   OH281162   1.698   3.994  11.972  0.5025 -0.2125  0.5608
19916TIP3    H181163   1.644   4.002  12.050  1.7177 -0.7729  1.5016
19916TIP3    H281164   1.760   4.066  11.978 -0.1460  0.4631 -0.5408
19917TIP3   OH281165   4.132   5.663  15.090  0.3870  0.1367  0.1509
19917TIP3    H181166   4.080   5.639  15.013  1.6774 -0.5135 -0.5519
19917TIP3    H281167   4.136   5.582  15.142  1.1435  0.0170 -0.0812
19918TIP3   OH281168   1.976   0.390   4.834  0.0742 -0.0976  0.1118
19918TIP3    H181169   1.958   0.448   4.760  0.3187 -1.6200 -1.1722
19918TIP3    H281170   2.057   0.424   4.872  0.4798  0.1163 -0.9214
19919TIP3   OH281171   5.304   4.300   4.562  0.2477  0.0152  0.0258
19919TIP3    H181172   5.273   4.226   4.615  0.4419 -0.8822 -1.0715
19919TIP3    H281173   5.389   4.272   4.529  0.7318  1.1066  0.3023
19920TIP3   OH281174   3.097   4.583   1.676  0.6844  0.4323  0.4641
19920TIP3    H181175   3.105   4.489   1.660  0.0831  0.5920 -0.9018
19920TIP3    H281176   3.018   4.591   1.731 -0.6091  0.2698 -1.2701
19921TIP3   OH281177   1.277   1.682   0.266  0.2823 -0.2798  0.0917
19921TIP3    H181178   1.261   1.749   0.200  0.7385 -1.0968 -0.8774
19921TIP3    H281179   1.194   1.636   0.276  0.3275 -0.4348 -0.2412
19922TIP3   OH281180   4.913   5.699  12.581  0.2491 -0.2648 -0.4922
19922TIP3    H181181   4.924   5.648  12.661  1.6758  0.1045 -0.4223
19922TIP3    H281182   5.002   5.723  12.556 -0.2226  0.1059 -1.8831
19923TIP3   OH281183   4.342   1.977   0.559 -0.2313 -0.2387 -0.4801
19923TIP3    H181184   4.356   2.071   0.568  0.0618 -0.2918 -0.3907
19923TIP3    H281185   4.324   1.947   0.648  1.0078 -0.4860 -0.2922
19924TIP3   OH281186   2.738   3.809  12.071 -0.1184 -0.0680  0.4021
19924TIP3    H181187   2.833   3.801  12.060 -0.2276 -1.3511  0.2124
19924TIP3    H281188   2.722   3.781  12.161 -0.2443  0.9515  0.7082
19925TIP3   OH281189   2.240   3.377  11.022 -0.0446  0.7030  0.2635
19925TIP3    H181190   2.163   3.344  10.976  0.2346 -1.4935  1.2322
19925TIP3    H281191   2.314   3.338  10.975  0.5240  2.7258 -0.6105
19926TIP3   OH281192   1.331   2.401   1.600 -0.4185 -0.0283 -0.0378
19926TIP3    H181193   1.406   2.422   1.544 -0.2672 -0.3714  0.0368
19926TIP3    H281194   1.272   2.351   1.544 -0.4114 -0.1007  0.0197
19927TIP3   OH281195   6.319   4.040  11.688  0.4111  0.5359  0.1186
19927TIP3    H181196   6.412   4.031  11.667  0.2880  0.0512 -0.2503
19927TIP3    H281197   6.300   3.965  11.744 -0.2318 -0.6170 -1.5487
19928TIP3   OH281198   0.035   2.643  15.247  0.1540  0.3438 -0.0795
19928TIP3    H181199  -0.050   2.678  15.277 -0.3253 -0.2055 -0.7653
19928TIP3    H281200   0.021   2.549  15.242  1.2796  0.0826  1.2381
19929TIP3   OH281201   3.434   4.751  13.147 -0.8948 -0.7455 -0.0807
19929TIP3    H181202   3.503   4.733  13.211 -0.8724 -2.0957 -0.4505
19929TIP3    H281203   3.413   4.843  13.160  2.4464  0.3381 -1.3842
19930TIP3   OH281204   4.140   3.449   3.355  0.4608  0.3207 -0.4082
19930TIP3    H181205   4.092   3.366   3.351  0.8454 -0.3777  4.0273
19930TIP3    H281206   4.232   3.424   3.351  0.5689  0.8151 -1.2577
19931TIP3   OH281207   5.236   1.952   3.844 -0.3011  0.1383  0.2662
19931TIP3    H181208   5.254   1.985   3.932  1.4839 -0.2632  0.0997
19931TIP3    H281209   5.180   2.019   3.805  1.7231  2.1390  0.5672
19932TIP3   OH281210   1.127   5.944   0.814  0.2752 -0.2424 -0.5784
19932TIP3    H181211   1.068   5.980   0.748 -1.0127 -1.1719  0.0242
19932TIP3    H281212   1.210   5.932   0.768 -0.4459 -0.4023 -1.8913
19933TIP3   OH281213   2.586   2.544   1.078  0.9186 -0.1342  0.4713
19933TIP3    H181214   2.674   2.511   1.097  0.5549 -0.4015  1.8365
19933TIP3    H281215   2.544   2.548   1.164 -0.6735 -0.7905 -0.2496
19934TIP3   OH281216   0.606   5.742  13.813  0.1781  0.5595 -0.1285
19934TIP3    H181217   0.606   5.649  13.791  1.8551  0.7663 -1.1605
19934TIP3    H281218   0.633   5.745  13.905  0.0777  0.0312 -0.0788
19935TIP3   OH281219   4.634   0.109   4.030 -0.0940 -0.3259 -0.6164
19935TIP3    H181220   4.718   0.148   4.055 -0.3327 -0.5089  0.5278
19935TIP3    H281221   4.616   0.045   4.100 -0.9666 -0.6068 -1.0853
19936TIP3   OH281222   1.379   4.343  14.918 -0.2202  0.4315  0.3544
19936TIP3    H181223   1.356   4.425  14.962 -3.0667 -0.1475  0.1388
19936TIP3    H281224   1.320   4.338  14.843  0.3345 -1.5280 -0.0228
19937TIP3   OH281225   5.807   3.534  12.345 -0.2437  0.0957  0.1339
19937TIP3    H181226   5.849   3.489  12.272 -2.0452  1.0358 -1.5738
19937TIP3    H281227   5.775   3.463  12.401  0.2110 -0.6679 -0.5480
19938TIP3   OH281228   6.280   2.989   1.147  0.5468  0.0566  0.2806
19938TIP3    H181229   6.330   3.029   1.218 -1.9973  0.9128  1.7470
19938TIP3    H281230   6.259   2.901   1.178  1.6710 -0.5609 -0.6348
19939TIP3   OH281231   0.718   4.319  14.535  0.0599  0.2207  0.3226
19939TIP3    H181232   0.728   4.390  14.472  2.0243 -0.9154 -0.7584
19939TIP3    H281233   0.642   4.270  14.503  1.4064 -0.7203 -1.6546
19940TIP3   OH281234   4.893   5.794  14.685  0.1935  0.4981  0.1837
19940TIP3    H181235   4.923   5.754  14.603  1.4534  1.2152  0.2580
19940TIP3    H281236   4.935   5.741  14.753 -0.4434  0.2103  0.3530
19941TIP3   OH281237   2.690   2.387  16.955  0.0834  0.4326 -0.1160
19941TIP3    H181238   2.676   2.425  17.042  0.1708  0.7862 -0.2543
19941TIP3    H281239   2.672   2.459  16.894 -2.0155 -0.3377 -0.4985
19942TIP3   OH281240   5.596   2.447  12.928 -0.3924 -0.6788 -0.3124
19942TIP3    H181241   5.663   2.487  12.984 -0.1821  1.1998 -1.8234
19942TIP3    H281242   5.520   2.505  12.938 -0.3428 -0.2946 -1.9396
19943TIP3   OH281243   2.996   4.495   2.306 -0.3283  0.0312  0.1715
19943TIP3    H181244   2.985   4.403   2.283  0.8650 -0.4413  1.3841
19943TIP3    H281245   3.003   4.496   2.401  0.8138  1.2495  0.1090
19944TIP3   OH281246   2.920   0.346  16.055 -0.4061 -0.1498 -0.4785
19944TIP3    H181247   2.914   0.413  16.124 -1.0983 -0.6152 -0.0707
19944TIP3    H281248   2.885   0.389  15.977  0.2075  0.3238 -0.5049
19945TIP3   OH281249   3.948   1.771   0.935  0.7669  0.1016 -0.4272
19945TIP3    H181250   3.958   1.792   1.028  0.4628 -0.4025 -0.2741
19945TIP3    H281251   3.998   1.690   0.924  0.9474  0.2528 -0.7459
19946TIP3   OH281252   0.593   3.286  10.948  0.0848 -0.1352  0.1381
19946TIP3    H181253   0.546   3.218  10.996 -2.3441  1.5332  0.2898
19946TIP3    H281254   0.656   3.238  10.894  0.0888 -2.3111  1.9319
19947TIP3   OH281255   5.625   3.329   4.933  0.0225 -0.3200 -0.0206
19947TIP3    H181256   5.689   3.401   4.938 -0.4859  0.2840 -1.5176
19947TIP3    H281257   5.576   3.347   4.853 -0.3325 -2.1861 -0.2595
19948TIP3   OH281258   2.230   4.451  12.066  0.3061  0.0799 -0.2302
19948TIP3    H181259   2.300   4.385  12.065  2.4545  2.1017 -3.5076
19948TIP3    H281260   2.173   4.427  11.993  0.0579  0.8511 -0.2974
19949TIP3   OH281261   1.719   6.511  12.930  0.4410 -0.8383  0.0347
19949TIP3    H181262   1.770   6.489  12.852  0.4680 -0.9360  0.0788
19949TIP3    H281263   1.628   6.505  12.901  0.4513  0.6196 -0.3862
19950TIP3   OH281264   1.420   5.134  15.510 -0.7572 -0.5172  0.0176
19950TIP3    H181265   1.466   5.053  15.488 -1.3592 -0.6519 -0.8188
19950TIP3    H281266   1.387   5.166  15.426 -1.7936 -0.1929  0.5212
19951TIP3   OH281267   6.644   1.531  13.451  0.2103 -0.3180  0.1132
19951TIP3    H181268   6.697   1.574  13.384  1.4290 -1.6715  0.1404
19951TIP3    H281269   6.647   1.590  13.526  1.7912 -0.3772  0.1321
19952TIP3   OH281270   4.964   1.165   2.713  0.2755 -0.0379 -0.2189
19952TIP3    H181271   5.033   1.171   2.779 -0.8670 -0.1336  1.0204
19952TIP3    H281272   4.909   1.092   2.742  0.1554 -0.5882 -1.7063
19953TIP3   OH281273   1.622   5.753   0.233  0.1372  0.1087 -0.3767
19953TIP3    H181274   1.709   5.727   0.203  0.6160  0.4438  0.6721
19953TIP3    H281275   1.575   5.778   0.153  1.0411  0.0407 -0.9391
19954TIP3   OH281276   2.656   4.415  14.345  0.4342  0.1475 -0.6046
19954TIP3    H181277   2.717   4.449  14.280  1.0681  1.8124  0.7968
19954TIP3    H281278   2.571   4.451  14.320  0.7381  1.0802 -0.3398
19955TIP3   OH281279   5.774   4.701   2.077 -0.4737 -0.0123 -0.2549
19955TIP3    H181280   5.750   4.704   2.170 -1.3436  1.1636 -0.5047
19955TIP3    H281281   5.850   4.759   2.070  0.4258 -1.1254 -0.0681
19956TIP3   OH281282   0.358   2.835   1.567  0.4093 -0.1852 -0.2850
19956TIP3    H181283   0.317   2.812   1.650  0.6331  0.5161  0.0221
19956TIP3    H281284   0.323   2.921   1.545  0.8919 -0.0545 -0.5600
19957TIP3   OH281285   2.725   3.005   1.818 -0.2006  0.5307  0.0009
19957TIP3    H181286   2.701   3.075   1.757  0.0172 -0.4760 -1.2763
19957TIP3    H281287   2.745   3.051   1.900 -1.4150  1.8359 -0.3897
19958LIG     O181288   2.435   1.603   0.898  0.2111  0.1282 -0.0821
19958LIG     O281289   2.275   1.633   1.114  0.2088 -0.9067 -0.3109
19958LIG     O381290   2.383   1.853   0.757 -0.0423 -0.6106 -0.5915
19958LIG     O481291   2.382   1.587   1.318 -0.5769  0.0199  0.3311
19958LIG     O581292   2.371   1.921   1.116 -0.2097  0.1840 -0.7459
19958LIG     O681293   2.470   1.999   1.374 -0.0410  0.0276 -0.7569
19958LIG     O781294   2.541   1.805   1.561 -0.7454  0.6369  0.5488
19958LIG     O881295   2.347   1.512   1.592  0.0259 -0.0575 -0.2404
19958LIG     O981296   2.566   1.485   1.601 -0.0213 -0.2491  0.5059
19958LIG      N81297   2.349   1.150   0.682 -1.3272 -0.0427  0.5048
19958LIG     C181298   2.365   1.384   0.847  0.1309  0.1072  0.0277
19958LIG     C281299   2.243   1.287   0.873 -0.0203 -0.3512 -0.3429
19958LIG     C381300   2.405   1.479   0.965 -0.3798  0.1215 -0.5752
19958LIG     C481301   2.224   1.230   0.726  0.0462  0.5522  0.2987
19958LIG     C581302   2.495   1.310   0.796  0.3291  0.0058 -0.4336
19958LIG     C681303   2.319   1.480   0.741 -0.9133  0.3210  0.3999
19958LIG     C781304   2.163   1.335   0.623  0.2800  0.0852 -0.0240
19958LIG     C881305   2.465   1.245   0.661  0.5256  0.3720 -0.9884
19958LIG     C981306   2.288   1.497   1.070  0.0961 -0.0428  0.5557
19958LIG    C1081307   2.226   1.468   0.640 -0.1479 -0.0025 -0.4637
19958LIG    C1181308   2.127   1.359   0.938 -0.0530  0.1950  0.1944
19958LIG    C1281309   2.365   1.605   0.780 -0.7447  0.4945  0.3165
19958LIG    C1381310   2.145   1.454   1.027 -0.2483 -0.7567  0.1547
19958LIG    C1481311   2.392   1.032   0.752 -0.1314  0.2071  0.4248
19958LIG    C1581312   2.181   1.585   0.582 -0.9729  0.4752  0.4462
19958LIG    C1681313   2.330   1.723   0.717 -0.6923  0.1953  0.4377
19958LIG    C1781314   2.246   1.707   0.607 -0.3771 -0.4269 -0.0217
19958LIG    C1881315   2.378   1.677   1.205 -0.0987 -0.0929  0.8996
19958LIG    C1981316   2.368   1.832   1.232 -0.1530 -0.1986 -0.3436
19958LIG    C2081317   2.478   1.861   1.338  0.9295  0.2027 -0.0671
19958LIG    C2181318   2.452   1.769   1.460 -0.5416 -0.0886  0.2459
19958LIG    C2281319   2.477   1.624   1.423 -0.2073 -1.1629  0.7656
19958LIG    C2381320   2.474   1.534   1.539  0.1612  0.3141  0.3455
19958LIG     H181321   2.276   1.200   0.933  1.7923 -1.9932 -3.4938
19958LIG     H281322   2.493   1.437   1.017  1.5250  0.4679 -3.3022
19958LIG     H381323   2.153   1.145   0.730 -0.3712  0.9327  1.0661
19958LIG     H481324   2.532   1.238   0.871  1.0110 -0.9823 -1.6785
19958LIG     H581325   2.574   1.386   0.779 -0.7994  1.2257 -0.4166
19958LIG     H681326   2.053   1.331   0.638  0.2913  0.0233  0.0423
19958LIG     H781327   2.185   1.296   0.521  1.6755  1.2514 -0.1995
19958LIG     H881328   2.443   1.313   0.576  0.0448  1.4057 -0.0586
19958LIG     H981329   2.560   1.196   0.631  0.4335 -0.4991  0.0823
19958LIG    H1081330   2.317   1.436   1.158  4.4827 -0.8819 -1.2264
19958LIG    H1181331   2.032   1.306   0.946 -0.3336  0.8117  1.1575
19958LIG    H1281332   2.055   1.510   1.058 -0.2735  1.5844 -3.5971
19958LIG    H1381333   2.317   0.977   0.814  0.5783 -0.6183  0.5652
19958LIG    H1481334   2.479   1.049   0.819  0.1747  0.7391 -0.1038
19958LIG    H1581335   2.429   0.956   0.680 -0.1036 -0.1976  0.8559
19958LIG    H1681336   2.100   1.590   0.511  0.1105  4.2147 -0.7381
19958LIG    H1781337   2.215   1.800   0.562  1.8821  2.4191  3.8173
19958LIG    H1881338   2.468   1.655   1.144 -2.2507  1.4530 -3.1455
19958LIG    H1981339   2.272   1.850   1.285 -0.6071  1.6646 -1.7181
19958LIG    H2081340   2.576   1.840   1.291 -0.4075  0.3637 -3.1827
19958LIG    H2181341   2.450   1.830   0.823 -0.8432 -3.2416 -0.5910
19958LIG    H2281342   2.349   1.788   1.496 -0.6277  2.2109 -1.0278
19958LIG    H2381343   2.575   1.608   1.371 -0.2936 -1.2616  0.6317
19958LIG    H2481344   2.292   1.975   1.113 -1.0575 -0.9028  0.6384
19958LIG    H2581345   2.496   2.045   1.293  0.3216  0.3575 -0.4543
19958LIG    H2681346   2.509   1.894   1.580  0.2521  1.1497 -0.0435
19958LIG    H2781347   2.343   1.448   1.664  1.9274 -0.1765 -0.1979
   6.77359   6.77359  17.34683
